PSF EXT CMAP DRUDE XPLOR AUTOG

         2 !NTITLE
* CHARMM2OMM PSF                                                                
*  DATE:    12/ 9/22     14:52:51      CREATED BY USER: apache                  

     51408 !NATOM
         1 MEMB     1        POPE     N        ND3P3A    1.62810       13.6070           0  -1.29800      0.895000    
         2 MEMB     1        POPE     DN       DRUD     -1.97710      0.400000           0   0.00000       0.00000    
         3 MEMB     1        POPE     HN1      HDP1B    0.340000       1.00800           0   0.00000       0.00000    
         4 MEMB     1        POPE     HN2      HDP1B    0.340000       1.00800           0   0.00000       0.00000    
         5 MEMB     1        POPE     HN3      HDP1B    0.340000       1.00800           0   0.00000       0.00000    
         6 MEMB     1        POPE     C12      CD32A     2.27610       11.6110           0  -1.65600      0.895000    
         7 MEMB     1        POPE     DC12     DRUD     -2.23310      0.400000           0   0.00000       0.00000    
         8 MEMB     1        POPE     H12A     HDA2A    0.143000       1.00800           0   0.00000       0.00000    
         9 MEMB     1        POPE     H12B     HDA2A    0.143000       1.00800           0   0.00000       0.00000    
        10 MEMB     1        POPE     C11      CD32A     2.42220       11.6110           0  -1.64200      0.862000    
        11 MEMB     1        POPE     DC11     DRUD     -2.22370      0.400000           0   0.00000       0.00000    
        12 MEMB     1        POPE     H11A     HDA2A    0.260000E-01   1.00800           0   0.00000       0.00000    
        13 MEMB     1        POPE     H11B     HDA2A    0.260000E-01   1.00800           0   0.00000       0.00000    
        14 MEMB     1        POPE     P        PD1A      2.90360       30.5740           0 -0.974000       2.09800    
        15 MEMB     1        POPE     DP       DRUD     -1.71260      0.400000           0   0.00000       0.00000    
        16 MEMB     1        POPE     O13      OD2C2B   0.798400       15.5994           0 -0.931000       1.08300    
        17 MEMB     1        POPE     DO13     DRUD     -1.67440      0.400000           0   0.00000       0.00000    
        18 MEMB     1        POPE     O14      OD2C2B   0.798400       15.5994           0 -0.931000       1.08300    
        19 MEMB     1        POPE     DO14     DRUD     -1.67440      0.400000           0   0.00000       0.00000    
        20 MEMB     1        POPE     O11      OD30B     1.17720       15.5994           0 -0.901000      0.181000    
        21 MEMB     1        POPE     DO11     DRUD     -1.64720      0.400000           0   0.00000       0.00000    
        22 MEMB     1        POPE     O12      OD30B     1.17720       15.5994           0 -0.901000      0.181000    
        23 MEMB     1        POPE     DO12     DRUD     -1.64720      0.400000           0   0.00000       0.00000    
        24 MEMB     1        POPE     C1       CD32A     2.42220       11.6110           0  -1.64200      0.862000    
        25 MEMB     1        POPE     DC1      DRUD     -2.22370      0.400000           0   0.00000       0.00000    
        26 MEMB     1        POPE     HA       HDA2A    0.260000E-01   1.00800           0   0.00000       0.00000    
        27 MEMB     1        POPE     HB       HDA2A    0.260000E-01   1.00800           0   0.00000       0.00000    
        28 MEMB     1        POPE     C2       CD31C     2.52830       11.6110           0  -1.79700      0.410000    
        29 MEMB     1        POPE     DC2      DRUD     -2.32630      0.400000           0   0.00000       0.00000    
        30 MEMB     1        POPE     HS       HDA1A    0.116000       1.00800           0   0.00000       0.00000    
        31 MEMB     1        POPE     O21      OD30CL    1.48470       15.5994           0 -0.732000      0.601000    
        32 MEMB     1        POPE     DO21     DRUD     -1.48470      0.400000           0   0.00000       0.00000    
        33 MEMB     1        POPE     C21      CD2O3B    2.72820       11.6110           0  -1.37000       1.74700    
        34 MEMB     1        POPE     DC21     DRUD     -2.03120      0.400000           0   0.00000       0.00000    
        35 MEMB     1        POPE     O22      OD2C3B    1.64990       15.5994           0 -0.904000      0.565000    
        36 MEMB     1        POPE     DO22     DRUD     -1.64990      0.400000           0   0.00000       0.00000    
        37 MEMB     1        POPE     C22      CD32C     2.24380       11.6110           0  -1.99300      0.410000    
        38 MEMB     1        POPE     DC22     DRUD     -2.44980      0.400000           0   0.00000       0.00000    
        39 MEMB     1        POPE     H2R      HDA2A    0.690000E-01   1.00800           0   0.00000       0.00000    
        40 MEMB     1        POPE     H2S      HDA2A    0.690000E-01   1.00800           0   0.00000       0.00000    
        41 MEMB     1        POPE     LP1A     LPD     -0.349000       0.00000          -1   0.00000       0.00000    
        42 MEMB     1        POPE     LP1B     LPD     -0.258000       0.00000          -1   0.00000       0.00000    
        43 MEMB     1        POPE     LPMA     LPD     -0.170000       0.00000          -1   0.00000       0.00000    
        44 MEMB     1        POPE     LPMB     LPD     -0.170000       0.00000          -1   0.00000       0.00000    
        45 MEMB     1        POPE     C3       CD32C     2.41230       11.6110           0  -1.79700      0.410000    
        46 MEMB     1        POPE     DC3      DRUD     -2.32630      0.400000           0   0.00000       0.00000    
        47 MEMB     1        POPE     HX       HDA2A    0.116000       1.00800           0   0.00000       0.00000    
        48 MEMB     1        POPE     HY       HDA2A    0.116000       1.00800           0   0.00000       0.00000    
        49 MEMB     1        POPE     O31      OD30CL    1.48470       15.5994           0 -0.732000      0.601000    
        50 MEMB     1        POPE     DO31     DRUD     -1.48470      0.400000           0   0.00000       0.00000    
        51 MEMB     1        POPE     C31      CD2O3B    2.72820       11.6110           0  -1.37000       1.74700    
        52 MEMB     1        POPE     DC31     DRUD     -2.03120      0.400000           0   0.00000       0.00000    
        53 MEMB     1        POPE     O32      OD2C3B    1.64990       15.5994           0 -0.904000      0.565000    
        54 MEMB     1        POPE     DO32     DRUD     -1.64990      0.400000           0   0.00000       0.00000    
        55 MEMB     1        POPE     C32      CD32C     2.24380       11.6110           0  -1.99300      0.410000    
        56 MEMB     1        POPE     DC32     DRUD     -2.44980      0.400000           0   0.00000       0.00000    
        57 MEMB     1        POPE     H2X      HDA2A    0.690000E-01   1.00800           0   0.00000       0.00000    
        58 MEMB     1        POPE     H2Y      HDA2A    0.690000E-01   1.00800           0   0.00000       0.00000    
        59 MEMB     1        POPE     LP1C     LPD     -0.349000       0.00000          -1   0.00000       0.00000    
        60 MEMB     1        POPE     LP1D     LPD     -0.258000       0.00000          -1   0.00000       0.00000    
        61 MEMB     1        POPE     LPMC     LPD     -0.170000       0.00000          -1   0.00000       0.00000    
        62 MEMB     1        POPE     LPMD     LPD     -0.170000       0.00000          -1   0.00000       0.00000    
        63 MEMB     1        POPE     C23      CD32A     2.07980       11.6110           0  -1.66000       1.30000    
        64 MEMB     1        POPE     DC23     DRUD     -2.23580      0.400000           0   0.00000       0.00000    
        65 MEMB     1        POPE     H3R      HDA2A    0.780000E-01   1.00800           0   0.00000       0.00000    
        66 MEMB     1        POPE     H3S      HDA2A    0.780000E-01   1.00800           0   0.00000       0.00000    
        67 MEMB     1        POPE     C24      CD32A     2.07980       11.6110           0  -1.66000       1.30000    
        68 MEMB     1        POPE     DC24     DRUD     -2.23580      0.400000           0   0.00000       0.00000    
        69 MEMB     1        POPE     H4R      HDA2A    0.780000E-01   1.00800           0   0.00000       0.00000    
        70 MEMB     1        POPE     H4S      HDA2A    0.780000E-01   1.00800           0   0.00000       0.00000    
        71 MEMB     1        POPE     C25      CD32A     2.07980       11.6110           0  -1.66000       1.30000    
        72 MEMB     1        POPE     DC25     DRUD     -2.23580      0.400000           0   0.00000       0.00000    
        73 MEMB     1        POPE     H5R      HDA2A    0.780000E-01   1.00800           0   0.00000       0.00000    
        74 MEMB     1        POPE     H5S      HDA2A    0.780000E-01   1.00800           0   0.00000       0.00000    
        75 MEMB     1        POPE     C26      CD32A     2.07980       11.6110           0  -1.66000       1.30000    
        76 MEMB     1        POPE     DC26     DRUD     -2.23580      0.400000           0   0.00000       0.00000    
        77 MEMB     1        POPE     H6R      HDA2A    0.780000E-01   1.00800           0   0.00000       0.00000    
        78 MEMB     1        POPE     H6S      HDA2A    0.780000E-01   1.00800           0   0.00000       0.00000    
        79 MEMB     1        POPE     C27      CD32A     2.07980       11.6110           0  -1.66000       1.30000    
        80 MEMB     1        POPE     DC27     DRUD     -2.23580      0.400000           0   0.00000       0.00000    
        81 MEMB     1        POPE     H7R      HDA2A    0.780000E-01   1.00800           0   0.00000       0.00000    
        82 MEMB     1        POPE     H7S      HDA2A    0.780000E-01   1.00800           0   0.00000       0.00000    
        83 MEMB     1        POPE     C28      CD32A     2.07980       11.6110           0  -1.66000       1.30000    
        84 MEMB     1        POPE     DC28     DRUD     -2.23580      0.400000           0   0.00000       0.00000    
        85 MEMB     1        POPE     H8R      HDA2A    0.780000E-01   1.00800           0   0.00000       0.00000    
        86 MEMB     1        POPE     H8S      HDA2A    0.780000E-01   1.00800           0   0.00000       0.00000    
        87 MEMB     1        POPE     C29      CD2C1A    2.33700       11.6110           0  -1.99000      0.750000    
        88 MEMB     1        POPE     DC29     DRUD     -2.44800      0.400000           0   0.00000       0.00000    
        89 MEMB     1        POPE     H91      HD2C1A   0.111000       1.00800           0   0.00000       0.00000    
        90 MEMB     1        POPE     C210     CD2C1A    2.33700       11.6110           0  -1.99000      0.750000    
        91 MEMB     1        POPE     DC210    DRUD     -2.44800      0.400000           0   0.00000       0.00000    
        92 MEMB     1        POPE     H101     HD2C1A   0.111000       1.00800           0   0.00000       0.00000    
        93 MEMB     1        POPE     C211     CD32A     2.07980       11.6110           0  -1.66000       1.30000    
        94 MEMB     1        POPE     DC211    DRUD     -2.23580      0.400000           0   0.00000       0.00000    
        95 MEMB     1        POPE     H11R     HDA2A    0.780000E-01   1.00800           0   0.00000       0.00000    
        96 MEMB     1        POPE     H11S     HDA2A    0.780000E-01   1.00800           0   0.00000       0.00000    
        97 MEMB     1        POPE     C212     CD32A     2.07980       11.6110           0  -1.66000       1.30000    
        98 MEMB     1        POPE     DC212    DRUD     -2.23580      0.400000           0   0.00000       0.00000    
        99 MEMB     1        POPE     H12R     HDA2A    0.780000E-01   1.00800           0   0.00000       0.00000    
       100 MEMB     1        POPE     H12S     HDA2A    0.780000E-01   1.00800           0   0.00000       0.00000    
       101 MEMB     1        POPE     C213     CD32A     2.07980       11.6110           0  -1.66000       1.30000    
       102 MEMB     1        POPE     DC213    DRUD     -2.23580      0.400000           0   0.00000       0.00000    
       103 MEMB     1        POPE     H13R     HDA2A    0.780000E-01   1.00800           0   0.00000       0.00000    
       104 MEMB     1        POPE     H13S     HDA2A    0.780000E-01   1.00800           0   0.00000       0.00000    
       105 MEMB     1        POPE     C214     CD32A     2.07980       11.6110           0  -1.66000       1.30000    
       106 MEMB     1        POPE     DC214    DRUD     -2.23580      0.400000           0   0.00000       0.00000    
       107 MEMB     1        POPE     H14R     HDA2A    0.780000E-01   1.00800           0   0.00000       0.00000    
       108 MEMB     1        POPE     H14S     HDA2A    0.780000E-01   1.00800           0   0.00000       0.00000    
       109 MEMB     1        POPE     C215     CD32A     2.07980       11.6110           0  -1.66000       1.30000    
       110 MEMB     1        POPE     DC215    DRUD     -2.23580      0.400000           0   0.00000       0.00000    
       111 MEMB     1        POPE     H15R     HDA2A    0.780000E-01   1.00800           0   0.00000       0.00000    
       112 MEMB     1        POPE     H15S     HDA2A    0.780000E-01   1.00800           0   0.00000       0.00000    
       113 MEMB     1        POPE     C216     CD32A     2.07980       11.6110           0  -1.66000       1.30000    
       114 MEMB     1        POPE     DC216    DRUD     -2.23580      0.400000           0   0.00000       0.00000    
       115 MEMB     1        POPE     H16R     HDA2A    0.780000E-01   1.00800           0   0.00000       0.00000    
       116 MEMB     1        POPE     H16S     HDA2A    0.780000E-01   1.00800           0   0.00000       0.00000    
       117 MEMB     1        POPE     C217     CD32A     2.07980       11.6110           0  -1.66000       1.30000    
       118 MEMB     1        POPE     DC217    DRUD     -2.23580      0.400000           0   0.00000       0.00000    
       119 MEMB     1        POPE     H17R     HDA2A    0.780000E-01   1.00800           0   0.00000       0.00000    
       120 MEMB     1        POPE     H17S     HDA2A    0.780000E-01   1.00800           0   0.00000       0.00000    
       121 MEMB     1        POPE     C218     CD33A     2.30820       11.6110           0  -2.05100       1.30000    
       122 MEMB     1        POPE     DC218    DRUD     -2.48520      0.400000           0   0.00000       0.00000    
       123 MEMB     1        POPE     H18R     HDA3A    0.590000E-01   1.00800           0   0.00000       0.00000    
       124 MEMB     1        POPE     H18S     HDA3A    0.590000E-01   1.00800           0   0.00000       0.00000    
       125 MEMB     1        POPE     H18T     HDA3A    0.590000E-01   1.00800           0   0.00000       0.00000    
       126 MEMB     1        POPE     C33      CD32A     2.07980       11.6110           0  -1.66000       1.30000    
       127 MEMB     1        POPE     DC33     DRUD     -2.23580      0.400000           0   0.00000       0.00000    
       128 MEMB     1        POPE     H3X      HDA2A    0.780000E-01   1.00800           0   0.00000       0.00000    
       129 MEMB     1        POPE     H3Y      HDA2A    0.780000E-01   1.00800           0   0.00000       0.00000    
       130 MEMB     1        POPE     C34      CD32A     2.07980       11.6110           0  -1.66000       1.30000    
       131 MEMB     1        POPE     DC34     DRUD     -2.23580      0.400000           0   0.00000       0.00000    
       132 MEMB     1        POPE     H4X      HDA2A    0.780000E-01   1.00800           0   0.00000       0.00000    
       133 MEMB     1        POPE     H4Y      HDA2A    0.780000E-01   1.00800           0   0.00000       0.00000    
       134 MEMB     1        POPE     C35      CD32A     2.07980       11.6110           0  -1.66000       1.30000    
       135 MEMB     1        POPE     DC35     DRUD     -2.23580      0.400000           0   0.00000       0.00000    
       136 MEMB     1        POPE     H5X      HDA2A    0.780000E-01   1.00800           0   0.00000       0.00000    
       137 MEMB     1        POPE     H5Y      HDA2A    0.780000E-01   1.00800           0   0.00000       0.00000    
       138 MEMB     1        POPE     C36      CD32A     2.07980       11.6110           0  -1.66000       1.30000    
       139 MEMB     1        POPE     DC36     DRUD     -2.23580      0.400000           0   0.00000       0.00000    
       140 MEMB     1        POPE     H6X      HDA2A    0.780000E-01   1.00800           0   0.00000       0.00000    
       141 MEMB     1        POPE     H6Y      HDA2A    0.780000E-01   1.00800           0   0.00000       0.00000    
       142 MEMB     1        POPE     C37      CD32A     2.07980       11.6110           0  -1.66000       1.30000    
       143 MEMB     1        POPE     DC37     DRUD     -2.23580      0.400000           0   0.00000       0.00000    
       144 MEMB     1        POPE     H7X      HDA2A    0.780000E-01   1.00800           0   0.00000       0.00000    
       145 MEMB     1        POPE     H7Y      HDA2A    0.780000E-01   1.00800           0   0.00000       0.00000    
       146 MEMB     1        POPE     C38      CD32A     2.07980       11.6110           0  -1.66000       1.30000    
       147 MEMB     1        POPE     DC38     DRUD     -2.23580      0.400000           0   0.00000       0.00000    
       148 MEMB     1        POPE     H8X      HDA2A    0.780000E-01   1.00800           0   0.00000       0.00000    
       149 MEMB     1        POPE     H8Y      HDA2A    0.780000E-01   1.00800           0   0.00000       0.00000    
       150 MEMB     1        POPE     C39      CD32A     2.07980       11.6110           0  -1.66000       1.30000    
       151 MEMB     1        POPE     DC39     DRUD     -2.23580      0.400000           0   0.00000       0.00000    
       152 MEMB     1        POPE     H9X      HDA2A    0.780000E-01   1.00800           0   0.00000       0.00000    
       153 MEMB     1        POPE     H9Y      HDA2A    0.780000E-01   1.00800           0   0.00000       0.00000    
       154 MEMB     1        POPE     C310     CD32A     2.07980       11.6110           0  -1.66000       1.30000    
       155 MEMB     1        POPE     DC310    DRUD     -2.23580      0.400000           0   0.00000       0.00000    
       156 MEMB     1        POPE     H10X     HDA2A    0.780000E-01   1.00800           0   0.00000       0.00000    
       157 MEMB     1        POPE     H10Y     HDA2A    0.780000E-01   1.00800           0   0.00000       0.00000    
       158 MEMB     1        POPE     C311     CD32A     2.07980       11.6110           0  -1.66000       1.30000    
       159 MEMB     1        POPE     DC311    DRUD     -2.23580      0.400000           0   0.00000       0.00000    
       160 MEMB     1        POPE     H11X     HDA2A    0.780000E-01   1.00800           0   0.00000       0.00000    
       161 MEMB     1        POPE     H11Y     HDA2A    0.780000E-01   1.00800           0   0.00000       0.00000    
       162 MEMB     1        POPE     C312     CD32A     2.07980       11.6110           0  -1.66000       1.30000    
       163 MEMB     1        POPE     DC312    DRUD     -2.23580      0.400000           0   0.00000       0.00000    
       164 MEMB     1        POPE     H12X     HDA2A    0.780000E-01   1.00800           0   0.00000       0.00000    
       165 MEMB     1        POPE     H12Y     HDA2A    0.780000E-01   1.00800           0   0.00000       0.00000    
       166 MEMB     1        POPE     C313     CD32A     2.07980       11.6110           0  -1.66000       1.30000    
       167 MEMB     1        POPE     DC313    DRUD     -2.23580      0.400000           0   0.00000       0.00000    
       168 MEMB     1        POPE     H13X     HDA2A    0.780000E-01   1.00800           0   0.00000       0.00000    
       169 MEMB     1        POPE     H13Y     HDA2A    0.780000E-01   1.00800           0   0.00000       0.00000    
       170 MEMB     1        POPE     C314     CD32A     2.07980       11.6110           0  -1.66000       1.30000    
       171 MEMB     1        POPE     DC314    DRUD     -2.23580      0.400000           0   0.00000       0.00000    
       172 MEMB     1        POPE     H14X     HDA2A    0.780000E-01   1.00800           0   0.00000       0.00000    
       173 MEMB     1        POPE     H14Y     HDA2A    0.780000E-01   1.00800           0   0.00000       0.00000    
       174 MEMB     1        POPE     C315     CD32A     2.07980       11.6110           0  -1.66000       1.30000    
       175 MEMB     1        POPE     DC315    DRUD     -2.23580      0.400000           0   0.00000       0.00000    
       176 MEMB     1        POPE     H15X     HDA2A    0.780000E-01   1.00800           0   0.00000       0.00000    
       177 MEMB     1        POPE     H15Y     HDA2A    0.780000E-01   1.00800           0   0.00000       0.00000    
       178 MEMB     1        POPE     C316     CD33A     2.30820       11.6110           0  -2.05100       1.30000    
       179 MEMB     1        POPE     DC316    DRUD     -2.48520      0.400000           0   0.00000       0.00000    
       180 MEMB     1        POPE     H16X     HDA3A    0.590000E-01   1.00800           0   0.00000       0.00000    
       181 MEMB     1        POPE     H16Y     HDA3A    0.590000E-01   1.00800           0   0.00000       0.00000    
       182 MEMB     1        POPE     H16Z     HDA3A    0.590000E-01   1.00800           0   0.00000       0.00000    
       183 MEMB     2        POPE     N        ND3P3A    1.62810       13.6070           0  -1.29800      0.895000    
       184 MEMB     2        POPE     DN       DRUD     -1.97710      0.400000           0   0.00000       0.00000    
       185 MEMB     2        POPE     HN1      HDP1B    0.340000       1.00800           0   0.00000       0.00000    
       186 MEMB     2        POPE     HN2      HDP1B    0.340000       1.00800           0   0.00000       0.00000    
       187 MEMB     2        POPE     HN3      HDP1B    0.340000       1.00800           0   0.00000       0.00000    
       188 MEMB     2        POPE     C12      CD32A     2.27610       11.6110           0  -1.65600      0.895000    
       189 MEMB     2        POPE     DC12     DRUD     -2.23310      0.400000           0   0.00000       0.00000    
       190 MEMB     2        POPE     H12A     HDA2A    0.143000       1.00800           0   0.00000       0.00000    
       191 MEMB     2        POPE     H12B     HDA2A    0.143000       1.00800           0   0.00000       0.00000    
       192 MEMB     2        POPE     C11      CD32A     2.42220       11.6110           0  -1.64200      0.862000    
       193 MEMB     2        POPE     DC11     DRUD     -2.22370      0.400000           0   0.00000       0.00000    
       194 MEMB     2        POPE     H11A     HDA2A    0.260000E-01   1.00800           0   0.00000       0.00000    
       195 MEMB     2        POPE     H11B     HDA2A    0.260000E-01   1.00800           0   0.00000       0.00000    
       196 MEMB     2        POPE     P        PD1A      2.90360       30.5740           0 -0.974000       2.09800    
       197 MEMB     2        POPE     DP       DRUD     -1.71260      0.400000           0   0.00000       0.00000    
       198 MEMB     2        POPE     O13      OD2C2B   0.798400       15.5994           0 -0.931000       1.08300    
       199 MEMB     2        POPE     DO13     DRUD     -1.67440      0.400000           0   0.00000       0.00000    
       200 MEMB     2        POPE     O14      OD2C2B   0.798400       15.5994           0 -0.931000       1.08300    
       201 MEMB     2        POPE     DO14     DRUD     -1.67440      0.400000           0   0.00000       0.00000    
       202 MEMB     2        POPE     O11      OD30B     1.17720       15.5994           0 -0.901000      0.181000    
       203 MEMB     2        POPE     DO11     DRUD     -1.64720      0.400000           0   0.00000       0.00000    
       204 MEMB     2        POPE     O12      OD30B     1.17720       15.5994           0 -0.901000      0.181000    
       205 MEMB     2        POPE     DO12     DRUD     -1.64720      0.400000           0   0.00000       0.00000    
       206 MEMB     2        POPE     C1       CD32A     2.42220       11.6110           0  -1.64200      0.862000    
       207 MEMB     2        POPE     DC1      DRUD     -2.22370      0.400000           0   0.00000       0.00000    
       208 MEMB     2        POPE     HA       HDA2A    0.260000E-01   1.00800           0   0.00000       0.00000    
       209 MEMB     2        POPE     HB       HDA2A    0.260000E-01   1.00800           0   0.00000       0.00000    
       210 MEMB     2        POPE     C2       CD31C     2.52830       11.6110           0  -1.79700      0.410000    
       211 MEMB     2        POPE     DC2      DRUD     -2.32630      0.400000           0   0.00000       0.00000    
       212 MEMB     2        POPE     HS       HDA1A    0.116000       1.00800           0   0.00000       0.00000    
       213 MEMB     2        POPE     O21      OD30CL    1.48470       15.5994           0 -0.732000      0.601000    
       214 MEMB     2        POPE     DO21     DRUD     -1.48470      0.400000           0   0.00000       0.00000    
       215 MEMB     2        POPE     C21      CD2O3B    2.72820       11.6110           0  -1.37000       1.74700    
       216 MEMB     2        POPE     DC21     DRUD     -2.03120      0.400000           0   0.00000       0.00000    
       217 MEMB     2        POPE     O22      OD2C3B    1.64990       15.5994           0 -0.904000      0.565000    
       218 MEMB     2        POPE     DO22     DRUD     -1.64990      0.400000           0   0.00000       0.00000    
       219 MEMB     2        POPE     C22      CD32C     2.24380       11.6110           0  -1.99300      0.410000    
       220 MEMB     2        POPE     DC22     DRUD     -2.44980      0.400000           0   0.00000       0.00000    
       221 MEMB     2        POPE     H2R      HDA2A    0.690000E-01   1.00800           0   0.00000       0.00000    
       222 MEMB     2        POPE     H2S      HDA2A    0.690000E-01   1.00800           0   0.00000       0.00000    
       223 MEMB     2        POPE     LP1A     LPD     -0.349000       0.00000          -1   0.00000       0.00000    
       224 MEMB     2        POPE     LP1B     LPD     -0.258000       0.00000          -1   0.00000       0.00000    
       225 MEMB     2        POPE     LPMA     LPD     -0.170000       0.00000          -1   0.00000       0.00000    
       226 MEMB     2        POPE     LPMB     LPD     -0.170000       0.00000          -1   0.00000       0.00000    
       227 MEMB     2        POPE     C3       CD32C     2.41230       11.6110           0  -1.79700      0.410000    
       228 MEMB     2        POPE     DC3      DRUD     -2.32630      0.400000           0   0.00000       0.00000    
       229 MEMB     2        POPE     HX       HDA2A    0.116000       1.00800           0   0.00000       0.00000    
       230 MEMB     2        POPE     HY       HDA2A    0.116000       1.00800           0   0.00000       0.00000    
       231 MEMB     2        POPE     O31      OD30CL    1.48470       15.5994           0 -0.732000      0.601000    
       232 MEMB     2        POPE     DO31     DRUD     -1.48470      0.400000           0   0.00000       0.00000    
       233 MEMB     2        POPE     C31      CD2O3B    2.72820       11.6110           0  -1.37000       1.74700    
       234 MEMB     2        POPE     DC31     DRUD     -2.03120      0.400000           0   0.00000       0.00000    
       235 MEMB     2        POPE     O32      OD2C3B    1.64990       15.5994           0 -0.904000      0.565000    
       236 MEMB     2        POPE     DO32     DRUD     -1.64990      0.400000           0   0.00000       0.00000    
       237 MEMB     2        POPE     C32      CD32C     2.24380       11.6110           0  -1.99300      0.410000    
       238 MEMB     2        POPE     DC32     DRUD     -2.44980      0.400000           0   0.00000       0.00000    
       239 MEMB     2        POPE     H2X      HDA2A    0.690000E-01   1.00800           0   0.00000       0.00000    
       240 MEMB     2        POPE     H2Y      HDA2A    0.690000E-01   1.00800           0   0.00000       0.00000    
       241 MEMB     2        POPE     LP1C     LPD     -0.349000       0.00000          -1   0.00000       0.00000    
       242 MEMB     2        POPE     LP1D     LPD     -0.258000       0.00000          -1   0.00000       0.00000    
       243 MEMB     2        POPE     LPMC     LPD     -0.170000       0.00000          -1   0.00000       0.00000    
       244 MEMB     2        POPE     LPMD     LPD     -0.170000       0.00000          -1   0.00000       0.00000    
       245 MEMB     2        POPE     C23      CD32A     2.07980       11.6110           0  -1.66000       1.30000    
       246 MEMB     2        POPE     DC23     DRUD     -2.23580      0.400000           0   0.00000       0.00000    
       247 MEMB     2        POPE     H3R      HDA2A    0.780000E-01   1.00800           0   0.00000       0.00000    
       248 MEMB     2        POPE     H3S      HDA2A    0.780000E-01   1.00800           0   0.00000       0.00000    
       249 MEMB     2        POPE     C24      CD32A     2.07980       11.6110           0  -1.66000       1.30000    
       250 MEMB     2        POPE     DC24     DRUD     -2.23580      0.400000           0   0.00000       0.00000    
       251 MEMB     2        POPE     H4R      HDA2A    0.780000E-01   1.00800           0   0.00000       0.00000    
       252 MEMB     2        POPE     H4S      HDA2A    0.780000E-01   1.00800           0   0.00000       0.00000    
       253 MEMB     2        POPE     C25      CD32A     2.07980       11.6110           0  -1.66000       1.30000    
       254 MEMB     2        POPE     DC25     DRUD     -2.23580      0.400000           0   0.00000       0.00000    
       255 MEMB     2        POPE     H5R      HDA2A    0.780000E-01   1.00800           0   0.00000       0.00000    
       256 MEMB     2        POPE     H5S      HDA2A    0.780000E-01   1.00800           0   0.00000       0.00000    
       257 MEMB     2        POPE     C26      CD32A     2.07980       11.6110           0  -1.66000       1.30000    
       258 MEMB     2        POPE     DC26     DRUD     -2.23580      0.400000           0   0.00000       0.00000    
       259 MEMB     2        POPE     H6R      HDA2A    0.780000E-01   1.00800           0   0.00000       0.00000    
       260 MEMB     2        POPE     H6S      HDA2A    0.780000E-01   1.00800           0   0.00000       0.00000    
       261 MEMB     2        POPE     C27      CD32A     2.07980       11.6110           0  -1.66000       1.30000    
       262 MEMB     2        POPE     DC27     DRUD     -2.23580      0.400000           0   0.00000       0.00000    
       263 MEMB     2        POPE     H7R      HDA2A    0.780000E-01   1.00800           0   0.00000       0.00000    
       264 MEMB     2        POPE     H7S      HDA2A    0.780000E-01   1.00800           0   0.00000       0.00000    
       265 MEMB     2        POPE     C28      CD32A     2.07980       11.6110           0  -1.66000       1.30000    
       266 MEMB     2        POPE     DC28     DRUD     -2.23580      0.400000           0   0.00000       0.00000    
       267 MEMB     2        POPE     H8R      HDA2A    0.780000E-01   1.00800           0   0.00000       0.00000    
       268 MEMB     2        POPE     H8S      HDA2A    0.780000E-01   1.00800           0   0.00000       0.00000    
       269 MEMB     2        POPE     C29      CD2C1A    2.33700       11.6110           0  -1.99000      0.750000    
       270 MEMB     2        POPE     DC29     DRUD     -2.44800      0.400000           0   0.00000       0.00000    
       271 MEMB     2        POPE     H91      HD2C1A   0.111000       1.00800           0   0.00000       0.00000    
       272 MEMB     2        POPE     C210     CD2C1A    2.33700       11.6110           0  -1.99000      0.750000    
       273 MEMB     2        POPE     DC210    DRUD     -2.44800      0.400000           0   0.00000       0.00000    
       274 MEMB     2        POPE     H101     HD2C1A   0.111000       1.00800           0   0.00000       0.00000    
       275 MEMB     2        POPE     C211     CD32A     2.07980       11.6110           0  -1.66000       1.30000    
       276 MEMB     2        POPE     DC211    DRUD     -2.23580      0.400000           0   0.00000       0.00000    
       277 MEMB     2        POPE     H11R     HDA2A    0.780000E-01   1.00800           0   0.00000       0.00000    
       278 MEMB     2        POPE     H11S     HDA2A    0.780000E-01   1.00800           0   0.00000       0.00000    
       279 MEMB     2        POPE     C212     CD32A     2.07980       11.6110           0  -1.66000       1.30000    
       280 MEMB     2        POPE     DC212    DRUD     -2.23580      0.400000           0   0.00000       0.00000    
       281 MEMB     2        POPE     H12R     HDA2A    0.780000E-01   1.00800           0   0.00000       0.00000    
       282 MEMB     2        POPE     H12S     HDA2A    0.780000E-01   1.00800           0   0.00000       0.00000    
       283 MEMB     2        POPE     C213     CD32A     2.07980       11.6110           0  -1.66000       1.30000    
       284 MEMB     2        POPE     DC213    DRUD     -2.23580      0.400000           0   0.00000       0.00000    
       285 MEMB     2        POPE     H13R     HDA2A    0.780000E-01   1.00800           0   0.00000       0.00000    
       286 MEMB     2        POPE     H13S     HDA2A    0.780000E-01   1.00800           0   0.00000       0.00000    
       287 MEMB     2        POPE     C214     CD32A     2.07980       11.6110           0  -1.66000       1.30000    
       288 MEMB     2        POPE     DC214    DRUD     -2.23580      0.400000           0   0.00000       0.00000    
       289 MEMB     2        POPE     H14R     HDA2A    0.780000E-01   1.00800           0   0.00000       0.00000    
       290 MEMB     2        POPE     H14S     HDA2A    0.780000E-01   1.00800           0   0.00000       0.00000    
       291 MEMB     2        POPE     C215     CD32A     2.07980       11.6110           0  -1.66000       1.30000    
       292 MEMB     2        POPE     DC215    DRUD     -2.23580      0.400000           0   0.00000       0.00000    
       293 MEMB     2        POPE     H15R     HDA2A    0.780000E-01   1.00800           0   0.00000       0.00000    
       294 MEMB     2        POPE     H15S     HDA2A    0.780000E-01   1.00800           0   0.00000       0.00000    
       295 MEMB     2        POPE     C216     CD32A     2.07980       11.6110           0  -1.66000       1.30000    
       296 MEMB     2        POPE     DC216    DRUD     -2.23580      0.400000           0   0.00000       0.00000    
       297 MEMB     2        POPE     H16R     HDA2A    0.780000E-01   1.00800           0   0.00000       0.00000    
       298 MEMB     2        POPE     H16S     HDA2A    0.780000E-01   1.00800           0   0.00000       0.00000    
       299 MEMB     2        POPE     C217     CD32A     2.07980       11.6110           0  -1.66000       1.30000    
       300 MEMB     2        POPE     DC217    DRUD     -2.23580      0.400000           0   0.00000       0.00000    
       301 MEMB     2        POPE     H17R     HDA2A    0.780000E-01   1.00800           0   0.00000       0.00000    
       302 MEMB     2        POPE     H17S     HDA2A    0.780000E-01   1.00800           0   0.00000       0.00000    
       303 MEMB     2        POPE     C218     CD33A     2.30820       11.6110           0  -2.05100       1.30000    
       304 MEMB     2        POPE     DC218    DRUD     -2.48520      0.400000           0   0.00000       0.00000    
       305 MEMB     2        POPE     H18R     HDA3A    0.590000E-01   1.00800           0   0.00000       0.00000    
       306 MEMB     2        POPE     H18S     HDA3A    0.590000E-01   1.00800           0   0.00000       0.00000    
       307 MEMB     2        POPE     H18T     HDA3A    0.590000E-01   1.00800           0   0.00000       0.00000    
       308 MEMB     2        POPE     C33      CD32A     2.07980       11.6110           0  -1.66000       1.30000    
       309 MEMB     2        POPE     DC33     DRUD     -2.23580      0.400000           0   0.00000       0.00000    
       310 MEMB     2        POPE     H3X      HDA2A    0.780000E-01   1.00800           0   0.00000       0.00000    
       311 MEMB     2        POPE     H3Y      HDA2A    0.780000E-01   1.00800           0   0.00000       0.00000    
       312 MEMB     2        POPE     C34      CD32A     2.07980       11.6110           0  -1.66000       1.30000    
       313 MEMB     2        POPE     DC34     DRUD     -2.23580      0.400000           0   0.00000       0.00000    
       314 MEMB     2        POPE     H4X      HDA2A    0.780000E-01   1.00800           0   0.00000       0.00000    
       315 MEMB     2        POPE     H4Y      HDA2A    0.780000E-01   1.00800           0   0.00000       0.00000    
       316 MEMB     2        POPE     C35      CD32A     2.07980       11.6110           0  -1.66000       1.30000    
       317 MEMB     2        POPE     DC35     DRUD     -2.23580      0.400000           0   0.00000       0.00000    
       318 MEMB     2        POPE     H5X      HDA2A    0.780000E-01   1.00800           0   0.00000       0.00000    
       319 MEMB     2        POPE     H5Y      HDA2A    0.780000E-01   1.00800           0   0.00000       0.00000    
       320 MEMB     2        POPE     C36      CD32A     2.07980       11.6110           0  -1.66000       1.30000    
       321 MEMB     2        POPE     DC36     DRUD     -2.23580      0.400000           0   0.00000       0.00000    
       322 MEMB     2        POPE     H6X      HDA2A    0.780000E-01   1.00800           0   0.00000       0.00000    
       323 MEMB     2        POPE     H6Y      HDA2A    0.780000E-01   1.00800           0   0.00000       0.00000    
       324 MEMB     2        POPE     C37      CD32A     2.07980       11.6110           0  -1.66000       1.30000    
       325 MEMB     2        POPE     DC37     DRUD     -2.23580      0.400000           0   0.00000       0.00000    
       326 MEMB     2        POPE     H7X      HDA2A    0.780000E-01   1.00800           0   0.00000       0.00000    
       327 MEMB     2        POPE     H7Y      HDA2A    0.780000E-01   1.00800           0   0.00000       0.00000    
       328 MEMB     2        POPE     C38      CD32A     2.07980       11.6110           0  -1.66000       1.30000    
       329 MEMB     2        POPE     DC38     DRUD     -2.23580      0.400000           0   0.00000       0.00000    
       330 MEMB     2        POPE     H8X      HDA2A    0.780000E-01   1.00800           0   0.00000       0.00000    
       331 MEMB     2        POPE     H8Y      HDA2A    0.780000E-01   1.00800           0   0.00000       0.00000    
       332 MEMB     2        POPE     C39      CD32A     2.07980       11.6110           0  -1.66000       1.30000    
       333 MEMB     2        POPE     DC39     DRUD     -2.23580      0.400000           0   0.00000       0.00000    
       334 MEMB     2        POPE     H9X      HDA2A    0.780000E-01   1.00800           0   0.00000       0.00000    
       335 MEMB     2        POPE     H9Y      HDA2A    0.780000E-01   1.00800           0   0.00000       0.00000    
       336 MEMB     2        POPE     C310     CD32A     2.07980       11.6110           0  -1.66000       1.30000    
       337 MEMB     2        POPE     DC310    DRUD     -2.23580      0.400000           0   0.00000       0.00000    
       338 MEMB     2        POPE     H10X     HDA2A    0.780000E-01   1.00800           0   0.00000       0.00000    
       339 MEMB     2        POPE     H10Y     HDA2A    0.780000E-01   1.00800           0   0.00000       0.00000    
       340 MEMB     2        POPE     C311     CD32A     2.07980       11.6110           0  -1.66000       1.30000    
       341 MEMB     2        POPE     DC311    DRUD     -2.23580      0.400000           0   0.00000       0.00000    
       342 MEMB     2        POPE     H11X     HDA2A    0.780000E-01   1.00800           0   0.00000       0.00000    
       343 MEMB     2        POPE     H11Y     HDA2A    0.780000E-01   1.00800           0   0.00000       0.00000    
       344 MEMB     2        POPE     C312     CD32A     2.07980       11.6110           0  -1.66000       1.30000    
       345 MEMB     2        POPE     DC312    DRUD     -2.23580      0.400000           0   0.00000       0.00000    
       346 MEMB     2        POPE     H12X     HDA2A    0.780000E-01   1.00800           0   0.00000       0.00000    
       347 MEMB     2        POPE     H12Y     HDA2A    0.780000E-01   1.00800           0   0.00000       0.00000    
       348 MEMB     2        POPE     C313     CD32A     2.07980       11.6110           0  -1.66000       1.30000    
       349 MEMB     2        POPE     DC313    DRUD     -2.23580      0.400000           0   0.00000       0.00000    
       350 MEMB     2        POPE     H13X     HDA2A    0.780000E-01   1.00800           0   0.00000       0.00000    
       351 MEMB     2        POPE     H13Y     HDA2A    0.780000E-01   1.00800           0   0.00000       0.00000    
       352 MEMB     2        POPE     C314     CD32A     2.07980       11.6110           0  -1.66000       1.30000    
       353 MEMB     2        POPE     DC314    DRUD     -2.23580      0.400000           0   0.00000       0.00000    
       354 MEMB     2        POPE     H14X     HDA2A    0.780000E-01   1.00800           0   0.00000       0.00000    
       355 MEMB     2        POPE     H14Y     HDA2A    0.780000E-01   1.00800           0   0.00000       0.00000    
       356 MEMB     2        POPE     C315     CD32A     2.07980       11.6110           0  -1.66000       1.30000    
       357 MEMB     2        POPE     DC315    DRUD     -2.23580      0.400000           0   0.00000       0.00000    
       358 MEMB     2        POPE     H15X     HDA2A    0.780000E-01   1.00800           0   0.00000       0.00000    
       359 MEMB     2        POPE     H15Y     HDA2A    0.780000E-01   1.00800           0   0.00000       0.00000    
       360 MEMB     2        POPE     C316     CD33A     2.30820       11.6110           0  -2.05100       1.30000    
       361 MEMB     2        POPE     DC316    DRUD     -2.48520      0.400000           0   0.00000       0.00000    
       362 MEMB     2        POPE     H16X     HDA3A    0.590000E-01   1.00800           0   0.00000       0.00000    
       363 MEMB     2        POPE     H16Y     HDA3A    0.590000E-01   1.00800           0   0.00000       0.00000    
       364 MEMB     2        POPE     H16Z     HDA3A    0.590000E-01   1.00800           0   0.00000       0.00000    
       365 MEMB     3        POPE     N        ND3P3A    1.62810       13.6070           0  -1.29800      0.895000    
       366 MEMB     3        POPE     DN       DRUD     -1.97710      0.400000           0   0.00000       0.00000    
       367 MEMB     3        POPE     HN1      HDP1B    0.340000       1.00800           0   0.00000       0.00000    
       368 MEMB     3        POPE     HN2      HDP1B    0.340000       1.00800           0   0.00000       0.00000    
       369 MEMB     3        POPE     HN3      HDP1B    0.340000       1.00800           0   0.00000       0.00000    
       370 MEMB     3        POPE     C12      CD32A     2.27610       11.6110           0  -1.65600      0.895000    
       371 MEMB     3        POPE     DC12     DRUD     -2.23310      0.400000           0   0.00000       0.00000    
       372 MEMB     3        POPE     H12A     HDA2A    0.143000       1.00800           0   0.00000       0.00000    
       373 MEMB     3        POPE     H12B     HDA2A    0.143000       1.00800           0   0.00000       0.00000    
       374 MEMB     3        POPE     C11      CD32A     2.42220       11.6110           0  -1.64200      0.862000    
       375 MEMB     3        POPE     DC11     DRUD     -2.22370      0.400000           0   0.00000       0.00000    
       376 MEMB     3        POPE     H11A     HDA2A    0.260000E-01   1.00800           0   0.00000       0.00000    
       377 MEMB     3        POPE     H11B     HDA2A    0.260000E-01   1.00800           0   0.00000       0.00000    
       378 MEMB     3        POPE     P        PD1A      2.90360       30.5740           0 -0.974000       2.09800    
       379 MEMB     3        POPE     DP       DRUD     -1.71260      0.400000           0   0.00000       0.00000    
       380 MEMB     3        POPE     O13      OD2C2B   0.798400       15.5994           0 -0.931000       1.08300    
       381 MEMB     3        POPE     DO13     DRUD     -1.67440      0.400000           0   0.00000       0.00000    
       382 MEMB     3        POPE     O14      OD2C2B   0.798400       15.5994           0 -0.931000       1.08300    
       383 MEMB     3        POPE     DO14     DRUD     -1.67440      0.400000           0   0.00000       0.00000    
       384 MEMB     3        POPE     O11      OD30B     1.17720       15.5994           0 -0.901000      0.181000    
       385 MEMB     3        POPE     DO11     DRUD     -1.64720      0.400000           0   0.00000       0.00000    
       386 MEMB     3        POPE     O12      OD30B     1.17720       15.5994           0 -0.901000      0.181000    
       387 MEMB     3        POPE     DO12     DRUD     -1.64720      0.400000           0   0.00000       0.00000    
       388 MEMB     3        POPE     C1       CD32A     2.42220       11.6110           0  -1.64200      0.862000    
       389 MEMB     3        POPE     DC1      DRUD     -2.22370      0.400000           0   0.00000       0.00000    
       390 MEMB     3        POPE     HA       HDA2A    0.260000E-01   1.00800           0   0.00000       0.00000    
       391 MEMB     3        POPE     HB       HDA2A    0.260000E-01   1.00800           0   0.00000       0.00000    
       392 MEMB     3        POPE     C2       CD31C     2.52830       11.6110           0  -1.79700      0.410000    
       393 MEMB     3        POPE     DC2      DRUD     -2.32630      0.400000           0   0.00000       0.00000    
       394 MEMB     3        POPE     HS       HDA1A    0.116000       1.00800           0   0.00000       0.00000    
       395 MEMB     3        POPE     O21      OD30CL    1.48470       15.5994           0 -0.732000      0.601000    
       396 MEMB     3        POPE     DO21     DRUD     -1.48470      0.400000           0   0.00000       0.00000    
       397 MEMB     3        POPE     C21      CD2O3B    2.72820       11.6110           0  -1.37000       1.74700    
       398 MEMB     3        POPE     DC21     DRUD     -2.03120      0.400000           0   0.00000       0.00000    
       399 MEMB     3        POPE     O22      OD2C3B    1.64990       15.5994           0 -0.904000      0.565000    
       400 MEMB     3        POPE     DO22     DRUD     -1.64990      0.400000           0   0.00000       0.00000    
       401 MEMB     3        POPE     C22      CD32C     2.24380       11.6110           0  -1.99300      0.410000    
       402 MEMB     3        POPE     DC22     DRUD     -2.44980      0.400000           0   0.00000       0.00000    
       403 MEMB     3        POPE     H2R      HDA2A    0.690000E-01   1.00800           0   0.00000       0.00000    
       404 MEMB     3        POPE     H2S      HDA2A    0.690000E-01   1.00800           0   0.00000       0.00000    
       405 MEMB     3        POPE     LP1A     LPD     -0.349000       0.00000          -1   0.00000       0.00000    
       406 MEMB     3        POPE     LP1B     LPD     -0.258000       0.00000          -1   0.00000       0.00000    
       407 MEMB     3        POPE     LPMA     LPD     -0.170000       0.00000          -1   0.00000       0.00000    
       408 MEMB     3        POPE     LPMB     LPD     -0.170000       0.00000          -1   0.00000       0.00000    
       409 MEMB     3        POPE     C3       CD32C     2.41230       11.6110           0  -1.79700      0.410000    
       410 MEMB     3        POPE     DC3      DRUD     -2.32630      0.400000           0   0.00000       0.00000    
       411 MEMB     3        POPE     HX       HDA2A    0.116000       1.00800           0   0.00000       0.00000    
       412 MEMB     3        POPE     HY       HDA2A    0.116000       1.00800           0   0.00000       0.00000    
       413 MEMB     3        POPE     O31      OD30CL    1.48470       15.5994           0 -0.732000      0.601000    
       414 MEMB     3        POPE     DO31     DRUD     -1.48470      0.400000           0   0.00000       0.00000    
       415 MEMB     3        POPE     C31      CD2O3B    2.72820       11.6110           0  -1.37000       1.74700    
       416 MEMB     3        POPE     DC31     DRUD     -2.03120      0.400000           0   0.00000       0.00000    
       417 MEMB     3        POPE     O32      OD2C3B    1.64990       15.5994           0 -0.904000      0.565000    
       418 MEMB     3        POPE     DO32     DRUD     -1.64990      0.400000           0   0.00000       0.00000    
       419 MEMB     3        POPE     C32      CD32C     2.24380       11.6110           0  -1.99300      0.410000    
       420 MEMB     3        POPE     DC32     DRUD     -2.44980      0.400000           0   0.00000       0.00000    
       421 MEMB     3        POPE     H2X      HDA2A    0.690000E-01   1.00800           0   0.00000       0.00000    
       422 MEMB     3        POPE     H2Y      HDA2A    0.690000E-01   1.00800           0   0.00000       0.00000    
       423 MEMB     3        POPE     LP1C     LPD     -0.349000       0.00000          -1   0.00000       0.00000    
       424 MEMB     3        POPE     LP1D     LPD     -0.258000       0.00000          -1   0.00000       0.00000    
       425 MEMB     3        POPE     LPMC     LPD     -0.170000       0.00000          -1   0.00000       0.00000    
       426 MEMB     3        POPE     LPMD     LPD     -0.170000       0.00000          -1   0.00000       0.00000    
       427 MEMB     3        POPE     C23      CD32A     2.07980       11.6110           0  -1.66000       1.30000    
       428 MEMB     3        POPE     DC23     DRUD     -2.23580      0.400000           0   0.00000       0.00000    
       429 MEMB     3        POPE     H3R      HDA2A    0.780000E-01   1.00800           0   0.00000       0.00000    
       430 MEMB     3        POPE     H3S      HDA2A    0.780000E-01   1.00800           0   0.00000       0.00000    
       431 MEMB     3        POPE     C24      CD32A     2.07980       11.6110           0  -1.66000       1.30000    
       432 MEMB     3        POPE     DC24     DRUD     -2.23580      0.400000           0   0.00000       0.00000    
       433 MEMB     3        POPE     H4R      HDA2A    0.780000E-01   1.00800           0   0.00000       0.00000    
       434 MEMB     3        POPE     H4S      HDA2A    0.780000E-01   1.00800           0   0.00000       0.00000    
       435 MEMB     3        POPE     C25      CD32A     2.07980       11.6110           0  -1.66000       1.30000    
       436 MEMB     3        POPE     DC25     DRUD     -2.23580      0.400000           0   0.00000       0.00000    
       437 MEMB     3        POPE     H5R      HDA2A    0.780000E-01   1.00800           0   0.00000       0.00000    
       438 MEMB     3        POPE     H5S      HDA2A    0.780000E-01   1.00800           0   0.00000       0.00000    
       439 MEMB     3        POPE     C26      CD32A     2.07980       11.6110           0  -1.66000       1.30000    
       440 MEMB     3        POPE     DC26     DRUD     -2.23580      0.400000           0   0.00000       0.00000    
       441 MEMB     3        POPE     H6R      HDA2A    0.780000E-01   1.00800           0   0.00000       0.00000    
       442 MEMB     3        POPE     H6S      HDA2A    0.780000E-01   1.00800           0   0.00000       0.00000    
       443 MEMB     3        POPE     C27      CD32A     2.07980       11.6110           0  -1.66000       1.30000    
       444 MEMB     3        POPE     DC27     DRUD     -2.23580      0.400000           0   0.00000       0.00000    
       445 MEMB     3        POPE     H7R      HDA2A    0.780000E-01   1.00800           0   0.00000       0.00000    
       446 MEMB     3        POPE     H7S      HDA2A    0.780000E-01   1.00800           0   0.00000       0.00000    
       447 MEMB     3        POPE     C28      CD32A     2.07980       11.6110           0  -1.66000       1.30000    
       448 MEMB     3        POPE     DC28     DRUD     -2.23580      0.400000           0   0.00000       0.00000    
       449 MEMB     3        POPE     H8R      HDA2A    0.780000E-01   1.00800           0   0.00000       0.00000    
       450 MEMB     3        POPE     H8S      HDA2A    0.780000E-01   1.00800           0   0.00000       0.00000    
       451 MEMB     3        POPE     C29      CD2C1A    2.33700       11.6110           0  -1.99000      0.750000    
       452 MEMB     3        POPE     DC29     DRUD     -2.44800      0.400000           0   0.00000       0.00000    
       453 MEMB     3        POPE     H91      HD2C1A   0.111000       1.00800           0   0.00000       0.00000    
       454 MEMB     3        POPE     C210     CD2C1A    2.33700       11.6110           0  -1.99000      0.750000    
       455 MEMB     3        POPE     DC210    DRUD     -2.44800      0.400000           0   0.00000       0.00000    
       456 MEMB     3        POPE     H101     HD2C1A   0.111000       1.00800           0   0.00000       0.00000    
       457 MEMB     3        POPE     C211     CD32A     2.07980       11.6110           0  -1.66000       1.30000    
       458 MEMB     3        POPE     DC211    DRUD     -2.23580      0.400000           0   0.00000       0.00000    
       459 MEMB     3        POPE     H11R     HDA2A    0.780000E-01   1.00800           0   0.00000       0.00000    
       460 MEMB     3        POPE     H11S     HDA2A    0.780000E-01   1.00800           0   0.00000       0.00000    
       461 MEMB     3        POPE     C212     CD32A     2.07980       11.6110           0  -1.66000       1.30000    
       462 MEMB     3        POPE     DC212    DRUD     -2.23580      0.400000           0   0.00000       0.00000    
       463 MEMB     3        POPE     H12R     HDA2A    0.780000E-01   1.00800           0   0.00000       0.00000    
       464 MEMB     3        POPE     H12S     HDA2A    0.780000E-01   1.00800           0   0.00000       0.00000    
       465 MEMB     3        POPE     C213     CD32A     2.07980       11.6110           0  -1.66000       1.30000    
       466 MEMB     3        POPE     DC213    DRUD     -2.23580      0.400000           0   0.00000       0.00000    
       467 MEMB     3        POPE     H13R     HDA2A    0.780000E-01   1.00800           0   0.00000       0.00000    
       468 MEMB     3        POPE     H13S     HDA2A    0.780000E-01   1.00800           0   0.00000       0.00000    
       469 MEMB     3        POPE     C214     CD32A     2.07980       11.6110           0  -1.66000       1.30000    
       470 MEMB     3        POPE     DC214    DRUD     -2.23580      0.400000           0   0.00000       0.00000    
       471 MEMB     3        POPE     H14R     HDA2A    0.780000E-01   1.00800           0   0.00000       0.00000    
       472 MEMB     3        POPE     H14S     HDA2A    0.780000E-01   1.00800           0   0.00000       0.00000    
       473 MEMB     3        POPE     C215     CD32A     2.07980       11.6110           0  -1.66000       1.30000    
       474 MEMB     3        POPE     DC215    DRUD     -2.23580      0.400000           0   0.00000       0.00000    
       475 MEMB     3        POPE     H15R     HDA2A    0.780000E-01   1.00800           0   0.00000       0.00000    
       476 MEMB     3        POPE     H15S     HDA2A    0.780000E-01   1.00800           0   0.00000       0.00000    
       477 MEMB     3        POPE     C216     CD32A     2.07980       11.6110           0  -1.66000       1.30000    
       478 MEMB     3        POPE     DC216    DRUD     -2.23580      0.400000           0   0.00000       0.00000    
       479 MEMB     3        POPE     H16R     HDA2A    0.780000E-01   1.00800           0   0.00000       0.00000    
       480 MEMB     3        POPE     H16S     HDA2A    0.780000E-01   1.00800           0   0.00000       0.00000    
       481 MEMB     3        POPE     C217     CD32A     2.07980       11.6110           0  -1.66000       1.30000    
       482 MEMB     3        POPE     DC217    DRUD     -2.23580      0.400000           0   0.00000       0.00000    
       483 MEMB     3        POPE     H17R     HDA2A    0.780000E-01   1.00800           0   0.00000       0.00000    
       484 MEMB     3        POPE     H17S     HDA2A    0.780000E-01   1.00800           0   0.00000       0.00000    
       485 MEMB     3        POPE     C218     CD33A     2.30820       11.6110           0  -2.05100       1.30000    
       486 MEMB     3        POPE     DC218    DRUD     -2.48520      0.400000           0   0.00000       0.00000    
       487 MEMB     3        POPE     H18R     HDA3A    0.590000E-01   1.00800           0   0.00000       0.00000    
       488 MEMB     3        POPE     H18S     HDA3A    0.590000E-01   1.00800           0   0.00000       0.00000    
       489 MEMB     3        POPE     H18T     HDA3A    0.590000E-01   1.00800           0   0.00000       0.00000    
       490 MEMB     3        POPE     C33      CD32A     2.07980       11.6110           0  -1.66000       1.30000    
       491 MEMB     3        POPE     DC33     DRUD     -2.23580      0.400000           0   0.00000       0.00000    
       492 MEMB     3        POPE     H3X      HDA2A    0.780000E-01   1.00800           0   0.00000       0.00000    
       493 MEMB     3        POPE     H3Y      HDA2A    0.780000E-01   1.00800           0   0.00000       0.00000    
       494 MEMB     3        POPE     C34      CD32A     2.07980       11.6110           0  -1.66000       1.30000    
       495 MEMB     3        POPE     DC34     DRUD     -2.23580      0.400000           0   0.00000       0.00000    
       496 MEMB     3        POPE     H4X      HDA2A    0.780000E-01   1.00800           0   0.00000       0.00000    
       497 MEMB     3        POPE     H4Y      HDA2A    0.780000E-01   1.00800           0   0.00000       0.00000    
       498 MEMB     3        POPE     C35      CD32A     2.07980       11.6110           0  -1.66000       1.30000    
       499 MEMB     3        POPE     DC35     DRUD     -2.23580      0.400000           0   0.00000       0.00000    
       500 MEMB     3        POPE     H5X      HDA2A    0.780000E-01   1.00800           0   0.00000       0.00000    
       501 MEMB     3        POPE     H5Y      HDA2A    0.780000E-01   1.00800           0   0.00000       0.00000    
       502 MEMB     3        POPE     C36      CD32A     2.07980       11.6110           0  -1.66000       1.30000    
       503 MEMB     3        POPE     DC36     DRUD     -2.23580      0.400000           0   0.00000       0.00000    
       504 MEMB     3        POPE     H6X      HDA2A    0.780000E-01   1.00800           0   0.00000       0.00000    
       505 MEMB     3        POPE     H6Y      HDA2A    0.780000E-01   1.00800           0   0.00000       0.00000    
       506 MEMB     3        POPE     C37      CD32A     2.07980       11.6110           0  -1.66000       1.30000    
       507 MEMB     3        POPE     DC37     DRUD     -2.23580      0.400000           0   0.00000       0.00000    
       508 MEMB     3        POPE     H7X      HDA2A    0.780000E-01   1.00800           0   0.00000       0.00000    
       509 MEMB     3        POPE     H7Y      HDA2A    0.780000E-01   1.00800           0   0.00000       0.00000    
       510 MEMB     3        POPE     C38      CD32A     2.07980       11.6110           0  -1.66000       1.30000    
       511 MEMB     3        POPE     DC38     DRUD     -2.23580      0.400000           0   0.00000       0.00000    
       512 MEMB     3        POPE     H8X      HDA2A    0.780000E-01   1.00800           0   0.00000       0.00000    
       513 MEMB     3        POPE     H8Y      HDA2A    0.780000E-01   1.00800           0   0.00000       0.00000    
       514 MEMB     3        POPE     C39      CD32A     2.07980       11.6110           0  -1.66000       1.30000    
       515 MEMB     3        POPE     DC39     DRUD     -2.23580      0.400000           0   0.00000       0.00000    
       516 MEMB     3        POPE     H9X      HDA2A    0.780000E-01   1.00800           0   0.00000       0.00000    
       517 MEMB     3        POPE     H9Y      HDA2A    0.780000E-01   1.00800           0   0.00000       0.00000    
       518 MEMB     3        POPE     C310     CD32A     2.07980       11.6110           0  -1.66000       1.30000    
       519 MEMB     3        POPE     DC310    DRUD     -2.23580      0.400000           0   0.00000       0.00000    
       520 MEMB     3        POPE     H10X     HDA2A    0.780000E-01   1.00800           0   0.00000       0.00000    
       521 MEMB     3        POPE     H10Y     HDA2A    0.780000E-01   1.00800           0   0.00000       0.00000    
       522 MEMB     3        POPE     C311     CD32A     2.07980       11.6110           0  -1.66000       1.30000    
       523 MEMB     3        POPE     DC311    DRUD     -2.23580      0.400000           0   0.00000       0.00000    
       524 MEMB     3        POPE     H11X     HDA2A    0.780000E-01   1.00800           0   0.00000       0.00000    
       525 MEMB     3        POPE     H11Y     HDA2A    0.780000E-01   1.00800           0   0.00000       0.00000    
       526 MEMB     3        POPE     C312     CD32A     2.07980       11.6110           0  -1.66000       1.30000    
       527 MEMB     3        POPE     DC312    DRUD     -2.23580      0.400000           0   0.00000       0.00000    
       528 MEMB     3        POPE     H12X     HDA2A    0.780000E-01   1.00800           0   0.00000       0.00000    
       529 MEMB     3        POPE     H12Y     HDA2A    0.780000E-01   1.00800           0   0.00000       0.00000    
       530 MEMB     3        POPE     C313     CD32A     2.07980       11.6110           0  -1.66000       1.30000    
       531 MEMB     3        POPE     DC313    DRUD     -2.23580      0.400000           0   0.00000       0.00000    
       532 MEMB     3        POPE     H13X     HDA2A    0.780000E-01   1.00800           0   0.00000       0.00000    
       533 MEMB     3        POPE     H13Y     HDA2A    0.780000E-01   1.00800           0   0.00000       0.00000    
       534 MEMB     3        POPE     C314     CD32A     2.07980       11.6110           0  -1.66000       1.30000    
       535 MEMB     3        POPE     DC314    DRUD     -2.23580      0.400000           0   0.00000       0.00000    
       536 MEMB     3        POPE     H14X     HDA2A    0.780000E-01   1.00800           0   0.00000       0.00000    
       537 MEMB     3        POPE     H14Y     HDA2A    0.780000E-01   1.00800           0   0.00000       0.00000    
       538 MEMB     3        POPE     C315     CD32A     2.07980       11.6110           0  -1.66000       1.30000    
       539 MEMB     3        POPE     DC315    DRUD     -2.23580      0.400000           0   0.00000       0.00000    
       540 MEMB     3        POPE     H15X     HDA2A    0.780000E-01   1.00800           0   0.00000       0.00000    
       541 MEMB     3        POPE     H15Y     HDA2A    0.780000E-01   1.00800           0   0.00000       0.00000    
       542 MEMB     3        POPE     C316     CD33A     2.30820       11.6110           0  -2.05100       1.30000    
       543 MEMB     3        POPE     DC316    DRUD     -2.48520      0.400000           0   0.00000       0.00000    
       544 MEMB     3        POPE     H16X     HDA3A    0.590000E-01   1.00800           0   0.00000       0.00000    
       545 MEMB     3        POPE     H16Y     HDA3A    0.590000E-01   1.00800           0   0.00000       0.00000    
       546 MEMB     3        POPE     H16Z     HDA3A    0.590000E-01   1.00800           0   0.00000       0.00000    
       547 MEMB     4        POPE     N        ND3P3A    1.62810       13.6070           0  -1.29800      0.895000    
       548 MEMB     4        POPE     DN       DRUD     -1.97710      0.400000           0   0.00000       0.00000    
       549 MEMB     4        POPE     HN1      HDP1B    0.340000       1.00800           0   0.00000       0.00000    
       550 MEMB     4        POPE     HN2      HDP1B    0.340000       1.00800           0   0.00000       0.00000    
       551 MEMB     4        POPE     HN3      HDP1B    0.340000       1.00800           0   0.00000       0.00000    
       552 MEMB     4        POPE     C12      CD32A     2.27610       11.6110           0  -1.65600      0.895000    
       553 MEMB     4        POPE     DC12     DRUD     -2.23310      0.400000           0   0.00000       0.00000    
       554 MEMB     4        POPE     H12A     HDA2A    0.143000       1.00800           0   0.00000       0.00000    
       555 MEMB     4        POPE     H12B     HDA2A    0.143000       1.00800           0   0.00000       0.00000    
       556 MEMB     4        POPE     C11      CD32A     2.42220       11.6110           0  -1.64200      0.862000    
       557 MEMB     4        POPE     DC11     DRUD     -2.22370      0.400000           0   0.00000       0.00000    
       558 MEMB     4        POPE     H11A     HDA2A    0.260000E-01   1.00800           0   0.00000       0.00000    
       559 MEMB     4        POPE     H11B     HDA2A    0.260000E-01   1.00800           0   0.00000       0.00000    
       560 MEMB     4        POPE     P        PD1A      2.90360       30.5740           0 -0.974000       2.09800    
       561 MEMB     4        POPE     DP       DRUD     -1.71260      0.400000           0   0.00000       0.00000    
       562 MEMB     4        POPE     O13      OD2C2B   0.798400       15.5994           0 -0.931000       1.08300    
       563 MEMB     4        POPE     DO13     DRUD     -1.67440      0.400000           0   0.00000       0.00000    
       564 MEMB     4        POPE     O14      OD2C2B   0.798400       15.5994           0 -0.931000       1.08300    
       565 MEMB     4        POPE     DO14     DRUD     -1.67440      0.400000           0   0.00000       0.00000    
       566 MEMB     4        POPE     O11      OD30B     1.17720       15.5994           0 -0.901000      0.181000    
       567 MEMB     4        POPE     DO11     DRUD     -1.64720      0.400000           0   0.00000       0.00000    
       568 MEMB     4        POPE     O12      OD30B     1.17720       15.5994           0 -0.901000      0.181000    
       569 MEMB     4        POPE     DO12     DRUD     -1.64720      0.400000           0   0.00000       0.00000    
       570 MEMB     4        POPE     C1       CD32A     2.42220       11.6110           0  -1.64200      0.862000    
       571 MEMB     4        POPE     DC1      DRUD     -2.22370      0.400000           0   0.00000       0.00000    
       572 MEMB     4        POPE     HA       HDA2A    0.260000E-01   1.00800           0   0.00000       0.00000    
       573 MEMB     4        POPE     HB       HDA2A    0.260000E-01   1.00800           0   0.00000       0.00000    
       574 MEMB     4        POPE     C2       CD31C     2.52830       11.6110           0  -1.79700      0.410000    
       575 MEMB     4        POPE     DC2      DRUD     -2.32630      0.400000           0   0.00000       0.00000    
       576 MEMB     4        POPE     HS       HDA1A    0.116000       1.00800           0   0.00000       0.00000    
       577 MEMB     4        POPE     O21      OD30CL    1.48470       15.5994           0 -0.732000      0.601000    
       578 MEMB     4        POPE     DO21     DRUD     -1.48470      0.400000           0   0.00000       0.00000    
       579 MEMB     4        POPE     C21      CD2O3B    2.72820       11.6110           0  -1.37000       1.74700    
       580 MEMB     4        POPE     DC21     DRUD     -2.03120      0.400000           0   0.00000       0.00000    
       581 MEMB     4        POPE     O22      OD2C3B    1.64990       15.5994           0 -0.904000      0.565000    
       582 MEMB     4        POPE     DO22     DRUD     -1.64990      0.400000           0   0.00000       0.00000    
       583 MEMB     4        POPE     C22      CD32C     2.24380       11.6110           0  -1.99300      0.410000    
       584 MEMB     4        POPE     DC22     DRUD     -2.44980      0.400000           0   0.00000       0.00000    
       585 MEMB     4        POPE     H2R      HDA2A    0.690000E-01   1.00800           0   0.00000       0.00000    
       586 MEMB     4        POPE     H2S      HDA2A    0.690000E-01   1.00800           0   0.00000       0.00000    
       587 MEMB     4        POPE     LP1A     LPD     -0.349000       0.00000          -1   0.00000       0.00000    
       588 MEMB     4        POPE     LP1B     LPD     -0.258000       0.00000          -1   0.00000       0.00000    
       589 MEMB     4        POPE     LPMA     LPD     -0.170000       0.00000          -1   0.00000       0.00000    
       590 MEMB     4        POPE     LPMB     LPD     -0.170000       0.00000          -1   0.00000       0.00000    
       591 MEMB     4        POPE     C3       CD32C     2.41230       11.6110           0  -1.79700      0.410000    
       592 MEMB     4        POPE     DC3      DRUD     -2.32630      0.400000           0   0.00000       0.00000    
       593 MEMB     4        POPE     HX       HDA2A    0.116000       1.00800           0   0.00000       0.00000    
       594 MEMB     4        POPE     HY       HDA2A    0.116000       1.00800           0   0.00000       0.00000    
       595 MEMB     4        POPE     O31      OD30CL    1.48470       15.5994           0 -0.732000      0.601000    
       596 MEMB     4        POPE     DO31     DRUD     -1.48470      0.400000           0   0.00000       0.00000    
       597 MEMB     4        POPE     C31      CD2O3B    2.72820       11.6110           0  -1.37000       1.74700    
       598 MEMB     4        POPE     DC31     DRUD     -2.03120      0.400000           0   0.00000       0.00000    
       599 MEMB     4        POPE     O32      OD2C3B    1.64990       15.5994           0 -0.904000      0.565000    
       600 MEMB     4        POPE     DO32     DRUD     -1.64990      0.400000           0   0.00000       0.00000    
       601 MEMB     4        POPE     C32      CD32C     2.24380       11.6110           0  -1.99300      0.410000    
       602 MEMB     4        POPE     DC32     DRUD     -2.44980      0.400000           0   0.00000       0.00000    
       603 MEMB     4        POPE     H2X      HDA2A    0.690000E-01   1.00800           0   0.00000       0.00000    
       604 MEMB     4        POPE     H2Y      HDA2A    0.690000E-01   1.00800           0   0.00000       0.00000    
       605 MEMB     4        POPE     LP1C     LPD     -0.349000       0.00000          -1   0.00000       0.00000    
       606 MEMB     4        POPE     LP1D     LPD     -0.258000       0.00000          -1   0.00000       0.00000    
       607 MEMB     4        POPE     LPMC     LPD     -0.170000       0.00000          -1   0.00000       0.00000    
       608 MEMB     4        POPE     LPMD     LPD     -0.170000       0.00000          -1   0.00000       0.00000    
       609 MEMB     4        POPE     C23      CD32A     2.07980       11.6110           0  -1.66000       1.30000    
       610 MEMB     4        POPE     DC23     DRUD     -2.23580      0.400000           0   0.00000       0.00000    
       611 MEMB     4        POPE     H3R      HDA2A    0.780000E-01   1.00800           0   0.00000       0.00000    
       612 MEMB     4        POPE     H3S      HDA2A    0.780000E-01   1.00800           0   0.00000       0.00000    
       613 MEMB     4        POPE     C24      CD32A     2.07980       11.6110           0  -1.66000       1.30000    
       614 MEMB     4        POPE     DC24     DRUD     -2.23580      0.400000           0   0.00000       0.00000    
       615 MEMB     4        POPE     H4R      HDA2A    0.780000E-01   1.00800           0   0.00000       0.00000    
       616 MEMB     4        POPE     H4S      HDA2A    0.780000E-01   1.00800           0   0.00000       0.00000    
       617 MEMB     4        POPE     C25      CD32A     2.07980       11.6110           0  -1.66000       1.30000    
       618 MEMB     4        POPE     DC25     DRUD     -2.23580      0.400000           0   0.00000       0.00000    
       619 MEMB     4        POPE     H5R      HDA2A    0.780000E-01   1.00800           0   0.00000       0.00000    
       620 MEMB     4        POPE     H5S      HDA2A    0.780000E-01   1.00800           0   0.00000       0.00000    
       621 MEMB     4        POPE     C26      CD32A     2.07980       11.6110           0  -1.66000       1.30000    
       622 MEMB     4        POPE     DC26     DRUD     -2.23580      0.400000           0   0.00000       0.00000    
       623 MEMB     4        POPE     H6R      HDA2A    0.780000E-01   1.00800           0   0.00000       0.00000    
       624 MEMB     4        POPE     H6S      HDA2A    0.780000E-01   1.00800           0   0.00000       0.00000    
       625 MEMB     4        POPE     C27      CD32A     2.07980       11.6110           0  -1.66000       1.30000    
       626 MEMB     4        POPE     DC27     DRUD     -2.23580      0.400000           0   0.00000       0.00000    
       627 MEMB     4        POPE     H7R      HDA2A    0.780000E-01   1.00800           0   0.00000       0.00000    
       628 MEMB     4        POPE     H7S      HDA2A    0.780000E-01   1.00800           0   0.00000       0.00000    
       629 MEMB     4        POPE     C28      CD32A     2.07980       11.6110           0  -1.66000       1.30000    
       630 MEMB     4        POPE     DC28     DRUD     -2.23580      0.400000           0   0.00000       0.00000    
       631 MEMB     4        POPE     H8R      HDA2A    0.780000E-01   1.00800           0   0.00000       0.00000    
       632 MEMB     4        POPE     H8S      HDA2A    0.780000E-01   1.00800           0   0.00000       0.00000    
       633 MEMB     4        POPE     C29      CD2C1A    2.33700       11.6110           0  -1.99000      0.750000    
       634 MEMB     4        POPE     DC29     DRUD     -2.44800      0.400000           0   0.00000       0.00000    
       635 MEMB     4        POPE     H91      HD2C1A   0.111000       1.00800           0   0.00000       0.00000    
       636 MEMB     4        POPE     C210     CD2C1A    2.33700       11.6110           0  -1.99000      0.750000    
       637 MEMB     4        POPE     DC210    DRUD     -2.44800      0.400000           0   0.00000       0.00000    
       638 MEMB     4        POPE     H101     HD2C1A   0.111000       1.00800           0   0.00000       0.00000    
       639 MEMB     4        POPE     C211     CD32A     2.07980       11.6110           0  -1.66000       1.30000    
       640 MEMB     4        POPE     DC211    DRUD     -2.23580      0.400000           0   0.00000       0.00000    
       641 MEMB     4        POPE     H11R     HDA2A    0.780000E-01   1.00800           0   0.00000       0.00000    
       642 MEMB     4        POPE     H11S     HDA2A    0.780000E-01   1.00800           0   0.00000       0.00000    
       643 MEMB     4        POPE     C212     CD32A     2.07980       11.6110           0  -1.66000       1.30000    
       644 MEMB     4        POPE     DC212    DRUD     -2.23580      0.400000           0   0.00000       0.00000    
       645 MEMB     4        POPE     H12R     HDA2A    0.780000E-01   1.00800           0   0.00000       0.00000    
       646 MEMB     4        POPE     H12S     HDA2A    0.780000E-01   1.00800           0   0.00000       0.00000    
       647 MEMB     4        POPE     C213     CD32A     2.07980       11.6110           0  -1.66000       1.30000    
       648 MEMB     4        POPE     DC213    DRUD     -2.23580      0.400000           0   0.00000       0.00000    
       649 MEMB     4        POPE     H13R     HDA2A    0.780000E-01   1.00800           0   0.00000       0.00000    
       650 MEMB     4        POPE     H13S     HDA2A    0.780000E-01   1.00800           0   0.00000       0.00000    
       651 MEMB     4        POPE     C214     CD32A     2.07980       11.6110           0  -1.66000       1.30000    
       652 MEMB     4        POPE     DC214    DRUD     -2.23580      0.400000           0   0.00000       0.00000    
       653 MEMB     4        POPE     H14R     HDA2A    0.780000E-01   1.00800           0   0.00000       0.00000    
       654 MEMB     4        POPE     H14S     HDA2A    0.780000E-01   1.00800           0   0.00000       0.00000    
       655 MEMB     4        POPE     C215     CD32A     2.07980       11.6110           0  -1.66000       1.30000    
       656 MEMB     4        POPE     DC215    DRUD     -2.23580      0.400000           0   0.00000       0.00000    
       657 MEMB     4        POPE     H15R     HDA2A    0.780000E-01   1.00800           0   0.00000       0.00000    
       658 MEMB     4        POPE     H15S     HDA2A    0.780000E-01   1.00800           0   0.00000       0.00000    
       659 MEMB     4        POPE     C216     CD32A     2.07980       11.6110           0  -1.66000       1.30000    
       660 MEMB     4        POPE     DC216    DRUD     -2.23580      0.400000           0   0.00000       0.00000    
       661 MEMB     4        POPE     H16R     HDA2A    0.780000E-01   1.00800           0   0.00000       0.00000    
       662 MEMB     4        POPE     H16S     HDA2A    0.780000E-01   1.00800           0   0.00000       0.00000    
       663 MEMB     4        POPE     C217     CD32A     2.07980       11.6110           0  -1.66000       1.30000    
       664 MEMB     4        POPE     DC217    DRUD     -2.23580      0.400000           0   0.00000       0.00000    
       665 MEMB     4        POPE     H17R     HDA2A    0.780000E-01   1.00800           0   0.00000       0.00000    
       666 MEMB     4        POPE     H17S     HDA2A    0.780000E-01   1.00800           0   0.00000       0.00000    
       667 MEMB     4        POPE     C218     CD33A     2.30820       11.6110           0  -2.05100       1.30000    
       668 MEMB     4        POPE     DC218    DRUD     -2.48520      0.400000           0   0.00000       0.00000    
       669 MEMB     4        POPE     H18R     HDA3A    0.590000E-01   1.00800           0   0.00000       0.00000    
       670 MEMB     4        POPE     H18S     HDA3A    0.590000E-01   1.00800           0   0.00000       0.00000    
       671 MEMB     4        POPE     H18T     HDA3A    0.590000E-01   1.00800           0   0.00000       0.00000    
       672 MEMB     4        POPE     C33      CD32A     2.07980       11.6110           0  -1.66000       1.30000    
       673 MEMB     4        POPE     DC33     DRUD     -2.23580      0.400000           0   0.00000       0.00000    
       674 MEMB     4        POPE     H3X      HDA2A    0.780000E-01   1.00800           0   0.00000       0.00000    
       675 MEMB     4        POPE     H3Y      HDA2A    0.780000E-01   1.00800           0   0.00000       0.00000    
       676 MEMB     4        POPE     C34      CD32A     2.07980       11.6110           0  -1.66000       1.30000    
       677 MEMB     4        POPE     DC34     DRUD     -2.23580      0.400000           0   0.00000       0.00000    
       678 MEMB     4        POPE     H4X      HDA2A    0.780000E-01   1.00800           0   0.00000       0.00000    
       679 MEMB     4        POPE     H4Y      HDA2A    0.780000E-01   1.00800           0   0.00000       0.00000    
       680 MEMB     4        POPE     C35      CD32A     2.07980       11.6110           0  -1.66000       1.30000    
       681 MEMB     4        POPE     DC35     DRUD     -2.23580      0.400000           0   0.00000       0.00000    
       682 MEMB     4        POPE     H5X      HDA2A    0.780000E-01   1.00800           0   0.00000       0.00000    
       683 MEMB     4        POPE     H5Y      HDA2A    0.780000E-01   1.00800           0   0.00000       0.00000    
       684 MEMB     4        POPE     C36      CD32A     2.07980       11.6110           0  -1.66000       1.30000    
       685 MEMB     4        POPE     DC36     DRUD     -2.23580      0.400000           0   0.00000       0.00000    
       686 MEMB     4        POPE     H6X      HDA2A    0.780000E-01   1.00800           0   0.00000       0.00000    
       687 MEMB     4        POPE     H6Y      HDA2A    0.780000E-01   1.00800           0   0.00000       0.00000    
       688 MEMB     4        POPE     C37      CD32A     2.07980       11.6110           0  -1.66000       1.30000    
       689 MEMB     4        POPE     DC37     DRUD     -2.23580      0.400000           0   0.00000       0.00000    
       690 MEMB     4        POPE     H7X      HDA2A    0.780000E-01   1.00800           0   0.00000       0.00000    
       691 MEMB     4        POPE     H7Y      HDA2A    0.780000E-01   1.00800           0   0.00000       0.00000    
       692 MEMB     4        POPE     C38      CD32A     2.07980       11.6110           0  -1.66000       1.30000    
       693 MEMB     4        POPE     DC38     DRUD     -2.23580      0.400000           0   0.00000       0.00000    
       694 MEMB     4        POPE     H8X      HDA2A    0.780000E-01   1.00800           0   0.00000       0.00000    
       695 MEMB     4        POPE     H8Y      HDA2A    0.780000E-01   1.00800           0   0.00000       0.00000    
       696 MEMB     4        POPE     C39      CD32A     2.07980       11.6110           0  -1.66000       1.30000    
       697 MEMB     4        POPE     DC39     DRUD     -2.23580      0.400000           0   0.00000       0.00000    
       698 MEMB     4        POPE     H9X      HDA2A    0.780000E-01   1.00800           0   0.00000       0.00000    
       699 MEMB     4        POPE     H9Y      HDA2A    0.780000E-01   1.00800           0   0.00000       0.00000    
       700 MEMB     4        POPE     C310     CD32A     2.07980       11.6110           0  -1.66000       1.30000    
       701 MEMB     4        POPE     DC310    DRUD     -2.23580      0.400000           0   0.00000       0.00000    
       702 MEMB     4        POPE     H10X     HDA2A    0.780000E-01   1.00800           0   0.00000       0.00000    
       703 MEMB     4        POPE     H10Y     HDA2A    0.780000E-01   1.00800           0   0.00000       0.00000    
       704 MEMB     4        POPE     C311     CD32A     2.07980       11.6110           0  -1.66000       1.30000    
       705 MEMB     4        POPE     DC311    DRUD     -2.23580      0.400000           0   0.00000       0.00000    
       706 MEMB     4        POPE     H11X     HDA2A    0.780000E-01   1.00800           0   0.00000       0.00000    
       707 MEMB     4        POPE     H11Y     HDA2A    0.780000E-01   1.00800           0   0.00000       0.00000    
       708 MEMB     4        POPE     C312     CD32A     2.07980       11.6110           0  -1.66000       1.30000    
       709 MEMB     4        POPE     DC312    DRUD     -2.23580      0.400000           0   0.00000       0.00000    
       710 MEMB     4        POPE     H12X     HDA2A    0.780000E-01   1.00800           0   0.00000       0.00000    
       711 MEMB     4        POPE     H12Y     HDA2A    0.780000E-01   1.00800           0   0.00000       0.00000    
       712 MEMB     4        POPE     C313     CD32A     2.07980       11.6110           0  -1.66000       1.30000    
       713 MEMB     4        POPE     DC313    DRUD     -2.23580      0.400000           0   0.00000       0.00000    
       714 MEMB     4        POPE     H13X     HDA2A    0.780000E-01   1.00800           0   0.00000       0.00000    
       715 MEMB     4        POPE     H13Y     HDA2A    0.780000E-01   1.00800           0   0.00000       0.00000    
       716 MEMB     4        POPE     C314     CD32A     2.07980       11.6110           0  -1.66000       1.30000    
       717 MEMB     4        POPE     DC314    DRUD     -2.23580      0.400000           0   0.00000       0.00000    
       718 MEMB     4        POPE     H14X     HDA2A    0.780000E-01   1.00800           0   0.00000       0.00000    
       719 MEMB     4        POPE     H14Y     HDA2A    0.780000E-01   1.00800           0   0.00000       0.00000    
       720 MEMB     4        POPE     C315     CD32A     2.07980       11.6110           0  -1.66000       1.30000    
       721 MEMB     4        POPE     DC315    DRUD     -2.23580      0.400000           0   0.00000       0.00000    
       722 MEMB     4        POPE     H15X     HDA2A    0.780000E-01   1.00800           0   0.00000       0.00000    
       723 MEMB     4        POPE     H15Y     HDA2A    0.780000E-01   1.00800           0   0.00000       0.00000    
       724 MEMB     4        POPE     C316     CD33A     2.30820       11.6110           0  -2.05100       1.30000    
       725 MEMB     4        POPE     DC316    DRUD     -2.48520      0.400000           0   0.00000       0.00000    
       726 MEMB     4        POPE     H16X     HDA3A    0.590000E-01   1.00800           0   0.00000       0.00000    
       727 MEMB     4        POPE     H16Y     HDA3A    0.590000E-01   1.00800           0   0.00000       0.00000    
       728 MEMB     4        POPE     H16Z     HDA3A    0.590000E-01   1.00800           0   0.00000       0.00000    
       729 MEMB     5        POPE     N        ND3P3A    1.62810       13.6070           0  -1.29800      0.895000    
       730 MEMB     5        POPE     DN       DRUD     -1.97710      0.400000           0   0.00000       0.00000    
       731 MEMB     5        POPE     HN1      HDP1B    0.340000       1.00800           0   0.00000       0.00000    
       732 MEMB     5        POPE     HN2      HDP1B    0.340000       1.00800           0   0.00000       0.00000    
       733 MEMB     5        POPE     HN3      HDP1B    0.340000       1.00800           0   0.00000       0.00000    
       734 MEMB     5        POPE     C12      CD32A     2.27610       11.6110           0  -1.65600      0.895000    
       735 MEMB     5        POPE     DC12     DRUD     -2.23310      0.400000           0   0.00000       0.00000    
       736 MEMB     5        POPE     H12A     HDA2A    0.143000       1.00800           0   0.00000       0.00000    
       737 MEMB     5        POPE     H12B     HDA2A    0.143000       1.00800           0   0.00000       0.00000    
       738 MEMB     5        POPE     C11      CD32A     2.42220       11.6110           0  -1.64200      0.862000    
       739 MEMB     5        POPE     DC11     DRUD     -2.22370      0.400000           0   0.00000       0.00000    
       740 MEMB     5        POPE     H11A     HDA2A    0.260000E-01   1.00800           0   0.00000       0.00000    
       741 MEMB     5        POPE     H11B     HDA2A    0.260000E-01   1.00800           0   0.00000       0.00000    
       742 MEMB     5        POPE     P        PD1A      2.90360       30.5740           0 -0.974000       2.09800    
       743 MEMB     5        POPE     DP       DRUD     -1.71260      0.400000           0   0.00000       0.00000    
       744 MEMB     5        POPE     O13      OD2C2B   0.798400       15.5994           0 -0.931000       1.08300    
       745 MEMB     5        POPE     DO13     DRUD     -1.67440      0.400000           0   0.00000       0.00000    
       746 MEMB     5        POPE     O14      OD2C2B   0.798400       15.5994           0 -0.931000       1.08300    
       747 MEMB     5        POPE     DO14     DRUD     -1.67440      0.400000           0   0.00000       0.00000    
       748 MEMB     5        POPE     O11      OD30B     1.17720       15.5994           0 -0.901000      0.181000    
       749 MEMB     5        POPE     DO11     DRUD     -1.64720      0.400000           0   0.00000       0.00000    
       750 MEMB     5        POPE     O12      OD30B     1.17720       15.5994           0 -0.901000      0.181000    
       751 MEMB     5        POPE     DO12     DRUD     -1.64720      0.400000           0   0.00000       0.00000    
       752 MEMB     5        POPE     C1       CD32A     2.42220       11.6110           0  -1.64200      0.862000    
       753 MEMB     5        POPE     DC1      DRUD     -2.22370      0.400000           0   0.00000       0.00000    
       754 MEMB     5        POPE     HA       HDA2A    0.260000E-01   1.00800           0   0.00000       0.00000    
       755 MEMB     5        POPE     HB       HDA2A    0.260000E-01   1.00800           0   0.00000       0.00000    
       756 MEMB     5        POPE     C2       CD31C     2.52830       11.6110           0  -1.79700      0.410000    
       757 MEMB     5        POPE     DC2      DRUD     -2.32630      0.400000           0   0.00000       0.00000    
       758 MEMB     5        POPE     HS       HDA1A    0.116000       1.00800           0   0.00000       0.00000    
       759 MEMB     5        POPE     O21      OD30CL    1.48470       15.5994           0 -0.732000      0.601000    
       760 MEMB     5        POPE     DO21     DRUD     -1.48470      0.400000           0   0.00000       0.00000    
       761 MEMB     5        POPE     C21      CD2O3B    2.72820       11.6110           0  -1.37000       1.74700    
       762 MEMB     5        POPE     DC21     DRUD     -2.03120      0.400000           0   0.00000       0.00000    
       763 MEMB     5        POPE     O22      OD2C3B    1.64990       15.5994           0 -0.904000      0.565000    
       764 MEMB     5        POPE     DO22     DRUD     -1.64990      0.400000           0   0.00000       0.00000    
       765 MEMB     5        POPE     C22      CD32C     2.24380       11.6110           0  -1.99300      0.410000    
       766 MEMB     5        POPE     DC22     DRUD     -2.44980      0.400000           0   0.00000       0.00000    
       767 MEMB     5        POPE     H2R      HDA2A    0.690000E-01   1.00800           0   0.00000       0.00000    
       768 MEMB     5        POPE     H2S      HDA2A    0.690000E-01   1.00800           0   0.00000       0.00000    
       769 MEMB     5        POPE     LP1A     LPD     -0.349000       0.00000          -1   0.00000       0.00000    
       770 MEMB     5        POPE     LP1B     LPD     -0.258000       0.00000          -1   0.00000       0.00000    
       771 MEMB     5        POPE     LPMA     LPD     -0.170000       0.00000          -1   0.00000       0.00000    
       772 MEMB     5        POPE     LPMB     LPD     -0.170000       0.00000          -1   0.00000       0.00000    
       773 MEMB     5        POPE     C3       CD32C     2.41230       11.6110           0  -1.79700      0.410000    
       774 MEMB     5        POPE     DC3      DRUD     -2.32630      0.400000           0   0.00000       0.00000    
       775 MEMB     5        POPE     HX       HDA2A    0.116000       1.00800           0   0.00000       0.00000    
       776 MEMB     5        POPE     HY       HDA2A    0.116000       1.00800           0   0.00000       0.00000    
       777 MEMB     5        POPE     O31      OD30CL    1.48470       15.5994           0 -0.732000      0.601000    
       778 MEMB     5        POPE     DO31     DRUD     -1.48470      0.400000           0   0.00000       0.00000    
       779 MEMB     5        POPE     C31      CD2O3B    2.72820       11.6110           0  -1.37000       1.74700    
       780 MEMB     5        POPE     DC31     DRUD     -2.03120      0.400000           0   0.00000       0.00000    
       781 MEMB     5        POPE     O32      OD2C3B    1.64990       15.5994           0 -0.904000      0.565000    
       782 MEMB     5        POPE     DO32     DRUD     -1.64990      0.400000           0   0.00000       0.00000    
       783 MEMB     5        POPE     C32      CD32C     2.24380       11.6110           0  -1.99300      0.410000    
       784 MEMB     5        POPE     DC32     DRUD     -2.44980      0.400000           0   0.00000       0.00000    
       785 MEMB     5        POPE     H2X      HDA2A    0.690000E-01   1.00800           0   0.00000       0.00000    
       786 MEMB     5        POPE     H2Y      HDA2A    0.690000E-01   1.00800           0   0.00000       0.00000    
       787 MEMB     5        POPE     LP1C     LPD     -0.349000       0.00000          -1   0.00000       0.00000    
       788 MEMB     5        POPE     LP1D     LPD     -0.258000       0.00000          -1   0.00000       0.00000    
       789 MEMB     5        POPE     LPMC     LPD     -0.170000       0.00000          -1   0.00000       0.00000    
       790 MEMB     5        POPE     LPMD     LPD     -0.170000       0.00000          -1   0.00000       0.00000    
       791 MEMB     5        POPE     C23      CD32A     2.07980       11.6110           0  -1.66000       1.30000    
       792 MEMB     5        POPE     DC23     DRUD     -2.23580      0.400000           0   0.00000       0.00000    
       793 MEMB     5        POPE     H3R      HDA2A    0.780000E-01   1.00800           0   0.00000       0.00000    
       794 MEMB     5        POPE     H3S      HDA2A    0.780000E-01   1.00800           0   0.00000       0.00000    
       795 MEMB     5        POPE     C24      CD32A     2.07980       11.6110           0  -1.66000       1.30000    
       796 MEMB     5        POPE     DC24     DRUD     -2.23580      0.400000           0   0.00000       0.00000    
       797 MEMB     5        POPE     H4R      HDA2A    0.780000E-01   1.00800           0   0.00000       0.00000    
       798 MEMB     5        POPE     H4S      HDA2A    0.780000E-01   1.00800           0   0.00000       0.00000    
       799 MEMB     5        POPE     C25      CD32A     2.07980       11.6110           0  -1.66000       1.30000    
       800 MEMB     5        POPE     DC25     DRUD     -2.23580      0.400000           0   0.00000       0.00000    
       801 MEMB     5        POPE     H5R      HDA2A    0.780000E-01   1.00800           0   0.00000       0.00000    
       802 MEMB     5        POPE     H5S      HDA2A    0.780000E-01   1.00800           0   0.00000       0.00000    
       803 MEMB     5        POPE     C26      CD32A     2.07980       11.6110           0  -1.66000       1.30000    
       804 MEMB     5        POPE     DC26     DRUD     -2.23580      0.400000           0   0.00000       0.00000    
       805 MEMB     5        POPE     H6R      HDA2A    0.780000E-01   1.00800           0   0.00000       0.00000    
       806 MEMB     5        POPE     H6S      HDA2A    0.780000E-01   1.00800           0   0.00000       0.00000    
       807 MEMB     5        POPE     C27      CD32A     2.07980       11.6110           0  -1.66000       1.30000    
       808 MEMB     5        POPE     DC27     DRUD     -2.23580      0.400000           0   0.00000       0.00000    
       809 MEMB     5        POPE     H7R      HDA2A    0.780000E-01   1.00800           0   0.00000       0.00000    
       810 MEMB     5        POPE     H7S      HDA2A    0.780000E-01   1.00800           0   0.00000       0.00000    
       811 MEMB     5        POPE     C28      CD32A     2.07980       11.6110           0  -1.66000       1.30000    
       812 MEMB     5        POPE     DC28     DRUD     -2.23580      0.400000           0   0.00000       0.00000    
       813 MEMB     5        POPE     H8R      HDA2A    0.780000E-01   1.00800           0   0.00000       0.00000    
       814 MEMB     5        POPE     H8S      HDA2A    0.780000E-01   1.00800           0   0.00000       0.00000    
       815 MEMB     5        POPE     C29      CD2C1A    2.33700       11.6110           0  -1.99000      0.750000    
       816 MEMB     5        POPE     DC29     DRUD     -2.44800      0.400000           0   0.00000       0.00000    
       817 MEMB     5        POPE     H91      HD2C1A   0.111000       1.00800           0   0.00000       0.00000    
       818 MEMB     5        POPE     C210     CD2C1A    2.33700       11.6110           0  -1.99000      0.750000    
       819 MEMB     5        POPE     DC210    DRUD     -2.44800      0.400000           0   0.00000       0.00000    
       820 MEMB     5        POPE     H101     HD2C1A   0.111000       1.00800           0   0.00000       0.00000    
       821 MEMB     5        POPE     C211     CD32A     2.07980       11.6110           0  -1.66000       1.30000    
       822 MEMB     5        POPE     DC211    DRUD     -2.23580      0.400000           0   0.00000       0.00000    
       823 MEMB     5        POPE     H11R     HDA2A    0.780000E-01   1.00800           0   0.00000       0.00000    
       824 MEMB     5        POPE     H11S     HDA2A    0.780000E-01   1.00800           0   0.00000       0.00000    
       825 MEMB     5        POPE     C212     CD32A     2.07980       11.6110           0  -1.66000       1.30000    
       826 MEMB     5        POPE     DC212    DRUD     -2.23580      0.400000           0   0.00000       0.00000    
       827 MEMB     5        POPE     H12R     HDA2A    0.780000E-01   1.00800           0   0.00000       0.00000    
       828 MEMB     5        POPE     H12S     HDA2A    0.780000E-01   1.00800           0   0.00000       0.00000    
       829 MEMB     5        POPE     C213     CD32A     2.07980       11.6110           0  -1.66000       1.30000    
       830 MEMB     5        POPE     DC213    DRUD     -2.23580      0.400000           0   0.00000       0.00000    
       831 MEMB     5        POPE     H13R     HDA2A    0.780000E-01   1.00800           0   0.00000       0.00000    
       832 MEMB     5        POPE     H13S     HDA2A    0.780000E-01   1.00800           0   0.00000       0.00000    
       833 MEMB     5        POPE     C214     CD32A     2.07980       11.6110           0  -1.66000       1.30000    
       834 MEMB     5        POPE     DC214    DRUD     -2.23580      0.400000           0   0.00000       0.00000    
       835 MEMB     5        POPE     H14R     HDA2A    0.780000E-01   1.00800           0   0.00000       0.00000    
       836 MEMB     5        POPE     H14S     HDA2A    0.780000E-01   1.00800           0   0.00000       0.00000    
       837 MEMB     5        POPE     C215     CD32A     2.07980       11.6110           0  -1.66000       1.30000    
       838 MEMB     5        POPE     DC215    DRUD     -2.23580      0.400000           0   0.00000       0.00000    
       839 MEMB     5        POPE     H15R     HDA2A    0.780000E-01   1.00800           0   0.00000       0.00000    
       840 MEMB     5        POPE     H15S     HDA2A    0.780000E-01   1.00800           0   0.00000       0.00000    
       841 MEMB     5        POPE     C216     CD32A     2.07980       11.6110           0  -1.66000       1.30000    
       842 MEMB     5        POPE     DC216    DRUD     -2.23580      0.400000           0   0.00000       0.00000    
       843 MEMB     5        POPE     H16R     HDA2A    0.780000E-01   1.00800           0   0.00000       0.00000    
       844 MEMB     5        POPE     H16S     HDA2A    0.780000E-01   1.00800           0   0.00000       0.00000    
       845 MEMB     5        POPE     C217     CD32A     2.07980       11.6110           0  -1.66000       1.30000    
       846 MEMB     5        POPE     DC217    DRUD     -2.23580      0.400000           0   0.00000       0.00000    
       847 MEMB     5        POPE     H17R     HDA2A    0.780000E-01   1.00800           0   0.00000       0.00000    
       848 MEMB     5        POPE     H17S     HDA2A    0.780000E-01   1.00800           0   0.00000       0.00000    
       849 MEMB     5        POPE     C218     CD33A     2.30820       11.6110           0  -2.05100       1.30000    
       850 MEMB     5        POPE     DC218    DRUD     -2.48520      0.400000           0   0.00000       0.00000    
       851 MEMB     5        POPE     H18R     HDA3A    0.590000E-01   1.00800           0   0.00000       0.00000    
       852 MEMB     5        POPE     H18S     HDA3A    0.590000E-01   1.00800           0   0.00000       0.00000    
       853 MEMB     5        POPE     H18T     HDA3A    0.590000E-01   1.00800           0   0.00000       0.00000    
       854 MEMB     5        POPE     C33      CD32A     2.07980       11.6110           0  -1.66000       1.30000    
       855 MEMB     5        POPE     DC33     DRUD     -2.23580      0.400000           0   0.00000       0.00000    
       856 MEMB     5        POPE     H3X      HDA2A    0.780000E-01   1.00800           0   0.00000       0.00000    
       857 MEMB     5        POPE     H3Y      HDA2A    0.780000E-01   1.00800           0   0.00000       0.00000    
       858 MEMB     5        POPE     C34      CD32A     2.07980       11.6110           0  -1.66000       1.30000    
       859 MEMB     5        POPE     DC34     DRUD     -2.23580      0.400000           0   0.00000       0.00000    
       860 MEMB     5        POPE     H4X      HDA2A    0.780000E-01   1.00800           0   0.00000       0.00000    
       861 MEMB     5        POPE     H4Y      HDA2A    0.780000E-01   1.00800           0   0.00000       0.00000    
       862 MEMB     5        POPE     C35      CD32A     2.07980       11.6110           0  -1.66000       1.30000    
       863 MEMB     5        POPE     DC35     DRUD     -2.23580      0.400000           0   0.00000       0.00000    
       864 MEMB     5        POPE     H5X      HDA2A    0.780000E-01   1.00800           0   0.00000       0.00000    
       865 MEMB     5        POPE     H5Y      HDA2A    0.780000E-01   1.00800           0   0.00000       0.00000    
       866 MEMB     5        POPE     C36      CD32A     2.07980       11.6110           0  -1.66000       1.30000    
       867 MEMB     5        POPE     DC36     DRUD     -2.23580      0.400000           0   0.00000       0.00000    
       868 MEMB     5        POPE     H6X      HDA2A    0.780000E-01   1.00800           0   0.00000       0.00000    
       869 MEMB     5        POPE     H6Y      HDA2A    0.780000E-01   1.00800           0   0.00000       0.00000    
       870 MEMB     5        POPE     C37      CD32A     2.07980       11.6110           0  -1.66000       1.30000    
       871 MEMB     5        POPE     DC37     DRUD     -2.23580      0.400000           0   0.00000       0.00000    
       872 MEMB     5        POPE     H7X      HDA2A    0.780000E-01   1.00800           0   0.00000       0.00000    
       873 MEMB     5        POPE     H7Y      HDA2A    0.780000E-01   1.00800           0   0.00000       0.00000    
       874 MEMB     5        POPE     C38      CD32A     2.07980       11.6110           0  -1.66000       1.30000    
       875 MEMB     5        POPE     DC38     DRUD     -2.23580      0.400000           0   0.00000       0.00000    
       876 MEMB     5        POPE     H8X      HDA2A    0.780000E-01   1.00800           0   0.00000       0.00000    
       877 MEMB     5        POPE     H8Y      HDA2A    0.780000E-01   1.00800           0   0.00000       0.00000    
       878 MEMB     5        POPE     C39      CD32A     2.07980       11.6110           0  -1.66000       1.30000    
       879 MEMB     5        POPE     DC39     DRUD     -2.23580      0.400000           0   0.00000       0.00000    
       880 MEMB     5        POPE     H9X      HDA2A    0.780000E-01   1.00800           0   0.00000       0.00000    
       881 MEMB     5        POPE     H9Y      HDA2A    0.780000E-01   1.00800           0   0.00000       0.00000    
       882 MEMB     5        POPE     C310     CD32A     2.07980       11.6110           0  -1.66000       1.30000    
       883 MEMB     5        POPE     DC310    DRUD     -2.23580      0.400000           0   0.00000       0.00000    
       884 MEMB     5        POPE     H10X     HDA2A    0.780000E-01   1.00800           0   0.00000       0.00000    
       885 MEMB     5        POPE     H10Y     HDA2A    0.780000E-01   1.00800           0   0.00000       0.00000    
       886 MEMB     5        POPE     C311     CD32A     2.07980       11.6110           0  -1.66000       1.30000    
       887 MEMB     5        POPE     DC311    DRUD     -2.23580      0.400000           0   0.00000       0.00000    
       888 MEMB     5        POPE     H11X     HDA2A    0.780000E-01   1.00800           0   0.00000       0.00000    
       889 MEMB     5        POPE     H11Y     HDA2A    0.780000E-01   1.00800           0   0.00000       0.00000    
       890 MEMB     5        POPE     C312     CD32A     2.07980       11.6110           0  -1.66000       1.30000    
       891 MEMB     5        POPE     DC312    DRUD     -2.23580      0.400000           0   0.00000       0.00000    
       892 MEMB     5        POPE     H12X     HDA2A    0.780000E-01   1.00800           0   0.00000       0.00000    
       893 MEMB     5        POPE     H12Y     HDA2A    0.780000E-01   1.00800           0   0.00000       0.00000    
       894 MEMB     5        POPE     C313     CD32A     2.07980       11.6110           0  -1.66000       1.30000    
       895 MEMB     5        POPE     DC313    DRUD     -2.23580      0.400000           0   0.00000       0.00000    
       896 MEMB     5        POPE     H13X     HDA2A    0.780000E-01   1.00800           0   0.00000       0.00000    
       897 MEMB     5        POPE     H13Y     HDA2A    0.780000E-01   1.00800           0   0.00000       0.00000    
       898 MEMB     5        POPE     C314     CD32A     2.07980       11.6110           0  -1.66000       1.30000    
       899 MEMB     5        POPE     DC314    DRUD     -2.23580      0.400000           0   0.00000       0.00000    
       900 MEMB     5        POPE     H14X     HDA2A    0.780000E-01   1.00800           0   0.00000       0.00000    
       901 MEMB     5        POPE     H14Y     HDA2A    0.780000E-01   1.00800           0   0.00000       0.00000    
       902 MEMB     5        POPE     C315     CD32A     2.07980       11.6110           0  -1.66000       1.30000    
       903 MEMB     5        POPE     DC315    DRUD     -2.23580      0.400000           0   0.00000       0.00000    
       904 MEMB     5        POPE     H15X     HDA2A    0.780000E-01   1.00800           0   0.00000       0.00000    
       905 MEMB     5        POPE     H15Y     HDA2A    0.780000E-01   1.00800           0   0.00000       0.00000    
       906 MEMB     5        POPE     C316     CD33A     2.30820       11.6110           0  -2.05100       1.30000    
       907 MEMB     5        POPE     DC316    DRUD     -2.48520      0.400000           0   0.00000       0.00000    
       908 MEMB     5        POPE     H16X     HDA3A    0.590000E-01   1.00800           0   0.00000       0.00000    
       909 MEMB     5        POPE     H16Y     HDA3A    0.590000E-01   1.00800           0   0.00000       0.00000    
       910 MEMB     5        POPE     H16Z     HDA3A    0.590000E-01   1.00800           0   0.00000       0.00000    
       911 MEMB     6        POPE     N        ND3P3A    1.62810       13.6070           0  -1.29800      0.895000    
       912 MEMB     6        POPE     DN       DRUD     -1.97710      0.400000           0   0.00000       0.00000    
       913 MEMB     6        POPE     HN1      HDP1B    0.340000       1.00800           0   0.00000       0.00000    
       914 MEMB     6        POPE     HN2      HDP1B    0.340000       1.00800           0   0.00000       0.00000    
       915 MEMB     6        POPE     HN3      HDP1B    0.340000       1.00800           0   0.00000       0.00000    
       916 MEMB     6        POPE     C12      CD32A     2.27610       11.6110           0  -1.65600      0.895000    
       917 MEMB     6        POPE     DC12     DRUD     -2.23310      0.400000           0   0.00000       0.00000    
       918 MEMB     6        POPE     H12A     HDA2A    0.143000       1.00800           0   0.00000       0.00000    
       919 MEMB     6        POPE     H12B     HDA2A    0.143000       1.00800           0   0.00000       0.00000    
       920 MEMB     6        POPE     C11      CD32A     2.42220       11.6110           0  -1.64200      0.862000    
       921 MEMB     6        POPE     DC11     DRUD     -2.22370      0.400000           0   0.00000       0.00000    
       922 MEMB     6        POPE     H11A     HDA2A    0.260000E-01   1.00800           0   0.00000       0.00000    
       923 MEMB     6        POPE     H11B     HDA2A    0.260000E-01   1.00800           0   0.00000       0.00000    
       924 MEMB     6        POPE     P        PD1A      2.90360       30.5740           0 -0.974000       2.09800    
       925 MEMB     6        POPE     DP       DRUD     -1.71260      0.400000           0   0.00000       0.00000    
       926 MEMB     6        POPE     O13      OD2C2B   0.798400       15.5994           0 -0.931000       1.08300    
       927 MEMB     6        POPE     DO13     DRUD     -1.67440      0.400000           0   0.00000       0.00000    
       928 MEMB     6        POPE     O14      OD2C2B   0.798400       15.5994           0 -0.931000       1.08300    
       929 MEMB     6        POPE     DO14     DRUD     -1.67440      0.400000           0   0.00000       0.00000    
       930 MEMB     6        POPE     O11      OD30B     1.17720       15.5994           0 -0.901000      0.181000    
       931 MEMB     6        POPE     DO11     DRUD     -1.64720      0.400000           0   0.00000       0.00000    
       932 MEMB     6        POPE     O12      OD30B     1.17720       15.5994           0 -0.901000      0.181000    
       933 MEMB     6        POPE     DO12     DRUD     -1.64720      0.400000           0   0.00000       0.00000    
       934 MEMB     6        POPE     C1       CD32A     2.42220       11.6110           0  -1.64200      0.862000    
       935 MEMB     6        POPE     DC1      DRUD     -2.22370      0.400000           0   0.00000       0.00000    
       936 MEMB     6        POPE     HA       HDA2A    0.260000E-01   1.00800           0   0.00000       0.00000    
       937 MEMB     6        POPE     HB       HDA2A    0.260000E-01   1.00800           0   0.00000       0.00000    
       938 MEMB     6        POPE     C2       CD31C     2.52830       11.6110           0  -1.79700      0.410000    
       939 MEMB     6        POPE     DC2      DRUD     -2.32630      0.400000           0   0.00000       0.00000    
       940 MEMB     6        POPE     HS       HDA1A    0.116000       1.00800           0   0.00000       0.00000    
       941 MEMB     6        POPE     O21      OD30CL    1.48470       15.5994           0 -0.732000      0.601000    
       942 MEMB     6        POPE     DO21     DRUD     -1.48470      0.400000           0   0.00000       0.00000    
       943 MEMB     6        POPE     C21      CD2O3B    2.72820       11.6110           0  -1.37000       1.74700    
       944 MEMB     6        POPE     DC21     DRUD     -2.03120      0.400000           0   0.00000       0.00000    
       945 MEMB     6        POPE     O22      OD2C3B    1.64990       15.5994           0 -0.904000      0.565000    
       946 MEMB     6        POPE     DO22     DRUD     -1.64990      0.400000           0   0.00000       0.00000    
       947 MEMB     6        POPE     C22      CD32C     2.24380       11.6110           0  -1.99300      0.410000    
       948 MEMB     6        POPE     DC22     DRUD     -2.44980      0.400000           0   0.00000       0.00000    
       949 MEMB     6        POPE     H2R      HDA2A    0.690000E-01   1.00800           0   0.00000       0.00000    
       950 MEMB     6        POPE     H2S      HDA2A    0.690000E-01   1.00800           0   0.00000       0.00000    
       951 MEMB     6        POPE     LP1A     LPD     -0.349000       0.00000          -1   0.00000       0.00000    
       952 MEMB     6        POPE     LP1B     LPD     -0.258000       0.00000          -1   0.00000       0.00000    
       953 MEMB     6        POPE     LPMA     LPD     -0.170000       0.00000          -1   0.00000       0.00000    
       954 MEMB     6        POPE     LPMB     LPD     -0.170000       0.00000          -1   0.00000       0.00000    
       955 MEMB     6        POPE     C3       CD32C     2.41230       11.6110           0  -1.79700      0.410000    
       956 MEMB     6        POPE     DC3      DRUD     -2.32630      0.400000           0   0.00000       0.00000    
       957 MEMB     6        POPE     HX       HDA2A    0.116000       1.00800           0   0.00000       0.00000    
       958 MEMB     6        POPE     HY       HDA2A    0.116000       1.00800           0   0.00000       0.00000    
       959 MEMB     6        POPE     O31      OD30CL    1.48470       15.5994           0 -0.732000      0.601000    
       960 MEMB     6        POPE     DO31     DRUD     -1.48470      0.400000           0   0.00000       0.00000    
       961 MEMB     6        POPE     C31      CD2O3B    2.72820       11.6110           0  -1.37000       1.74700    
       962 MEMB     6        POPE     DC31     DRUD     -2.03120      0.400000           0   0.00000       0.00000    
       963 MEMB     6        POPE     O32      OD2C3B    1.64990       15.5994           0 -0.904000      0.565000    
       964 MEMB     6        POPE     DO32     DRUD     -1.64990      0.400000           0   0.00000       0.00000    
       965 MEMB     6        POPE     C32      CD32C     2.24380       11.6110           0  -1.99300      0.410000    
       966 MEMB     6        POPE     DC32     DRUD     -2.44980      0.400000           0   0.00000       0.00000    
       967 MEMB     6        POPE     H2X      HDA2A    0.690000E-01   1.00800           0   0.00000       0.00000    
       968 MEMB     6        POPE     H2Y      HDA2A    0.690000E-01   1.00800           0   0.00000       0.00000    
       969 MEMB     6        POPE     LP1C     LPD     -0.349000       0.00000          -1   0.00000       0.00000    
       970 MEMB     6        POPE     LP1D     LPD     -0.258000       0.00000          -1   0.00000       0.00000    
       971 MEMB     6        POPE     LPMC     LPD     -0.170000       0.00000          -1   0.00000       0.00000    
       972 MEMB     6        POPE     LPMD     LPD     -0.170000       0.00000          -1   0.00000       0.00000    
       973 MEMB     6        POPE     C23      CD32A     2.07980       11.6110           0  -1.66000       1.30000    
       974 MEMB     6        POPE     DC23     DRUD     -2.23580      0.400000           0   0.00000       0.00000    
       975 MEMB     6        POPE     H3R      HDA2A    0.780000E-01   1.00800           0   0.00000       0.00000    
       976 MEMB     6        POPE     H3S      HDA2A    0.780000E-01   1.00800           0   0.00000       0.00000    
       977 MEMB     6        POPE     C24      CD32A     2.07980       11.6110           0  -1.66000       1.30000    
       978 MEMB     6        POPE     DC24     DRUD     -2.23580      0.400000           0   0.00000       0.00000    
       979 MEMB     6        POPE     H4R      HDA2A    0.780000E-01   1.00800           0   0.00000       0.00000    
       980 MEMB     6        POPE     H4S      HDA2A    0.780000E-01   1.00800           0   0.00000       0.00000    
       981 MEMB     6        POPE     C25      CD32A     2.07980       11.6110           0  -1.66000       1.30000    
       982 MEMB     6        POPE     DC25     DRUD     -2.23580      0.400000           0   0.00000       0.00000    
       983 MEMB     6        POPE     H5R      HDA2A    0.780000E-01   1.00800           0   0.00000       0.00000    
       984 MEMB     6        POPE     H5S      HDA2A    0.780000E-01   1.00800           0   0.00000       0.00000    
       985 MEMB     6        POPE     C26      CD32A     2.07980       11.6110           0  -1.66000       1.30000    
       986 MEMB     6        POPE     DC26     DRUD     -2.23580      0.400000           0   0.00000       0.00000    
       987 MEMB     6        POPE     H6R      HDA2A    0.780000E-01   1.00800           0   0.00000       0.00000    
       988 MEMB     6        POPE     H6S      HDA2A    0.780000E-01   1.00800           0   0.00000       0.00000    
       989 MEMB     6        POPE     C27      CD32A     2.07980       11.6110           0  -1.66000       1.30000    
       990 MEMB     6        POPE     DC27     DRUD     -2.23580      0.400000           0   0.00000       0.00000    
       991 MEMB     6        POPE     H7R      HDA2A    0.780000E-01   1.00800           0   0.00000       0.00000    
       992 MEMB     6        POPE     H7S      HDA2A    0.780000E-01   1.00800           0   0.00000       0.00000    
       993 MEMB     6        POPE     C28      CD32A     2.07980       11.6110           0  -1.66000       1.30000    
       994 MEMB     6        POPE     DC28     DRUD     -2.23580      0.400000           0   0.00000       0.00000    
       995 MEMB     6        POPE     H8R      HDA2A    0.780000E-01   1.00800           0   0.00000       0.00000    
       996 MEMB     6        POPE     H8S      HDA2A    0.780000E-01   1.00800           0   0.00000       0.00000    
       997 MEMB     6        POPE     C29      CD2C1A    2.33700       11.6110           0  -1.99000      0.750000    
       998 MEMB     6        POPE     DC29     DRUD     -2.44800      0.400000           0   0.00000       0.00000    
       999 MEMB     6        POPE     H91      HD2C1A   0.111000       1.00800           0   0.00000       0.00000    
      1000 MEMB     6        POPE     C210     CD2C1A    2.33700       11.6110           0  -1.99000      0.750000    
      1001 MEMB     6        POPE     DC210    DRUD     -2.44800      0.400000           0   0.00000       0.00000    
      1002 MEMB     6        POPE     H101     HD2C1A   0.111000       1.00800           0   0.00000       0.00000    
      1003 MEMB     6        POPE     C211     CD32A     2.07980       11.6110           0  -1.66000       1.30000    
      1004 MEMB     6        POPE     DC211    DRUD     -2.23580      0.400000           0   0.00000       0.00000    
      1005 MEMB     6        POPE     H11R     HDA2A    0.780000E-01   1.00800           0   0.00000       0.00000    
      1006 MEMB     6        POPE     H11S     HDA2A    0.780000E-01   1.00800           0   0.00000       0.00000    
      1007 MEMB     6        POPE     C212     CD32A     2.07980       11.6110           0  -1.66000       1.30000    
      1008 MEMB     6        POPE     DC212    DRUD     -2.23580      0.400000           0   0.00000       0.00000    
      1009 MEMB     6        POPE     H12R     HDA2A    0.780000E-01   1.00800           0   0.00000       0.00000    
      1010 MEMB     6        POPE     H12S     HDA2A    0.780000E-01   1.00800           0   0.00000       0.00000    
      1011 MEMB     6        POPE     C213     CD32A     2.07980       11.6110           0  -1.66000       1.30000    
      1012 MEMB     6        POPE     DC213    DRUD     -2.23580      0.400000           0   0.00000       0.00000    
      1013 MEMB     6        POPE     H13R     HDA2A    0.780000E-01   1.00800           0   0.00000       0.00000    
      1014 MEMB     6        POPE     H13S     HDA2A    0.780000E-01   1.00800           0   0.00000       0.00000    
      1015 MEMB     6        POPE     C214     CD32A     2.07980       11.6110           0  -1.66000       1.30000    
      1016 MEMB     6        POPE     DC214    DRUD     -2.23580      0.400000           0   0.00000       0.00000    
      1017 MEMB     6        POPE     H14R     HDA2A    0.780000E-01   1.00800           0   0.00000       0.00000    
      1018 MEMB     6        POPE     H14S     HDA2A    0.780000E-01   1.00800           0   0.00000       0.00000    
      1019 MEMB     6        POPE     C215     CD32A     2.07980       11.6110           0  -1.66000       1.30000    
      1020 MEMB     6        POPE     DC215    DRUD     -2.23580      0.400000           0   0.00000       0.00000    
      1021 MEMB     6        POPE     H15R     HDA2A    0.780000E-01   1.00800           0   0.00000       0.00000    
      1022 MEMB     6        POPE     H15S     HDA2A    0.780000E-01   1.00800           0   0.00000       0.00000    
      1023 MEMB     6        POPE     C216     CD32A     2.07980       11.6110           0  -1.66000       1.30000    
      1024 MEMB     6        POPE     DC216    DRUD     -2.23580      0.400000           0   0.00000       0.00000    
      1025 MEMB     6        POPE     H16R     HDA2A    0.780000E-01   1.00800           0   0.00000       0.00000    
      1026 MEMB     6        POPE     H16S     HDA2A    0.780000E-01   1.00800           0   0.00000       0.00000    
      1027 MEMB     6        POPE     C217     CD32A     2.07980       11.6110           0  -1.66000       1.30000    
      1028 MEMB     6        POPE     DC217    DRUD     -2.23580      0.400000           0   0.00000       0.00000    
      1029 MEMB     6        POPE     H17R     HDA2A    0.780000E-01   1.00800           0   0.00000       0.00000    
      1030 MEMB     6        POPE     H17S     HDA2A    0.780000E-01   1.00800           0   0.00000       0.00000    
      1031 MEMB     6        POPE     C218     CD33A     2.30820       11.6110           0  -2.05100       1.30000    
      1032 MEMB     6        POPE     DC218    DRUD     -2.48520      0.400000           0   0.00000       0.00000    
      1033 MEMB     6        POPE     H18R     HDA3A    0.590000E-01   1.00800           0   0.00000       0.00000    
      1034 MEMB     6        POPE     H18S     HDA3A    0.590000E-01   1.00800           0   0.00000       0.00000    
      1035 MEMB     6        POPE     H18T     HDA3A    0.590000E-01   1.00800           0   0.00000       0.00000    
      1036 MEMB     6        POPE     C33      CD32A     2.07980       11.6110           0  -1.66000       1.30000    
      1037 MEMB     6        POPE     DC33     DRUD     -2.23580      0.400000           0   0.00000       0.00000    
      1038 MEMB     6        POPE     H3X      HDA2A    0.780000E-01   1.00800           0   0.00000       0.00000    
      1039 MEMB     6        POPE     H3Y      HDA2A    0.780000E-01   1.00800           0   0.00000       0.00000    
      1040 MEMB     6        POPE     C34      CD32A     2.07980       11.6110           0  -1.66000       1.30000    
      1041 MEMB     6        POPE     DC34     DRUD     -2.23580      0.400000           0   0.00000       0.00000    
      1042 MEMB     6        POPE     H4X      HDA2A    0.780000E-01   1.00800           0   0.00000       0.00000    
      1043 MEMB     6        POPE     H4Y      HDA2A    0.780000E-01   1.00800           0   0.00000       0.00000    
      1044 MEMB     6        POPE     C35      CD32A     2.07980       11.6110           0  -1.66000       1.30000    
      1045 MEMB     6        POPE     DC35     DRUD     -2.23580      0.400000           0   0.00000       0.00000    
      1046 MEMB     6        POPE     H5X      HDA2A    0.780000E-01   1.00800           0   0.00000       0.00000    
      1047 MEMB     6        POPE     H5Y      HDA2A    0.780000E-01   1.00800           0   0.00000       0.00000    
      1048 MEMB     6        POPE     C36      CD32A     2.07980       11.6110           0  -1.66000       1.30000    
      1049 MEMB     6        POPE     DC36     DRUD     -2.23580      0.400000           0   0.00000       0.00000    
      1050 MEMB     6        POPE     H6X      HDA2A    0.780000E-01   1.00800           0   0.00000       0.00000    
      1051 MEMB     6        POPE     H6Y      HDA2A    0.780000E-01   1.00800           0   0.00000       0.00000    
      1052 MEMB     6        POPE     C37      CD32A     2.07980       11.6110           0  -1.66000       1.30000    
      1053 MEMB     6        POPE     DC37     DRUD     -2.23580      0.400000           0   0.00000       0.00000    
      1054 MEMB     6        POPE     H7X      HDA2A    0.780000E-01   1.00800           0   0.00000       0.00000    
      1055 MEMB     6        POPE     H7Y      HDA2A    0.780000E-01   1.00800           0   0.00000       0.00000    
      1056 MEMB     6        POPE     C38      CD32A     2.07980       11.6110           0  -1.66000       1.30000    
      1057 MEMB     6        POPE     DC38     DRUD     -2.23580      0.400000           0   0.00000       0.00000    
      1058 MEMB     6        POPE     H8X      HDA2A    0.780000E-01   1.00800           0   0.00000       0.00000    
      1059 MEMB     6        POPE     H8Y      HDA2A    0.780000E-01   1.00800           0   0.00000       0.00000    
      1060 MEMB     6        POPE     C39      CD32A     2.07980       11.6110           0  -1.66000       1.30000    
      1061 MEMB     6        POPE     DC39     DRUD     -2.23580      0.400000           0   0.00000       0.00000    
      1062 MEMB     6        POPE     H9X      HDA2A    0.780000E-01   1.00800           0   0.00000       0.00000    
      1063 MEMB     6        POPE     H9Y      HDA2A    0.780000E-01   1.00800           0   0.00000       0.00000    
      1064 MEMB     6        POPE     C310     CD32A     2.07980       11.6110           0  -1.66000       1.30000    
      1065 MEMB     6        POPE     DC310    DRUD     -2.23580      0.400000           0   0.00000       0.00000    
      1066 MEMB     6        POPE     H10X     HDA2A    0.780000E-01   1.00800           0   0.00000       0.00000    
      1067 MEMB     6        POPE     H10Y     HDA2A    0.780000E-01   1.00800           0   0.00000       0.00000    
      1068 MEMB     6        POPE     C311     CD32A     2.07980       11.6110           0  -1.66000       1.30000    
      1069 MEMB     6        POPE     DC311    DRUD     -2.23580      0.400000           0   0.00000       0.00000    
      1070 MEMB     6        POPE     H11X     HDA2A    0.780000E-01   1.00800           0   0.00000       0.00000    
      1071 MEMB     6        POPE     H11Y     HDA2A    0.780000E-01   1.00800           0   0.00000       0.00000    
      1072 MEMB     6        POPE     C312     CD32A     2.07980       11.6110           0  -1.66000       1.30000    
      1073 MEMB     6        POPE     DC312    DRUD     -2.23580      0.400000           0   0.00000       0.00000    
      1074 MEMB     6        POPE     H12X     HDA2A    0.780000E-01   1.00800           0   0.00000       0.00000    
      1075 MEMB     6        POPE     H12Y     HDA2A    0.780000E-01   1.00800           0   0.00000       0.00000    
      1076 MEMB     6        POPE     C313     CD32A     2.07980       11.6110           0  -1.66000       1.30000    
      1077 MEMB     6        POPE     DC313    DRUD     -2.23580      0.400000           0   0.00000       0.00000    
      1078 MEMB     6        POPE     H13X     HDA2A    0.780000E-01   1.00800           0   0.00000       0.00000    
      1079 MEMB     6        POPE     H13Y     HDA2A    0.780000E-01   1.00800           0   0.00000       0.00000    
      1080 MEMB     6        POPE     C314     CD32A     2.07980       11.6110           0  -1.66000       1.30000    
      1081 MEMB     6        POPE     DC314    DRUD     -2.23580      0.400000           0   0.00000       0.00000    
      1082 MEMB     6        POPE     H14X     HDA2A    0.780000E-01   1.00800           0   0.00000       0.00000    
      1083 MEMB     6        POPE     H14Y     HDA2A    0.780000E-01   1.00800           0   0.00000       0.00000    
      1084 MEMB     6        POPE     C315     CD32A     2.07980       11.6110           0  -1.66000       1.30000    
      1085 MEMB     6        POPE     DC315    DRUD     -2.23580      0.400000           0   0.00000       0.00000    
      1086 MEMB     6        POPE     H15X     HDA2A    0.780000E-01   1.00800           0   0.00000       0.00000    
      1087 MEMB     6        POPE     H15Y     HDA2A    0.780000E-01   1.00800           0   0.00000       0.00000    
      1088 MEMB     6        POPE     C316     CD33A     2.30820       11.6110           0  -2.05100       1.30000    
      1089 MEMB     6        POPE     DC316    DRUD     -2.48520      0.400000           0   0.00000       0.00000    
      1090 MEMB     6        POPE     H16X     HDA3A    0.590000E-01   1.00800           0   0.00000       0.00000    
      1091 MEMB     6        POPE     H16Y     HDA3A    0.590000E-01   1.00800           0   0.00000       0.00000    
      1092 MEMB     6        POPE     H16Z     HDA3A    0.590000E-01   1.00800           0   0.00000       0.00000    
      1093 MEMB     7        POPE     N        ND3P3A    1.62810       13.6070           0  -1.29800      0.895000    
      1094 MEMB     7        POPE     DN       DRUD     -1.97710      0.400000           0   0.00000       0.00000    
      1095 MEMB     7        POPE     HN1      HDP1B    0.340000       1.00800           0   0.00000       0.00000    
      1096 MEMB     7        POPE     HN2      HDP1B    0.340000       1.00800           0   0.00000       0.00000    
      1097 MEMB     7        POPE     HN3      HDP1B    0.340000       1.00800           0   0.00000       0.00000    
      1098 MEMB     7        POPE     C12      CD32A     2.27610       11.6110           0  -1.65600      0.895000    
      1099 MEMB     7        POPE     DC12     DRUD     -2.23310      0.400000           0   0.00000       0.00000    
      1100 MEMB     7        POPE     H12A     HDA2A    0.143000       1.00800           0   0.00000       0.00000    
      1101 MEMB     7        POPE     H12B     HDA2A    0.143000       1.00800           0   0.00000       0.00000    
      1102 MEMB     7        POPE     C11      CD32A     2.42220       11.6110           0  -1.64200      0.862000    
      1103 MEMB     7        POPE     DC11     DRUD     -2.22370      0.400000           0   0.00000       0.00000    
      1104 MEMB     7        POPE     H11A     HDA2A    0.260000E-01   1.00800           0   0.00000       0.00000    
      1105 MEMB     7        POPE     H11B     HDA2A    0.260000E-01   1.00800           0   0.00000       0.00000    
      1106 MEMB     7        POPE     P        PD1A      2.90360       30.5740           0 -0.974000       2.09800    
      1107 MEMB     7        POPE     DP       DRUD     -1.71260      0.400000           0   0.00000       0.00000    
      1108 MEMB     7        POPE     O13      OD2C2B   0.798400       15.5994           0 -0.931000       1.08300    
      1109 MEMB     7        POPE     DO13     DRUD     -1.67440      0.400000           0   0.00000       0.00000    
      1110 MEMB     7        POPE     O14      OD2C2B   0.798400       15.5994           0 -0.931000       1.08300    
      1111 MEMB     7        POPE     DO14     DRUD     -1.67440      0.400000           0   0.00000       0.00000    
      1112 MEMB     7        POPE     O11      OD30B     1.17720       15.5994           0 -0.901000      0.181000    
      1113 MEMB     7        POPE     DO11     DRUD     -1.64720      0.400000           0   0.00000       0.00000    
      1114 MEMB     7        POPE     O12      OD30B     1.17720       15.5994           0 -0.901000      0.181000    
      1115 MEMB     7        POPE     DO12     DRUD     -1.64720      0.400000           0   0.00000       0.00000    
      1116 MEMB     7        POPE     C1       CD32A     2.42220       11.6110           0  -1.64200      0.862000    
      1117 MEMB     7        POPE     DC1      DRUD     -2.22370      0.400000           0   0.00000       0.00000    
      1118 MEMB     7        POPE     HA       HDA2A    0.260000E-01   1.00800           0   0.00000       0.00000    
      1119 MEMB     7        POPE     HB       HDA2A    0.260000E-01   1.00800           0   0.00000       0.00000    
      1120 MEMB     7        POPE     C2       CD31C     2.52830       11.6110           0  -1.79700      0.410000    
      1121 MEMB     7        POPE     DC2      DRUD     -2.32630      0.400000           0   0.00000       0.00000    
      1122 MEMB     7        POPE     HS       HDA1A    0.116000       1.00800           0   0.00000       0.00000    
      1123 MEMB     7        POPE     O21      OD30CL    1.48470       15.5994           0 -0.732000      0.601000    
      1124 MEMB     7        POPE     DO21     DRUD     -1.48470      0.400000           0   0.00000       0.00000    
      1125 MEMB     7        POPE     C21      CD2O3B    2.72820       11.6110           0  -1.37000       1.74700    
      1126 MEMB     7        POPE     DC21     DRUD     -2.03120      0.400000           0   0.00000       0.00000    
      1127 MEMB     7        POPE     O22      OD2C3B    1.64990       15.5994           0 -0.904000      0.565000    
      1128 MEMB     7        POPE     DO22     DRUD     -1.64990      0.400000           0   0.00000       0.00000    
      1129 MEMB     7        POPE     C22      CD32C     2.24380       11.6110           0  -1.99300      0.410000    
      1130 MEMB     7        POPE     DC22     DRUD     -2.44980      0.400000           0   0.00000       0.00000    
      1131 MEMB     7        POPE     H2R      HDA2A    0.690000E-01   1.00800           0   0.00000       0.00000    
      1132 MEMB     7        POPE     H2S      HDA2A    0.690000E-01   1.00800           0   0.00000       0.00000    
      1133 MEMB     7        POPE     LP1A     LPD     -0.349000       0.00000          -1   0.00000       0.00000    
      1134 MEMB     7        POPE     LP1B     LPD     -0.258000       0.00000          -1   0.00000       0.00000    
      1135 MEMB     7        POPE     LPMA     LPD     -0.170000       0.00000          -1   0.00000       0.00000    
      1136 MEMB     7        POPE     LPMB     LPD     -0.170000       0.00000          -1   0.00000       0.00000    
      1137 MEMB     7        POPE     C3       CD32C     2.41230       11.6110           0  -1.79700      0.410000    
      1138 MEMB     7        POPE     DC3      DRUD     -2.32630      0.400000           0   0.00000       0.00000    
      1139 MEMB     7        POPE     HX       HDA2A    0.116000       1.00800           0   0.00000       0.00000    
      1140 MEMB     7        POPE     HY       HDA2A    0.116000       1.00800           0   0.00000       0.00000    
      1141 MEMB     7        POPE     O31      OD30CL    1.48470       15.5994           0 -0.732000      0.601000    
      1142 MEMB     7        POPE     DO31     DRUD     -1.48470      0.400000           0   0.00000       0.00000    
      1143 MEMB     7        POPE     C31      CD2O3B    2.72820       11.6110           0  -1.37000       1.74700    
      1144 MEMB     7        POPE     DC31     DRUD     -2.03120      0.400000           0   0.00000       0.00000    
      1145 MEMB     7        POPE     O32      OD2C3B    1.64990       15.5994           0 -0.904000      0.565000    
      1146 MEMB     7        POPE     DO32     DRUD     -1.64990      0.400000           0   0.00000       0.00000    
      1147 MEMB     7        POPE     C32      CD32C     2.24380       11.6110           0  -1.99300      0.410000    
      1148 MEMB     7        POPE     DC32     DRUD     -2.44980      0.400000           0   0.00000       0.00000    
      1149 MEMB     7        POPE     H2X      HDA2A    0.690000E-01   1.00800           0   0.00000       0.00000    
      1150 MEMB     7        POPE     H2Y      HDA2A    0.690000E-01   1.00800           0   0.00000       0.00000    
      1151 MEMB     7        POPE     LP1C     LPD     -0.349000       0.00000          -1   0.00000       0.00000    
      1152 MEMB     7        POPE     LP1D     LPD     -0.258000       0.00000          -1   0.00000       0.00000    
      1153 MEMB     7        POPE     LPMC     LPD     -0.170000       0.00000          -1   0.00000       0.00000    
      1154 MEMB     7        POPE     LPMD     LPD     -0.170000       0.00000          -1   0.00000       0.00000    
      1155 MEMB     7        POPE     C23      CD32A     2.07980       11.6110           0  -1.66000       1.30000    
      1156 MEMB     7        POPE     DC23     DRUD     -2.23580      0.400000           0   0.00000       0.00000    
      1157 MEMB     7        POPE     H3R      HDA2A    0.780000E-01   1.00800           0   0.00000       0.00000    
      1158 MEMB     7        POPE     H3S      HDA2A    0.780000E-01   1.00800           0   0.00000       0.00000    
      1159 MEMB     7        POPE     C24      CD32A     2.07980       11.6110           0  -1.66000       1.30000    
      1160 MEMB     7        POPE     DC24     DRUD     -2.23580      0.400000           0   0.00000       0.00000    
      1161 MEMB     7        POPE     H4R      HDA2A    0.780000E-01   1.00800           0   0.00000       0.00000    
      1162 MEMB     7        POPE     H4S      HDA2A    0.780000E-01   1.00800           0   0.00000       0.00000    
      1163 MEMB     7        POPE     C25      CD32A     2.07980       11.6110           0  -1.66000       1.30000    
      1164 MEMB     7        POPE     DC25     DRUD     -2.23580      0.400000           0   0.00000       0.00000    
      1165 MEMB     7        POPE     H5R      HDA2A    0.780000E-01   1.00800           0   0.00000       0.00000    
      1166 MEMB     7        POPE     H5S      HDA2A    0.780000E-01   1.00800           0   0.00000       0.00000    
      1167 MEMB     7        POPE     C26      CD32A     2.07980       11.6110           0  -1.66000       1.30000    
      1168 MEMB     7        POPE     DC26     DRUD     -2.23580      0.400000           0   0.00000       0.00000    
      1169 MEMB     7        POPE     H6R      HDA2A    0.780000E-01   1.00800           0   0.00000       0.00000    
      1170 MEMB     7        POPE     H6S      HDA2A    0.780000E-01   1.00800           0   0.00000       0.00000    
      1171 MEMB     7        POPE     C27      CD32A     2.07980       11.6110           0  -1.66000       1.30000    
      1172 MEMB     7        POPE     DC27     DRUD     -2.23580      0.400000           0   0.00000       0.00000    
      1173 MEMB     7        POPE     H7R      HDA2A    0.780000E-01   1.00800           0   0.00000       0.00000    
      1174 MEMB     7        POPE     H7S      HDA2A    0.780000E-01   1.00800           0   0.00000       0.00000    
      1175 MEMB     7        POPE     C28      CD32A     2.07980       11.6110           0  -1.66000       1.30000    
      1176 MEMB     7        POPE     DC28     DRUD     -2.23580      0.400000           0   0.00000       0.00000    
      1177 MEMB     7        POPE     H8R      HDA2A    0.780000E-01   1.00800           0   0.00000       0.00000    
      1178 MEMB     7        POPE     H8S      HDA2A    0.780000E-01   1.00800           0   0.00000       0.00000    
      1179 MEMB     7        POPE     C29      CD2C1A    2.33700       11.6110           0  -1.99000      0.750000    
      1180 MEMB     7        POPE     DC29     DRUD     -2.44800      0.400000           0   0.00000       0.00000    
      1181 MEMB     7        POPE     H91      HD2C1A   0.111000       1.00800           0   0.00000       0.00000    
      1182 MEMB     7        POPE     C210     CD2C1A    2.33700       11.6110           0  -1.99000      0.750000    
      1183 MEMB     7        POPE     DC210    DRUD     -2.44800      0.400000           0   0.00000       0.00000    
      1184 MEMB     7        POPE     H101     HD2C1A   0.111000       1.00800           0   0.00000       0.00000    
      1185 MEMB     7        POPE     C211     CD32A     2.07980       11.6110           0  -1.66000       1.30000    
      1186 MEMB     7        POPE     DC211    DRUD     -2.23580      0.400000           0   0.00000       0.00000    
      1187 MEMB     7        POPE     H11R     HDA2A    0.780000E-01   1.00800           0   0.00000       0.00000    
      1188 MEMB     7        POPE     H11S     HDA2A    0.780000E-01   1.00800           0   0.00000       0.00000    
      1189 MEMB     7        POPE     C212     CD32A     2.07980       11.6110           0  -1.66000       1.30000    
      1190 MEMB     7        POPE     DC212    DRUD     -2.23580      0.400000           0   0.00000       0.00000    
      1191 MEMB     7        POPE     H12R     HDA2A    0.780000E-01   1.00800           0   0.00000       0.00000    
      1192 MEMB     7        POPE     H12S     HDA2A    0.780000E-01   1.00800           0   0.00000       0.00000    
      1193 MEMB     7        POPE     C213     CD32A     2.07980       11.6110           0  -1.66000       1.30000    
      1194 MEMB     7        POPE     DC213    DRUD     -2.23580      0.400000           0   0.00000       0.00000    
      1195 MEMB     7        POPE     H13R     HDA2A    0.780000E-01   1.00800           0   0.00000       0.00000    
      1196 MEMB     7        POPE     H13S     HDA2A    0.780000E-01   1.00800           0   0.00000       0.00000    
      1197 MEMB     7        POPE     C214     CD32A     2.07980       11.6110           0  -1.66000       1.30000    
      1198 MEMB     7        POPE     DC214    DRUD     -2.23580      0.400000           0   0.00000       0.00000    
      1199 MEMB     7        POPE     H14R     HDA2A    0.780000E-01   1.00800           0   0.00000       0.00000    
      1200 MEMB     7        POPE     H14S     HDA2A    0.780000E-01   1.00800           0   0.00000       0.00000    
      1201 MEMB     7        POPE     C215     CD32A     2.07980       11.6110           0  -1.66000       1.30000    
      1202 MEMB     7        POPE     DC215    DRUD     -2.23580      0.400000           0   0.00000       0.00000    
      1203 MEMB     7        POPE     H15R     HDA2A    0.780000E-01   1.00800           0   0.00000       0.00000    
      1204 MEMB     7        POPE     H15S     HDA2A    0.780000E-01   1.00800           0   0.00000       0.00000    
      1205 MEMB     7        POPE     C216     CD32A     2.07980       11.6110           0  -1.66000       1.30000    
      1206 MEMB     7        POPE     DC216    DRUD     -2.23580      0.400000           0   0.00000       0.00000    
      1207 MEMB     7        POPE     H16R     HDA2A    0.780000E-01   1.00800           0   0.00000       0.00000    
      1208 MEMB     7        POPE     H16S     HDA2A    0.780000E-01   1.00800           0   0.00000       0.00000    
      1209 MEMB     7        POPE     C217     CD32A     2.07980       11.6110           0  -1.66000       1.30000    
      1210 MEMB     7        POPE     DC217    DRUD     -2.23580      0.400000           0   0.00000       0.00000    
      1211 MEMB     7        POPE     H17R     HDA2A    0.780000E-01   1.00800           0   0.00000       0.00000    
      1212 MEMB     7        POPE     H17S     HDA2A    0.780000E-01   1.00800           0   0.00000       0.00000    
      1213 MEMB     7        POPE     C218     CD33A     2.30820       11.6110           0  -2.05100       1.30000    
      1214 MEMB     7        POPE     DC218    DRUD     -2.48520      0.400000           0   0.00000       0.00000    
      1215 MEMB     7        POPE     H18R     HDA3A    0.590000E-01   1.00800           0   0.00000       0.00000    
      1216 MEMB     7        POPE     H18S     HDA3A    0.590000E-01   1.00800           0   0.00000       0.00000    
      1217 MEMB     7        POPE     H18T     HDA3A    0.590000E-01   1.00800           0   0.00000       0.00000    
      1218 MEMB     7        POPE     C33      CD32A     2.07980       11.6110           0  -1.66000       1.30000    
      1219 MEMB     7        POPE     DC33     DRUD     -2.23580      0.400000           0   0.00000       0.00000    
      1220 MEMB     7        POPE     H3X      HDA2A    0.780000E-01   1.00800           0   0.00000       0.00000    
      1221 MEMB     7        POPE     H3Y      HDA2A    0.780000E-01   1.00800           0   0.00000       0.00000    
      1222 MEMB     7        POPE     C34      CD32A     2.07980       11.6110           0  -1.66000       1.30000    
      1223 MEMB     7        POPE     DC34     DRUD     -2.23580      0.400000           0   0.00000       0.00000    
      1224 MEMB     7        POPE     H4X      HDA2A    0.780000E-01   1.00800           0   0.00000       0.00000    
      1225 MEMB     7        POPE     H4Y      HDA2A    0.780000E-01   1.00800           0   0.00000       0.00000    
      1226 MEMB     7        POPE     C35      CD32A     2.07980       11.6110           0  -1.66000       1.30000    
      1227 MEMB     7        POPE     DC35     DRUD     -2.23580      0.400000           0   0.00000       0.00000    
      1228 MEMB     7        POPE     H5X      HDA2A    0.780000E-01   1.00800           0   0.00000       0.00000    
      1229 MEMB     7        POPE     H5Y      HDA2A    0.780000E-01   1.00800           0   0.00000       0.00000    
      1230 MEMB     7        POPE     C36      CD32A     2.07980       11.6110           0  -1.66000       1.30000    
      1231 MEMB     7        POPE     DC36     DRUD     -2.23580      0.400000           0   0.00000       0.00000    
      1232 MEMB     7        POPE     H6X      HDA2A    0.780000E-01   1.00800           0   0.00000       0.00000    
      1233 MEMB     7        POPE     H6Y      HDA2A    0.780000E-01   1.00800           0   0.00000       0.00000    
      1234 MEMB     7        POPE     C37      CD32A     2.07980       11.6110           0  -1.66000       1.30000    
      1235 MEMB     7        POPE     DC37     DRUD     -2.23580      0.400000           0   0.00000       0.00000    
      1236 MEMB     7        POPE     H7X      HDA2A    0.780000E-01   1.00800           0   0.00000       0.00000    
      1237 MEMB     7        POPE     H7Y      HDA2A    0.780000E-01   1.00800           0   0.00000       0.00000    
      1238 MEMB     7        POPE     C38      CD32A     2.07980       11.6110           0  -1.66000       1.30000    
      1239 MEMB     7        POPE     DC38     DRUD     -2.23580      0.400000           0   0.00000       0.00000    
      1240 MEMB     7        POPE     H8X      HDA2A    0.780000E-01   1.00800           0   0.00000       0.00000    
      1241 MEMB     7        POPE     H8Y      HDA2A    0.780000E-01   1.00800           0   0.00000       0.00000    
      1242 MEMB     7        POPE     C39      CD32A     2.07980       11.6110           0  -1.66000       1.30000    
      1243 MEMB     7        POPE     DC39     DRUD     -2.23580      0.400000           0   0.00000       0.00000    
      1244 MEMB     7        POPE     H9X      HDA2A    0.780000E-01   1.00800           0   0.00000       0.00000    
      1245 MEMB     7        POPE     H9Y      HDA2A    0.780000E-01   1.00800           0   0.00000       0.00000    
      1246 MEMB     7        POPE     C310     CD32A     2.07980       11.6110           0  -1.66000       1.30000    
      1247 MEMB     7        POPE     DC310    DRUD     -2.23580      0.400000           0   0.00000       0.00000    
      1248 MEMB     7        POPE     H10X     HDA2A    0.780000E-01   1.00800           0   0.00000       0.00000    
      1249 MEMB     7        POPE     H10Y     HDA2A    0.780000E-01   1.00800           0   0.00000       0.00000    
      1250 MEMB     7        POPE     C311     CD32A     2.07980       11.6110           0  -1.66000       1.30000    
      1251 MEMB     7        POPE     DC311    DRUD     -2.23580      0.400000           0   0.00000       0.00000    
      1252 MEMB     7        POPE     H11X     HDA2A    0.780000E-01   1.00800           0   0.00000       0.00000    
      1253 MEMB     7        POPE     H11Y     HDA2A    0.780000E-01   1.00800           0   0.00000       0.00000    
      1254 MEMB     7        POPE     C312     CD32A     2.07980       11.6110           0  -1.66000       1.30000    
      1255 MEMB     7        POPE     DC312    DRUD     -2.23580      0.400000           0   0.00000       0.00000    
      1256 MEMB     7        POPE     H12X     HDA2A    0.780000E-01   1.00800           0   0.00000       0.00000    
      1257 MEMB     7        POPE     H12Y     HDA2A    0.780000E-01   1.00800           0   0.00000       0.00000    
      1258 MEMB     7        POPE     C313     CD32A     2.07980       11.6110           0  -1.66000       1.30000    
      1259 MEMB     7        POPE     DC313    DRUD     -2.23580      0.400000           0   0.00000       0.00000    
      1260 MEMB     7        POPE     H13X     HDA2A    0.780000E-01   1.00800           0   0.00000       0.00000    
      1261 MEMB     7        POPE     H13Y     HDA2A    0.780000E-01   1.00800           0   0.00000       0.00000    
      1262 MEMB     7        POPE     C314     CD32A     2.07980       11.6110           0  -1.66000       1.30000    
      1263 MEMB     7        POPE     DC314    DRUD     -2.23580      0.400000           0   0.00000       0.00000    
      1264 MEMB     7        POPE     H14X     HDA2A    0.780000E-01   1.00800           0   0.00000       0.00000    
      1265 MEMB     7        POPE     H14Y     HDA2A    0.780000E-01   1.00800           0   0.00000       0.00000    
      1266 MEMB     7        POPE     C315     CD32A     2.07980       11.6110           0  -1.66000       1.30000    
      1267 MEMB     7        POPE     DC315    DRUD     -2.23580      0.400000           0   0.00000       0.00000    
      1268 MEMB     7        POPE     H15X     HDA2A    0.780000E-01   1.00800           0   0.00000       0.00000    
      1269 MEMB     7        POPE     H15Y     HDA2A    0.780000E-01   1.00800           0   0.00000       0.00000    
      1270 MEMB     7        POPE     C316     CD33A     2.30820       11.6110           0  -2.05100       1.30000    
      1271 MEMB     7        POPE     DC316    DRUD     -2.48520      0.400000           0   0.00000       0.00000    
      1272 MEMB     7        POPE     H16X     HDA3A    0.590000E-01   1.00800           0   0.00000       0.00000    
      1273 MEMB     7        POPE     H16Y     HDA3A    0.590000E-01   1.00800           0   0.00000       0.00000    
      1274 MEMB     7        POPE     H16Z     HDA3A    0.590000E-01   1.00800           0   0.00000       0.00000    
      1275 MEMB     8        POPE     N        ND3P3A    1.62810       13.6070           0  -1.29800      0.895000    
      1276 MEMB     8        POPE     DN       DRUD     -1.97710      0.400000           0   0.00000       0.00000    
      1277 MEMB     8        POPE     HN1      HDP1B    0.340000       1.00800           0   0.00000       0.00000    
      1278 MEMB     8        POPE     HN2      HDP1B    0.340000       1.00800           0   0.00000       0.00000    
      1279 MEMB     8        POPE     HN3      HDP1B    0.340000       1.00800           0   0.00000       0.00000    
      1280 MEMB     8        POPE     C12      CD32A     2.27610       11.6110           0  -1.65600      0.895000    
      1281 MEMB     8        POPE     DC12     DRUD     -2.23310      0.400000           0   0.00000       0.00000    
      1282 MEMB     8        POPE     H12A     HDA2A    0.143000       1.00800           0   0.00000       0.00000    
      1283 MEMB     8        POPE     H12B     HDA2A    0.143000       1.00800           0   0.00000       0.00000    
      1284 MEMB     8        POPE     C11      CD32A     2.42220       11.6110           0  -1.64200      0.862000    
      1285 MEMB     8        POPE     DC11     DRUD     -2.22370      0.400000           0   0.00000       0.00000    
      1286 MEMB     8        POPE     H11A     HDA2A    0.260000E-01   1.00800           0   0.00000       0.00000    
      1287 MEMB     8        POPE     H11B     HDA2A    0.260000E-01   1.00800           0   0.00000       0.00000    
      1288 MEMB     8        POPE     P        PD1A      2.90360       30.5740           0 -0.974000       2.09800    
      1289 MEMB     8        POPE     DP       DRUD     -1.71260      0.400000           0   0.00000       0.00000    
      1290 MEMB     8        POPE     O13      OD2C2B   0.798400       15.5994           0 -0.931000       1.08300    
      1291 MEMB     8        POPE     DO13     DRUD     -1.67440      0.400000           0   0.00000       0.00000    
      1292 MEMB     8        POPE     O14      OD2C2B   0.798400       15.5994           0 -0.931000       1.08300    
      1293 MEMB     8        POPE     DO14     DRUD     -1.67440      0.400000           0   0.00000       0.00000    
      1294 MEMB     8        POPE     O11      OD30B     1.17720       15.5994           0 -0.901000      0.181000    
      1295 MEMB     8        POPE     DO11     DRUD     -1.64720      0.400000           0   0.00000       0.00000    
      1296 MEMB     8        POPE     O12      OD30B     1.17720       15.5994           0 -0.901000      0.181000    
      1297 MEMB     8        POPE     DO12     DRUD     -1.64720      0.400000           0   0.00000       0.00000    
      1298 MEMB     8        POPE     C1       CD32A     2.42220       11.6110           0  -1.64200      0.862000    
      1299 MEMB     8        POPE     DC1      DRUD     -2.22370      0.400000           0   0.00000       0.00000    
      1300 MEMB     8        POPE     HA       HDA2A    0.260000E-01   1.00800           0   0.00000       0.00000    
      1301 MEMB     8        POPE     HB       HDA2A    0.260000E-01   1.00800           0   0.00000       0.00000    
      1302 MEMB     8        POPE     C2       CD31C     2.52830       11.6110           0  -1.79700      0.410000    
      1303 MEMB     8        POPE     DC2      DRUD     -2.32630      0.400000           0   0.00000       0.00000    
      1304 MEMB     8        POPE     HS       HDA1A    0.116000       1.00800           0   0.00000       0.00000    
      1305 MEMB     8        POPE     O21      OD30CL    1.48470       15.5994           0 -0.732000      0.601000    
      1306 MEMB     8        POPE     DO21     DRUD     -1.48470      0.400000           0   0.00000       0.00000    
      1307 MEMB     8        POPE     C21      CD2O3B    2.72820       11.6110           0  -1.37000       1.74700    
      1308 MEMB     8        POPE     DC21     DRUD     -2.03120      0.400000           0   0.00000       0.00000    
      1309 MEMB     8        POPE     O22      OD2C3B    1.64990       15.5994           0 -0.904000      0.565000    
      1310 MEMB     8        POPE     DO22     DRUD     -1.64990      0.400000           0   0.00000       0.00000    
      1311 MEMB     8        POPE     C22      CD32C     2.24380       11.6110           0  -1.99300      0.410000    
      1312 MEMB     8        POPE     DC22     DRUD     -2.44980      0.400000           0   0.00000       0.00000    
      1313 MEMB     8        POPE     H2R      HDA2A    0.690000E-01   1.00800           0   0.00000       0.00000    
      1314 MEMB     8        POPE     H2S      HDA2A    0.690000E-01   1.00800           0   0.00000       0.00000    
      1315 MEMB     8        POPE     LP1A     LPD     -0.349000       0.00000          -1   0.00000       0.00000    
      1316 MEMB     8        POPE     LP1B     LPD     -0.258000       0.00000          -1   0.00000       0.00000    
      1317 MEMB     8        POPE     LPMA     LPD     -0.170000       0.00000          -1   0.00000       0.00000    
      1318 MEMB     8        POPE     LPMB     LPD     -0.170000       0.00000          -1   0.00000       0.00000    
      1319 MEMB     8        POPE     C3       CD32C     2.41230       11.6110           0  -1.79700      0.410000    
      1320 MEMB     8        POPE     DC3      DRUD     -2.32630      0.400000           0   0.00000       0.00000    
      1321 MEMB     8        POPE     HX       HDA2A    0.116000       1.00800           0   0.00000       0.00000    
      1322 MEMB     8        POPE     HY       HDA2A    0.116000       1.00800           0   0.00000       0.00000    
      1323 MEMB     8        POPE     O31      OD30CL    1.48470       15.5994           0 -0.732000      0.601000    
      1324 MEMB     8        POPE     DO31     DRUD     -1.48470      0.400000           0   0.00000       0.00000    
      1325 MEMB     8        POPE     C31      CD2O3B    2.72820       11.6110           0  -1.37000       1.74700    
      1326 MEMB     8        POPE     DC31     DRUD     -2.03120      0.400000           0   0.00000       0.00000    
      1327 MEMB     8        POPE     O32      OD2C3B    1.64990       15.5994           0 -0.904000      0.565000    
      1328 MEMB     8        POPE     DO32     DRUD     -1.64990      0.400000           0   0.00000       0.00000    
      1329 MEMB     8        POPE     C32      CD32C     2.24380       11.6110           0  -1.99300      0.410000    
      1330 MEMB     8        POPE     DC32     DRUD     -2.44980      0.400000           0   0.00000       0.00000    
      1331 MEMB     8        POPE     H2X      HDA2A    0.690000E-01   1.00800           0   0.00000       0.00000    
      1332 MEMB     8        POPE     H2Y      HDA2A    0.690000E-01   1.00800           0   0.00000       0.00000    
      1333 MEMB     8        POPE     LP1C     LPD     -0.349000       0.00000          -1   0.00000       0.00000    
      1334 MEMB     8        POPE     LP1D     LPD     -0.258000       0.00000          -1   0.00000       0.00000    
      1335 MEMB     8        POPE     LPMC     LPD     -0.170000       0.00000          -1   0.00000       0.00000    
      1336 MEMB     8        POPE     LPMD     LPD     -0.170000       0.00000          -1   0.00000       0.00000    
      1337 MEMB     8        POPE     C23      CD32A     2.07980       11.6110           0  -1.66000       1.30000    
      1338 MEMB     8        POPE     DC23     DRUD     -2.23580      0.400000           0   0.00000       0.00000    
      1339 MEMB     8        POPE     H3R      HDA2A    0.780000E-01   1.00800           0   0.00000       0.00000    
      1340 MEMB     8        POPE     H3S      HDA2A    0.780000E-01   1.00800           0   0.00000       0.00000    
      1341 MEMB     8        POPE     C24      CD32A     2.07980       11.6110           0  -1.66000       1.30000    
      1342 MEMB     8        POPE     DC24     DRUD     -2.23580      0.400000           0   0.00000       0.00000    
      1343 MEMB     8        POPE     H4R      HDA2A    0.780000E-01   1.00800           0   0.00000       0.00000    
      1344 MEMB     8        POPE     H4S      HDA2A    0.780000E-01   1.00800           0   0.00000       0.00000    
      1345 MEMB     8        POPE     C25      CD32A     2.07980       11.6110           0  -1.66000       1.30000    
      1346 MEMB     8        POPE     DC25     DRUD     -2.23580      0.400000           0   0.00000       0.00000    
      1347 MEMB     8        POPE     H5R      HDA2A    0.780000E-01   1.00800           0   0.00000       0.00000    
      1348 MEMB     8        POPE     H5S      HDA2A    0.780000E-01   1.00800           0   0.00000       0.00000    
      1349 MEMB     8        POPE     C26      CD32A     2.07980       11.6110           0  -1.66000       1.30000    
      1350 MEMB     8        POPE     DC26     DRUD     -2.23580      0.400000           0   0.00000       0.00000    
      1351 MEMB     8        POPE     H6R      HDA2A    0.780000E-01   1.00800           0   0.00000       0.00000    
      1352 MEMB     8        POPE     H6S      HDA2A    0.780000E-01   1.00800           0   0.00000       0.00000    
      1353 MEMB     8        POPE     C27      CD32A     2.07980       11.6110           0  -1.66000       1.30000    
      1354 MEMB     8        POPE     DC27     DRUD     -2.23580      0.400000           0   0.00000       0.00000    
      1355 MEMB     8        POPE     H7R      HDA2A    0.780000E-01   1.00800           0   0.00000       0.00000    
      1356 MEMB     8        POPE     H7S      HDA2A    0.780000E-01   1.00800           0   0.00000       0.00000    
      1357 MEMB     8        POPE     C28      CD32A     2.07980       11.6110           0  -1.66000       1.30000    
      1358 MEMB     8        POPE     DC28     DRUD     -2.23580      0.400000           0   0.00000       0.00000    
      1359 MEMB     8        POPE     H8R      HDA2A    0.780000E-01   1.00800           0   0.00000       0.00000    
      1360 MEMB     8        POPE     H8S      HDA2A    0.780000E-01   1.00800           0   0.00000       0.00000    
      1361 MEMB     8        POPE     C29      CD2C1A    2.33700       11.6110           0  -1.99000      0.750000    
      1362 MEMB     8        POPE     DC29     DRUD     -2.44800      0.400000           0   0.00000       0.00000    
      1363 MEMB     8        POPE     H91      HD2C1A   0.111000       1.00800           0   0.00000       0.00000    
      1364 MEMB     8        POPE     C210     CD2C1A    2.33700       11.6110           0  -1.99000      0.750000    
      1365 MEMB     8        POPE     DC210    DRUD     -2.44800      0.400000           0   0.00000       0.00000    
      1366 MEMB     8        POPE     H101     HD2C1A   0.111000       1.00800           0   0.00000       0.00000    
      1367 MEMB     8        POPE     C211     CD32A     2.07980       11.6110           0  -1.66000       1.30000    
      1368 MEMB     8        POPE     DC211    DRUD     -2.23580      0.400000           0   0.00000       0.00000    
      1369 MEMB     8        POPE     H11R     HDA2A    0.780000E-01   1.00800           0   0.00000       0.00000    
      1370 MEMB     8        POPE     H11S     HDA2A    0.780000E-01   1.00800           0   0.00000       0.00000    
      1371 MEMB     8        POPE     C212     CD32A     2.07980       11.6110           0  -1.66000       1.30000    
      1372 MEMB     8        POPE     DC212    DRUD     -2.23580      0.400000           0   0.00000       0.00000    
      1373 MEMB     8        POPE     H12R     HDA2A    0.780000E-01   1.00800           0   0.00000       0.00000    
      1374 MEMB     8        POPE     H12S     HDA2A    0.780000E-01   1.00800           0   0.00000       0.00000    
      1375 MEMB     8        POPE     C213     CD32A     2.07980       11.6110           0  -1.66000       1.30000    
      1376 MEMB     8        POPE     DC213    DRUD     -2.23580      0.400000           0   0.00000       0.00000    
      1377 MEMB     8        POPE     H13R     HDA2A    0.780000E-01   1.00800           0   0.00000       0.00000    
      1378 MEMB     8        POPE     H13S     HDA2A    0.780000E-01   1.00800           0   0.00000       0.00000    
      1379 MEMB     8        POPE     C214     CD32A     2.07980       11.6110           0  -1.66000       1.30000    
      1380 MEMB     8        POPE     DC214    DRUD     -2.23580      0.400000           0   0.00000       0.00000    
      1381 MEMB     8        POPE     H14R     HDA2A    0.780000E-01   1.00800           0   0.00000       0.00000    
      1382 MEMB     8        POPE     H14S     HDA2A    0.780000E-01   1.00800           0   0.00000       0.00000    
      1383 MEMB     8        POPE     C215     CD32A     2.07980       11.6110           0  -1.66000       1.30000    
      1384 MEMB     8        POPE     DC215    DRUD     -2.23580      0.400000           0   0.00000       0.00000    
      1385 MEMB     8        POPE     H15R     HDA2A    0.780000E-01   1.00800           0   0.00000       0.00000    
      1386 MEMB     8        POPE     H15S     HDA2A    0.780000E-01   1.00800           0   0.00000       0.00000    
      1387 MEMB     8        POPE     C216     CD32A     2.07980       11.6110           0  -1.66000       1.30000    
      1388 MEMB     8        POPE     DC216    DRUD     -2.23580      0.400000           0   0.00000       0.00000    
      1389 MEMB     8        POPE     H16R     HDA2A    0.780000E-01   1.00800           0   0.00000       0.00000    
      1390 MEMB     8        POPE     H16S     HDA2A    0.780000E-01   1.00800           0   0.00000       0.00000    
      1391 MEMB     8        POPE     C217     CD32A     2.07980       11.6110           0  -1.66000       1.30000    
      1392 MEMB     8        POPE     DC217    DRUD     -2.23580      0.400000           0   0.00000       0.00000    
      1393 MEMB     8        POPE     H17R     HDA2A    0.780000E-01   1.00800           0   0.00000       0.00000    
      1394 MEMB     8        POPE     H17S     HDA2A    0.780000E-01   1.00800           0   0.00000       0.00000    
      1395 MEMB     8        POPE     C218     CD33A     2.30820       11.6110           0  -2.05100       1.30000    
      1396 MEMB     8        POPE     DC218    DRUD     -2.48520      0.400000           0   0.00000       0.00000    
      1397 MEMB     8        POPE     H18R     HDA3A    0.590000E-01   1.00800           0   0.00000       0.00000    
      1398 MEMB     8        POPE     H18S     HDA3A    0.590000E-01   1.00800           0   0.00000       0.00000    
      1399 MEMB     8        POPE     H18T     HDA3A    0.590000E-01   1.00800           0   0.00000       0.00000    
      1400 MEMB     8        POPE     C33      CD32A     2.07980       11.6110           0  -1.66000       1.30000    
      1401 MEMB     8        POPE     DC33     DRUD     -2.23580      0.400000           0   0.00000       0.00000    
      1402 MEMB     8        POPE     H3X      HDA2A    0.780000E-01   1.00800           0   0.00000       0.00000    
      1403 MEMB     8        POPE     H3Y      HDA2A    0.780000E-01   1.00800           0   0.00000       0.00000    
      1404 MEMB     8        POPE     C34      CD32A     2.07980       11.6110           0  -1.66000       1.30000    
      1405 MEMB     8        POPE     DC34     DRUD     -2.23580      0.400000           0   0.00000       0.00000    
      1406 MEMB     8        POPE     H4X      HDA2A    0.780000E-01   1.00800           0   0.00000       0.00000    
      1407 MEMB     8        POPE     H4Y      HDA2A    0.780000E-01   1.00800           0   0.00000       0.00000    
      1408 MEMB     8        POPE     C35      CD32A     2.07980       11.6110           0  -1.66000       1.30000    
      1409 MEMB     8        POPE     DC35     DRUD     -2.23580      0.400000           0   0.00000       0.00000    
      1410 MEMB     8        POPE     H5X      HDA2A    0.780000E-01   1.00800           0   0.00000       0.00000    
      1411 MEMB     8        POPE     H5Y      HDA2A    0.780000E-01   1.00800           0   0.00000       0.00000    
      1412 MEMB     8        POPE     C36      CD32A     2.07980       11.6110           0  -1.66000       1.30000    
      1413 MEMB     8        POPE     DC36     DRUD     -2.23580      0.400000           0   0.00000       0.00000    
      1414 MEMB     8        POPE     H6X      HDA2A    0.780000E-01   1.00800           0   0.00000       0.00000    
      1415 MEMB     8        POPE     H6Y      HDA2A    0.780000E-01   1.00800           0   0.00000       0.00000    
      1416 MEMB     8        POPE     C37      CD32A     2.07980       11.6110           0  -1.66000       1.30000    
      1417 MEMB     8        POPE     DC37     DRUD     -2.23580      0.400000           0   0.00000       0.00000    
      1418 MEMB     8        POPE     H7X      HDA2A    0.780000E-01   1.00800           0   0.00000       0.00000    
      1419 MEMB     8        POPE     H7Y      HDA2A    0.780000E-01   1.00800           0   0.00000       0.00000    
      1420 MEMB     8        POPE     C38      CD32A     2.07980       11.6110           0  -1.66000       1.30000    
      1421 MEMB     8        POPE     DC38     DRUD     -2.23580      0.400000           0   0.00000       0.00000    
      1422 MEMB     8        POPE     H8X      HDA2A    0.780000E-01   1.00800           0   0.00000       0.00000    
      1423 MEMB     8        POPE     H8Y      HDA2A    0.780000E-01   1.00800           0   0.00000       0.00000    
      1424 MEMB     8        POPE     C39      CD32A     2.07980       11.6110           0  -1.66000       1.30000    
      1425 MEMB     8        POPE     DC39     DRUD     -2.23580      0.400000           0   0.00000       0.00000    
      1426 MEMB     8        POPE     H9X      HDA2A    0.780000E-01   1.00800           0   0.00000       0.00000    
      1427 MEMB     8        POPE     H9Y      HDA2A    0.780000E-01   1.00800           0   0.00000       0.00000    
      1428 MEMB     8        POPE     C310     CD32A     2.07980       11.6110           0  -1.66000       1.30000    
      1429 MEMB     8        POPE     DC310    DRUD     -2.23580      0.400000           0   0.00000       0.00000    
      1430 MEMB     8        POPE     H10X     HDA2A    0.780000E-01   1.00800           0   0.00000       0.00000    
      1431 MEMB     8        POPE     H10Y     HDA2A    0.780000E-01   1.00800           0   0.00000       0.00000    
      1432 MEMB     8        POPE     C311     CD32A     2.07980       11.6110           0  -1.66000       1.30000    
      1433 MEMB     8        POPE     DC311    DRUD     -2.23580      0.400000           0   0.00000       0.00000    
      1434 MEMB     8        POPE     H11X     HDA2A    0.780000E-01   1.00800           0   0.00000       0.00000    
      1435 MEMB     8        POPE     H11Y     HDA2A    0.780000E-01   1.00800           0   0.00000       0.00000    
      1436 MEMB     8        POPE     C312     CD32A     2.07980       11.6110           0  -1.66000       1.30000    
      1437 MEMB     8        POPE     DC312    DRUD     -2.23580      0.400000           0   0.00000       0.00000    
      1438 MEMB     8        POPE     H12X     HDA2A    0.780000E-01   1.00800           0   0.00000       0.00000    
      1439 MEMB     8        POPE     H12Y     HDA2A    0.780000E-01   1.00800           0   0.00000       0.00000    
      1440 MEMB     8        POPE     C313     CD32A     2.07980       11.6110           0  -1.66000       1.30000    
      1441 MEMB     8        POPE     DC313    DRUD     -2.23580      0.400000           0   0.00000       0.00000    
      1442 MEMB     8        POPE     H13X     HDA2A    0.780000E-01   1.00800           0   0.00000       0.00000    
      1443 MEMB     8        POPE     H13Y     HDA2A    0.780000E-01   1.00800           0   0.00000       0.00000    
      1444 MEMB     8        POPE     C314     CD32A     2.07980       11.6110           0  -1.66000       1.30000    
      1445 MEMB     8        POPE     DC314    DRUD     -2.23580      0.400000           0   0.00000       0.00000    
      1446 MEMB     8        POPE     H14X     HDA2A    0.780000E-01   1.00800           0   0.00000       0.00000    
      1447 MEMB     8        POPE     H14Y     HDA2A    0.780000E-01   1.00800           0   0.00000       0.00000    
      1448 MEMB     8        POPE     C315     CD32A     2.07980       11.6110           0  -1.66000       1.30000    
      1449 MEMB     8        POPE     DC315    DRUD     -2.23580      0.400000           0   0.00000       0.00000    
      1450 MEMB     8        POPE     H15X     HDA2A    0.780000E-01   1.00800           0   0.00000       0.00000    
      1451 MEMB     8        POPE     H15Y     HDA2A    0.780000E-01   1.00800           0   0.00000       0.00000    
      1452 MEMB     8        POPE     C316     CD33A     2.30820       11.6110           0  -2.05100       1.30000    
      1453 MEMB     8        POPE     DC316    DRUD     -2.48520      0.400000           0   0.00000       0.00000    
      1454 MEMB     8        POPE     H16X     HDA3A    0.590000E-01   1.00800           0   0.00000       0.00000    
      1455 MEMB     8        POPE     H16Y     HDA3A    0.590000E-01   1.00800           0   0.00000       0.00000    
      1456 MEMB     8        POPE     H16Z     HDA3A    0.590000E-01   1.00800           0   0.00000       0.00000    
      1457 MEMB     9        POPE     N        ND3P3A    1.62810       13.6070           0  -1.29800      0.895000    
      1458 MEMB     9        POPE     DN       DRUD     -1.97710      0.400000           0   0.00000       0.00000    
      1459 MEMB     9        POPE     HN1      HDP1B    0.340000       1.00800           0   0.00000       0.00000    
      1460 MEMB     9        POPE     HN2      HDP1B    0.340000       1.00800           0   0.00000       0.00000    
      1461 MEMB     9        POPE     HN3      HDP1B    0.340000       1.00800           0   0.00000       0.00000    
      1462 MEMB     9        POPE     C12      CD32A     2.27610       11.6110           0  -1.65600      0.895000    
      1463 MEMB     9        POPE     DC12     DRUD     -2.23310      0.400000           0   0.00000       0.00000    
      1464 MEMB     9        POPE     H12A     HDA2A    0.143000       1.00800           0   0.00000       0.00000    
      1465 MEMB     9        POPE     H12B     HDA2A    0.143000       1.00800           0   0.00000       0.00000    
      1466 MEMB     9        POPE     C11      CD32A     2.42220       11.6110           0  -1.64200      0.862000    
      1467 MEMB     9        POPE     DC11     DRUD     -2.22370      0.400000           0   0.00000       0.00000    
      1468 MEMB     9        POPE     H11A     HDA2A    0.260000E-01   1.00800           0   0.00000       0.00000    
      1469 MEMB     9        POPE     H11B     HDA2A    0.260000E-01   1.00800           0   0.00000       0.00000    
      1470 MEMB     9        POPE     P        PD1A      2.90360       30.5740           0 -0.974000       2.09800    
      1471 MEMB     9        POPE     DP       DRUD     -1.71260      0.400000           0   0.00000       0.00000    
      1472 MEMB     9        POPE     O13      OD2C2B   0.798400       15.5994           0 -0.931000       1.08300    
      1473 MEMB     9        POPE     DO13     DRUD     -1.67440      0.400000           0   0.00000       0.00000    
      1474 MEMB     9        POPE     O14      OD2C2B   0.798400       15.5994           0 -0.931000       1.08300    
      1475 MEMB     9        POPE     DO14     DRUD     -1.67440      0.400000           0   0.00000       0.00000    
      1476 MEMB     9        POPE     O11      OD30B     1.17720       15.5994           0 -0.901000      0.181000    
      1477 MEMB     9        POPE     DO11     DRUD     -1.64720      0.400000           0   0.00000       0.00000    
      1478 MEMB     9        POPE     O12      OD30B     1.17720       15.5994           0 -0.901000      0.181000    
      1479 MEMB     9        POPE     DO12     DRUD     -1.64720      0.400000           0   0.00000       0.00000    
      1480 MEMB     9        POPE     C1       CD32A     2.42220       11.6110           0  -1.64200      0.862000    
      1481 MEMB     9        POPE     DC1      DRUD     -2.22370      0.400000           0   0.00000       0.00000    
      1482 MEMB     9        POPE     HA       HDA2A    0.260000E-01   1.00800           0   0.00000       0.00000    
      1483 MEMB     9        POPE     HB       HDA2A    0.260000E-01   1.00800           0   0.00000       0.00000    
      1484 MEMB     9        POPE     C2       CD31C     2.52830       11.6110           0  -1.79700      0.410000    
      1485 MEMB     9        POPE     DC2      DRUD     -2.32630      0.400000           0   0.00000       0.00000    
      1486 MEMB     9        POPE     HS       HDA1A    0.116000       1.00800           0   0.00000       0.00000    
      1487 MEMB     9        POPE     O21      OD30CL    1.48470       15.5994           0 -0.732000      0.601000    
      1488 MEMB     9        POPE     DO21     DRUD     -1.48470      0.400000           0   0.00000       0.00000    
      1489 MEMB     9        POPE     C21      CD2O3B    2.72820       11.6110           0  -1.37000       1.74700    
      1490 MEMB     9        POPE     DC21     DRUD     -2.03120      0.400000           0   0.00000       0.00000    
      1491 MEMB     9        POPE     O22      OD2C3B    1.64990       15.5994           0 -0.904000      0.565000    
      1492 MEMB     9        POPE     DO22     DRUD     -1.64990      0.400000           0   0.00000       0.00000    
      1493 MEMB     9        POPE     C22      CD32C     2.24380       11.6110           0  -1.99300      0.410000    
      1494 MEMB     9        POPE     DC22     DRUD     -2.44980      0.400000           0   0.00000       0.00000    
      1495 MEMB     9        POPE     H2R      HDA2A    0.690000E-01   1.00800           0   0.00000       0.00000    
      1496 MEMB     9        POPE     H2S      HDA2A    0.690000E-01   1.00800           0   0.00000       0.00000    
      1497 MEMB     9        POPE     LP1A     LPD     -0.349000       0.00000          -1   0.00000       0.00000    
      1498 MEMB     9        POPE     LP1B     LPD     -0.258000       0.00000          -1   0.00000       0.00000    
      1499 MEMB     9        POPE     LPMA     LPD     -0.170000       0.00000          -1   0.00000       0.00000    
      1500 MEMB     9        POPE     LPMB     LPD     -0.170000       0.00000          -1   0.00000       0.00000    
      1501 MEMB     9        POPE     C3       CD32C     2.41230       11.6110           0  -1.79700      0.410000    
      1502 MEMB     9        POPE     DC3      DRUD     -2.32630      0.400000           0   0.00000       0.00000    
      1503 MEMB     9        POPE     HX       HDA2A    0.116000       1.00800           0   0.00000       0.00000    
      1504 MEMB     9        POPE     HY       HDA2A    0.116000       1.00800           0   0.00000       0.00000    
      1505 MEMB     9        POPE     O31      OD30CL    1.48470       15.5994           0 -0.732000      0.601000    
      1506 MEMB     9        POPE     DO31     DRUD     -1.48470      0.400000           0   0.00000       0.00000    
      1507 MEMB     9        POPE     C31      CD2O3B    2.72820       11.6110           0  -1.37000       1.74700    
      1508 MEMB     9        POPE     DC31     DRUD     -2.03120      0.400000           0   0.00000       0.00000    
      1509 MEMB     9        POPE     O32      OD2C3B    1.64990       15.5994           0 -0.904000      0.565000    
      1510 MEMB     9        POPE     DO32     DRUD     -1.64990      0.400000           0   0.00000       0.00000    
      1511 MEMB     9        POPE     C32      CD32C     2.24380       11.6110           0  -1.99300      0.410000    
      1512 MEMB     9        POPE     DC32     DRUD     -2.44980      0.400000           0   0.00000       0.00000    
      1513 MEMB     9        POPE     H2X      HDA2A    0.690000E-01   1.00800           0   0.00000       0.00000    
      1514 MEMB     9        POPE     H2Y      HDA2A    0.690000E-01   1.00800           0   0.00000       0.00000    
      1515 MEMB     9        POPE     LP1C     LPD     -0.349000       0.00000          -1   0.00000       0.00000    
      1516 MEMB     9        POPE     LP1D     LPD     -0.258000       0.00000          -1   0.00000       0.00000    
      1517 MEMB     9        POPE     LPMC     LPD     -0.170000       0.00000          -1   0.00000       0.00000    
      1518 MEMB     9        POPE     LPMD     LPD     -0.170000       0.00000          -1   0.00000       0.00000    
      1519 MEMB     9        POPE     C23      CD32A     2.07980       11.6110           0  -1.66000       1.30000    
      1520 MEMB     9        POPE     DC23     DRUD     -2.23580      0.400000           0   0.00000       0.00000    
      1521 MEMB     9        POPE     H3R      HDA2A    0.780000E-01   1.00800           0   0.00000       0.00000    
      1522 MEMB     9        POPE     H3S      HDA2A    0.780000E-01   1.00800           0   0.00000       0.00000    
      1523 MEMB     9        POPE     C24      CD32A     2.07980       11.6110           0  -1.66000       1.30000    
      1524 MEMB     9        POPE     DC24     DRUD     -2.23580      0.400000           0   0.00000       0.00000    
      1525 MEMB     9        POPE     H4R      HDA2A    0.780000E-01   1.00800           0   0.00000       0.00000    
      1526 MEMB     9        POPE     H4S      HDA2A    0.780000E-01   1.00800           0   0.00000       0.00000    
      1527 MEMB     9        POPE     C25      CD32A     2.07980       11.6110           0  -1.66000       1.30000    
      1528 MEMB     9        POPE     DC25     DRUD     -2.23580      0.400000           0   0.00000       0.00000    
      1529 MEMB     9        POPE     H5R      HDA2A    0.780000E-01   1.00800           0   0.00000       0.00000    
      1530 MEMB     9        POPE     H5S      HDA2A    0.780000E-01   1.00800           0   0.00000       0.00000    
      1531 MEMB     9        POPE     C26      CD32A     2.07980       11.6110           0  -1.66000       1.30000    
      1532 MEMB     9        POPE     DC26     DRUD     -2.23580      0.400000           0   0.00000       0.00000    
      1533 MEMB     9        POPE     H6R      HDA2A    0.780000E-01   1.00800           0   0.00000       0.00000    
      1534 MEMB     9        POPE     H6S      HDA2A    0.780000E-01   1.00800           0   0.00000       0.00000    
      1535 MEMB     9        POPE     C27      CD32A     2.07980       11.6110           0  -1.66000       1.30000    
      1536 MEMB     9        POPE     DC27     DRUD     -2.23580      0.400000           0   0.00000       0.00000    
      1537 MEMB     9        POPE     H7R      HDA2A    0.780000E-01   1.00800           0   0.00000       0.00000    
      1538 MEMB     9        POPE     H7S      HDA2A    0.780000E-01   1.00800           0   0.00000       0.00000    
      1539 MEMB     9        POPE     C28      CD32A     2.07980       11.6110           0  -1.66000       1.30000    
      1540 MEMB     9        POPE     DC28     DRUD     -2.23580      0.400000           0   0.00000       0.00000    
      1541 MEMB     9        POPE     H8R      HDA2A    0.780000E-01   1.00800           0   0.00000       0.00000    
      1542 MEMB     9        POPE     H8S      HDA2A    0.780000E-01   1.00800           0   0.00000       0.00000    
      1543 MEMB     9        POPE     C29      CD2C1A    2.33700       11.6110           0  -1.99000      0.750000    
      1544 MEMB     9        POPE     DC29     DRUD     -2.44800      0.400000           0   0.00000       0.00000    
      1545 MEMB     9        POPE     H91      HD2C1A   0.111000       1.00800           0   0.00000       0.00000    
      1546 MEMB     9        POPE     C210     CD2C1A    2.33700       11.6110           0  -1.99000      0.750000    
      1547 MEMB     9        POPE     DC210    DRUD     -2.44800      0.400000           0   0.00000       0.00000    
      1548 MEMB     9        POPE     H101     HD2C1A   0.111000       1.00800           0   0.00000       0.00000    
      1549 MEMB     9        POPE     C211     CD32A     2.07980       11.6110           0  -1.66000       1.30000    
      1550 MEMB     9        POPE     DC211    DRUD     -2.23580      0.400000           0   0.00000       0.00000    
      1551 MEMB     9        POPE     H11R     HDA2A    0.780000E-01   1.00800           0   0.00000       0.00000    
      1552 MEMB     9        POPE     H11S     HDA2A    0.780000E-01   1.00800           0   0.00000       0.00000    
      1553 MEMB     9        POPE     C212     CD32A     2.07980       11.6110           0  -1.66000       1.30000    
      1554 MEMB     9        POPE     DC212    DRUD     -2.23580      0.400000           0   0.00000       0.00000    
      1555 MEMB     9        POPE     H12R     HDA2A    0.780000E-01   1.00800           0   0.00000       0.00000    
      1556 MEMB     9        POPE     H12S     HDA2A    0.780000E-01   1.00800           0   0.00000       0.00000    
      1557 MEMB     9        POPE     C213     CD32A     2.07980       11.6110           0  -1.66000       1.30000    
      1558 MEMB     9        POPE     DC213    DRUD     -2.23580      0.400000           0   0.00000       0.00000    
      1559 MEMB     9        POPE     H13R     HDA2A    0.780000E-01   1.00800           0   0.00000       0.00000    
      1560 MEMB     9        POPE     H13S     HDA2A    0.780000E-01   1.00800           0   0.00000       0.00000    
      1561 MEMB     9        POPE     C214     CD32A     2.07980       11.6110           0  -1.66000       1.30000    
      1562 MEMB     9        POPE     DC214    DRUD     -2.23580      0.400000           0   0.00000       0.00000    
      1563 MEMB     9        POPE     H14R     HDA2A    0.780000E-01   1.00800           0   0.00000       0.00000    
      1564 MEMB     9        POPE     H14S     HDA2A    0.780000E-01   1.00800           0   0.00000       0.00000    
      1565 MEMB     9        POPE     C215     CD32A     2.07980       11.6110           0  -1.66000       1.30000    
      1566 MEMB     9        POPE     DC215    DRUD     -2.23580      0.400000           0   0.00000       0.00000    
      1567 MEMB     9        POPE     H15R     HDA2A    0.780000E-01   1.00800           0   0.00000       0.00000    
      1568 MEMB     9        POPE     H15S     HDA2A    0.780000E-01   1.00800           0   0.00000       0.00000    
      1569 MEMB     9        POPE     C216     CD32A     2.07980       11.6110           0  -1.66000       1.30000    
      1570 MEMB     9        POPE     DC216    DRUD     -2.23580      0.400000           0   0.00000       0.00000    
      1571 MEMB     9        POPE     H16R     HDA2A    0.780000E-01   1.00800           0   0.00000       0.00000    
      1572 MEMB     9        POPE     H16S     HDA2A    0.780000E-01   1.00800           0   0.00000       0.00000    
      1573 MEMB     9        POPE     C217     CD32A     2.07980       11.6110           0  -1.66000       1.30000    
      1574 MEMB     9        POPE     DC217    DRUD     -2.23580      0.400000           0   0.00000       0.00000    
      1575 MEMB     9        POPE     H17R     HDA2A    0.780000E-01   1.00800           0   0.00000       0.00000    
      1576 MEMB     9        POPE     H17S     HDA2A    0.780000E-01   1.00800           0   0.00000       0.00000    
      1577 MEMB     9        POPE     C218     CD33A     2.30820       11.6110           0  -2.05100       1.30000    
      1578 MEMB     9        POPE     DC218    DRUD     -2.48520      0.400000           0   0.00000       0.00000    
      1579 MEMB     9        POPE     H18R     HDA3A    0.590000E-01   1.00800           0   0.00000       0.00000    
      1580 MEMB     9        POPE     H18S     HDA3A    0.590000E-01   1.00800           0   0.00000       0.00000    
      1581 MEMB     9        POPE     H18T     HDA3A    0.590000E-01   1.00800           0   0.00000       0.00000    
      1582 MEMB     9        POPE     C33      CD32A     2.07980       11.6110           0  -1.66000       1.30000    
      1583 MEMB     9        POPE     DC33     DRUD     -2.23580      0.400000           0   0.00000       0.00000    
      1584 MEMB     9        POPE     H3X      HDA2A    0.780000E-01   1.00800           0   0.00000       0.00000    
      1585 MEMB     9        POPE     H3Y      HDA2A    0.780000E-01   1.00800           0   0.00000       0.00000    
      1586 MEMB     9        POPE     C34      CD32A     2.07980       11.6110           0  -1.66000       1.30000    
      1587 MEMB     9        POPE     DC34     DRUD     -2.23580      0.400000           0   0.00000       0.00000    
      1588 MEMB     9        POPE     H4X      HDA2A    0.780000E-01   1.00800           0   0.00000       0.00000    
      1589 MEMB     9        POPE     H4Y      HDA2A    0.780000E-01   1.00800           0   0.00000       0.00000    
      1590 MEMB     9        POPE     C35      CD32A     2.07980       11.6110           0  -1.66000       1.30000    
      1591 MEMB     9        POPE     DC35     DRUD     -2.23580      0.400000           0   0.00000       0.00000    
      1592 MEMB     9        POPE     H5X      HDA2A    0.780000E-01   1.00800           0   0.00000       0.00000    
      1593 MEMB     9        POPE     H5Y      HDA2A    0.780000E-01   1.00800           0   0.00000       0.00000    
      1594 MEMB     9        POPE     C36      CD32A     2.07980       11.6110           0  -1.66000       1.30000    
      1595 MEMB     9        POPE     DC36     DRUD     -2.23580      0.400000           0   0.00000       0.00000    
      1596 MEMB     9        POPE     H6X      HDA2A    0.780000E-01   1.00800           0   0.00000       0.00000    
      1597 MEMB     9        POPE     H6Y      HDA2A    0.780000E-01   1.00800           0   0.00000       0.00000    
      1598 MEMB     9        POPE     C37      CD32A     2.07980       11.6110           0  -1.66000       1.30000    
      1599 MEMB     9        POPE     DC37     DRUD     -2.23580      0.400000           0   0.00000       0.00000    
      1600 MEMB     9        POPE     H7X      HDA2A    0.780000E-01   1.00800           0   0.00000       0.00000    
      1601 MEMB     9        POPE     H7Y      HDA2A    0.780000E-01   1.00800           0   0.00000       0.00000    
      1602 MEMB     9        POPE     C38      CD32A     2.07980       11.6110           0  -1.66000       1.30000    
      1603 MEMB     9        POPE     DC38     DRUD     -2.23580      0.400000           0   0.00000       0.00000    
      1604 MEMB     9        POPE     H8X      HDA2A    0.780000E-01   1.00800           0   0.00000       0.00000    
      1605 MEMB     9        POPE     H8Y      HDA2A    0.780000E-01   1.00800           0   0.00000       0.00000    
      1606 MEMB     9        POPE     C39      CD32A     2.07980       11.6110           0  -1.66000       1.30000    
      1607 MEMB     9        POPE     DC39     DRUD     -2.23580      0.400000           0   0.00000       0.00000    
      1608 MEMB     9        POPE     H9X      HDA2A    0.780000E-01   1.00800           0   0.00000       0.00000    
      1609 MEMB     9        POPE     H9Y      HDA2A    0.780000E-01   1.00800           0   0.00000       0.00000    
      1610 MEMB     9        POPE     C310     CD32A     2.07980       11.6110           0  -1.66000       1.30000    
      1611 MEMB     9        POPE     DC310    DRUD     -2.23580      0.400000           0   0.00000       0.00000    
      1612 MEMB     9        POPE     H10X     HDA2A    0.780000E-01   1.00800           0   0.00000       0.00000    
      1613 MEMB     9        POPE     H10Y     HDA2A    0.780000E-01   1.00800           0   0.00000       0.00000    
      1614 MEMB     9        POPE     C311     CD32A     2.07980       11.6110           0  -1.66000       1.30000    
      1615 MEMB     9        POPE     DC311    DRUD     -2.23580      0.400000           0   0.00000       0.00000    
      1616 MEMB     9        POPE     H11X     HDA2A    0.780000E-01   1.00800           0   0.00000       0.00000    
      1617 MEMB     9        POPE     H11Y     HDA2A    0.780000E-01   1.00800           0   0.00000       0.00000    
      1618 MEMB     9        POPE     C312     CD32A     2.07980       11.6110           0  -1.66000       1.30000    
      1619 MEMB     9        POPE     DC312    DRUD     -2.23580      0.400000           0   0.00000       0.00000    
      1620 MEMB     9        POPE     H12X     HDA2A    0.780000E-01   1.00800           0   0.00000       0.00000    
      1621 MEMB     9        POPE     H12Y     HDA2A    0.780000E-01   1.00800           0   0.00000       0.00000    
      1622 MEMB     9        POPE     C313     CD32A     2.07980       11.6110           0  -1.66000       1.30000    
      1623 MEMB     9        POPE     DC313    DRUD     -2.23580      0.400000           0   0.00000       0.00000    
      1624 MEMB     9        POPE     H13X     HDA2A    0.780000E-01   1.00800           0   0.00000       0.00000    
      1625 MEMB     9        POPE     H13Y     HDA2A    0.780000E-01   1.00800           0   0.00000       0.00000    
      1626 MEMB     9        POPE     C314     CD32A     2.07980       11.6110           0  -1.66000       1.30000    
      1627 MEMB     9        POPE     DC314    DRUD     -2.23580      0.400000           0   0.00000       0.00000    
      1628 MEMB     9        POPE     H14X     HDA2A    0.780000E-01   1.00800           0   0.00000       0.00000    
      1629 MEMB     9        POPE     H14Y     HDA2A    0.780000E-01   1.00800           0   0.00000       0.00000    
      1630 MEMB     9        POPE     C315     CD32A     2.07980       11.6110           0  -1.66000       1.30000    
      1631 MEMB     9        POPE     DC315    DRUD     -2.23580      0.400000           0   0.00000       0.00000    
      1632 MEMB     9        POPE     H15X     HDA2A    0.780000E-01   1.00800           0   0.00000       0.00000    
      1633 MEMB     9        POPE     H15Y     HDA2A    0.780000E-01   1.00800           0   0.00000       0.00000    
      1634 MEMB     9        POPE     C316     CD33A     2.30820       11.6110           0  -2.05100       1.30000    
      1635 MEMB     9        POPE     DC316    DRUD     -2.48520      0.400000           0   0.00000       0.00000    
      1636 MEMB     9        POPE     H16X     HDA3A    0.590000E-01   1.00800           0   0.00000       0.00000    
      1637 MEMB     9        POPE     H16Y     HDA3A    0.590000E-01   1.00800           0   0.00000       0.00000    
      1638 MEMB     9        POPE     H16Z     HDA3A    0.590000E-01   1.00800           0   0.00000       0.00000    
      1639 MEMB     10       POPE     N        ND3P3A    1.62810       13.6070           0  -1.29800      0.895000    
      1640 MEMB     10       POPE     DN       DRUD     -1.97710      0.400000           0   0.00000       0.00000    
      1641 MEMB     10       POPE     HN1      HDP1B    0.340000       1.00800           0   0.00000       0.00000    
      1642 MEMB     10       POPE     HN2      HDP1B    0.340000       1.00800           0   0.00000       0.00000    
      1643 MEMB     10       POPE     HN3      HDP1B    0.340000       1.00800           0   0.00000       0.00000    
      1644 MEMB     10       POPE     C12      CD32A     2.27610       11.6110           0  -1.65600      0.895000    
      1645 MEMB     10       POPE     DC12     DRUD     -2.23310      0.400000           0   0.00000       0.00000    
      1646 MEMB     10       POPE     H12A     HDA2A    0.143000       1.00800           0   0.00000       0.00000    
      1647 MEMB     10       POPE     H12B     HDA2A    0.143000       1.00800           0   0.00000       0.00000    
      1648 MEMB     10       POPE     C11      CD32A     2.42220       11.6110           0  -1.64200      0.862000    
      1649 MEMB     10       POPE     DC11     DRUD     -2.22370      0.400000           0   0.00000       0.00000    
      1650 MEMB     10       POPE     H11A     HDA2A    0.260000E-01   1.00800           0   0.00000       0.00000    
      1651 MEMB     10       POPE     H11B     HDA2A    0.260000E-01   1.00800           0   0.00000       0.00000    
      1652 MEMB     10       POPE     P        PD1A      2.90360       30.5740           0 -0.974000       2.09800    
      1653 MEMB     10       POPE     DP       DRUD     -1.71260      0.400000           0   0.00000       0.00000    
      1654 MEMB     10       POPE     O13      OD2C2B   0.798400       15.5994           0 -0.931000       1.08300    
      1655 MEMB     10       POPE     DO13     DRUD     -1.67440      0.400000           0   0.00000       0.00000    
      1656 MEMB     10       POPE     O14      OD2C2B   0.798400       15.5994           0 -0.931000       1.08300    
      1657 MEMB     10       POPE     DO14     DRUD     -1.67440      0.400000           0   0.00000       0.00000    
      1658 MEMB     10       POPE     O11      OD30B     1.17720       15.5994           0 -0.901000      0.181000    
      1659 MEMB     10       POPE     DO11     DRUD     -1.64720      0.400000           0   0.00000       0.00000    
      1660 MEMB     10       POPE     O12      OD30B     1.17720       15.5994           0 -0.901000      0.181000    
      1661 MEMB     10       POPE     DO12     DRUD     -1.64720      0.400000           0   0.00000       0.00000    
      1662 MEMB     10       POPE     C1       CD32A     2.42220       11.6110           0  -1.64200      0.862000    
      1663 MEMB     10       POPE     DC1      DRUD     -2.22370      0.400000           0   0.00000       0.00000    
      1664 MEMB     10       POPE     HA       HDA2A    0.260000E-01   1.00800           0   0.00000       0.00000    
      1665 MEMB     10       POPE     HB       HDA2A    0.260000E-01   1.00800           0   0.00000       0.00000    
      1666 MEMB     10       POPE     C2       CD31C     2.52830       11.6110           0  -1.79700      0.410000    
      1667 MEMB     10       POPE     DC2      DRUD     -2.32630      0.400000           0   0.00000       0.00000    
      1668 MEMB     10       POPE     HS       HDA1A    0.116000       1.00800           0   0.00000       0.00000    
      1669 MEMB     10       POPE     O21      OD30CL    1.48470       15.5994           0 -0.732000      0.601000    
      1670 MEMB     10       POPE     DO21     DRUD     -1.48470      0.400000           0   0.00000       0.00000    
      1671 MEMB     10       POPE     C21      CD2O3B    2.72820       11.6110           0  -1.37000       1.74700    
      1672 MEMB     10       POPE     DC21     DRUD     -2.03120      0.400000           0   0.00000       0.00000    
      1673 MEMB     10       POPE     O22      OD2C3B    1.64990       15.5994           0 -0.904000      0.565000    
      1674 MEMB     10       POPE     DO22     DRUD     -1.64990      0.400000           0   0.00000       0.00000    
      1675 MEMB     10       POPE     C22      CD32C     2.24380       11.6110           0  -1.99300      0.410000    
      1676 MEMB     10       POPE     DC22     DRUD     -2.44980      0.400000           0   0.00000       0.00000    
      1677 MEMB     10       POPE     H2R      HDA2A    0.690000E-01   1.00800           0   0.00000       0.00000    
      1678 MEMB     10       POPE     H2S      HDA2A    0.690000E-01   1.00800           0   0.00000       0.00000    
      1679 MEMB     10       POPE     LP1A     LPD     -0.349000       0.00000          -1   0.00000       0.00000    
      1680 MEMB     10       POPE     LP1B     LPD     -0.258000       0.00000          -1   0.00000       0.00000    
      1681 MEMB     10       POPE     LPMA     LPD     -0.170000       0.00000          -1   0.00000       0.00000    
      1682 MEMB     10       POPE     LPMB     LPD     -0.170000       0.00000          -1   0.00000       0.00000    
      1683 MEMB     10       POPE     C3       CD32C     2.41230       11.6110           0  -1.79700      0.410000    
      1684 MEMB     10       POPE     DC3      DRUD     -2.32630      0.400000           0   0.00000       0.00000    
      1685 MEMB     10       POPE     HX       HDA2A    0.116000       1.00800           0   0.00000       0.00000    
      1686 MEMB     10       POPE     HY       HDA2A    0.116000       1.00800           0   0.00000       0.00000    
      1687 MEMB     10       POPE     O31      OD30CL    1.48470       15.5994           0 -0.732000      0.601000    
      1688 MEMB     10       POPE     DO31     DRUD     -1.48470      0.400000           0   0.00000       0.00000    
      1689 MEMB     10       POPE     C31      CD2O3B    2.72820       11.6110           0  -1.37000       1.74700    
      1690 MEMB     10       POPE     DC31     DRUD     -2.03120      0.400000           0   0.00000       0.00000    
      1691 MEMB     10       POPE     O32      OD2C3B    1.64990       15.5994           0 -0.904000      0.565000    
      1692 MEMB     10       POPE     DO32     DRUD     -1.64990      0.400000           0   0.00000       0.00000    
      1693 MEMB     10       POPE     C32      CD32C     2.24380       11.6110           0  -1.99300      0.410000    
      1694 MEMB     10       POPE     DC32     DRUD     -2.44980      0.400000           0   0.00000       0.00000    
      1695 MEMB     10       POPE     H2X      HDA2A    0.690000E-01   1.00800           0   0.00000       0.00000    
      1696 MEMB     10       POPE     H2Y      HDA2A    0.690000E-01   1.00800           0   0.00000       0.00000    
      1697 MEMB     10       POPE     LP1C     LPD     -0.349000       0.00000          -1   0.00000       0.00000    
      1698 MEMB     10       POPE     LP1D     LPD     -0.258000       0.00000          -1   0.00000       0.00000    
      1699 MEMB     10       POPE     LPMC     LPD     -0.170000       0.00000          -1   0.00000       0.00000    
      1700 MEMB     10       POPE     LPMD     LPD     -0.170000       0.00000          -1   0.00000       0.00000    
      1701 MEMB     10       POPE     C23      CD32A     2.07980       11.6110           0  -1.66000       1.30000    
      1702 MEMB     10       POPE     DC23     DRUD     -2.23580      0.400000           0   0.00000       0.00000    
      1703 MEMB     10       POPE     H3R      HDA2A    0.780000E-01   1.00800           0   0.00000       0.00000    
      1704 MEMB     10       POPE     H3S      HDA2A    0.780000E-01   1.00800           0   0.00000       0.00000    
      1705 MEMB     10       POPE     C24      CD32A     2.07980       11.6110           0  -1.66000       1.30000    
      1706 MEMB     10       POPE     DC24     DRUD     -2.23580      0.400000           0   0.00000       0.00000    
      1707 MEMB     10       POPE     H4R      HDA2A    0.780000E-01   1.00800           0   0.00000       0.00000    
      1708 MEMB     10       POPE     H4S      HDA2A    0.780000E-01   1.00800           0   0.00000       0.00000    
      1709 MEMB     10       POPE     C25      CD32A     2.07980       11.6110           0  -1.66000       1.30000    
      1710 MEMB     10       POPE     DC25     DRUD     -2.23580      0.400000           0   0.00000       0.00000    
      1711 MEMB     10       POPE     H5R      HDA2A    0.780000E-01   1.00800           0   0.00000       0.00000    
      1712 MEMB     10       POPE     H5S      HDA2A    0.780000E-01   1.00800           0   0.00000       0.00000    
      1713 MEMB     10       POPE     C26      CD32A     2.07980       11.6110           0  -1.66000       1.30000    
      1714 MEMB     10       POPE     DC26     DRUD     -2.23580      0.400000           0   0.00000       0.00000    
      1715 MEMB     10       POPE     H6R      HDA2A    0.780000E-01   1.00800           0   0.00000       0.00000    
      1716 MEMB     10       POPE     H6S      HDA2A    0.780000E-01   1.00800           0   0.00000       0.00000    
      1717 MEMB     10       POPE     C27      CD32A     2.07980       11.6110           0  -1.66000       1.30000    
      1718 MEMB     10       POPE     DC27     DRUD     -2.23580      0.400000           0   0.00000       0.00000    
      1719 MEMB     10       POPE     H7R      HDA2A    0.780000E-01   1.00800           0   0.00000       0.00000    
      1720 MEMB     10       POPE     H7S      HDA2A    0.780000E-01   1.00800           0   0.00000       0.00000    
      1721 MEMB     10       POPE     C28      CD32A     2.07980       11.6110           0  -1.66000       1.30000    
      1722 MEMB     10       POPE     DC28     DRUD     -2.23580      0.400000           0   0.00000       0.00000    
      1723 MEMB     10       POPE     H8R      HDA2A    0.780000E-01   1.00800           0   0.00000       0.00000    
      1724 MEMB     10       POPE     H8S      HDA2A    0.780000E-01   1.00800           0   0.00000       0.00000    
      1725 MEMB     10       POPE     C29      CD2C1A    2.33700       11.6110           0  -1.99000      0.750000    
      1726 MEMB     10       POPE     DC29     DRUD     -2.44800      0.400000           0   0.00000       0.00000    
      1727 MEMB     10       POPE     H91      HD2C1A   0.111000       1.00800           0   0.00000       0.00000    
      1728 MEMB     10       POPE     C210     CD2C1A    2.33700       11.6110           0  -1.99000      0.750000    
      1729 MEMB     10       POPE     DC210    DRUD     -2.44800      0.400000           0   0.00000       0.00000    
      1730 MEMB     10       POPE     H101     HD2C1A   0.111000       1.00800           0   0.00000       0.00000    
      1731 MEMB     10       POPE     C211     CD32A     2.07980       11.6110           0  -1.66000       1.30000    
      1732 MEMB     10       POPE     DC211    DRUD     -2.23580      0.400000           0   0.00000       0.00000    
      1733 MEMB     10       POPE     H11R     HDA2A    0.780000E-01   1.00800           0   0.00000       0.00000    
      1734 MEMB     10       POPE     H11S     HDA2A    0.780000E-01   1.00800           0   0.00000       0.00000    
      1735 MEMB     10       POPE     C212     CD32A     2.07980       11.6110           0  -1.66000       1.30000    
      1736 MEMB     10       POPE     DC212    DRUD     -2.23580      0.400000           0   0.00000       0.00000    
      1737 MEMB     10       POPE     H12R     HDA2A    0.780000E-01   1.00800           0   0.00000       0.00000    
      1738 MEMB     10       POPE     H12S     HDA2A    0.780000E-01   1.00800           0   0.00000       0.00000    
      1739 MEMB     10       POPE     C213     CD32A     2.07980       11.6110           0  -1.66000       1.30000    
      1740 MEMB     10       POPE     DC213    DRUD     -2.23580      0.400000           0   0.00000       0.00000    
      1741 MEMB     10       POPE     H13R     HDA2A    0.780000E-01   1.00800           0   0.00000       0.00000    
      1742 MEMB     10       POPE     H13S     HDA2A    0.780000E-01   1.00800           0   0.00000       0.00000    
      1743 MEMB     10       POPE     C214     CD32A     2.07980       11.6110           0  -1.66000       1.30000    
      1744 MEMB     10       POPE     DC214    DRUD     -2.23580      0.400000           0   0.00000       0.00000    
      1745 MEMB     10       POPE     H14R     HDA2A    0.780000E-01   1.00800           0   0.00000       0.00000    
      1746 MEMB     10       POPE     H14S     HDA2A    0.780000E-01   1.00800           0   0.00000       0.00000    
      1747 MEMB     10       POPE     C215     CD32A     2.07980       11.6110           0  -1.66000       1.30000    
      1748 MEMB     10       POPE     DC215    DRUD     -2.23580      0.400000           0   0.00000       0.00000    
      1749 MEMB     10       POPE     H15R     HDA2A    0.780000E-01   1.00800           0   0.00000       0.00000    
      1750 MEMB     10       POPE     H15S     HDA2A    0.780000E-01   1.00800           0   0.00000       0.00000    
      1751 MEMB     10       POPE     C216     CD32A     2.07980       11.6110           0  -1.66000       1.30000    
      1752 MEMB     10       POPE     DC216    DRUD     -2.23580      0.400000           0   0.00000       0.00000    
      1753 MEMB     10       POPE     H16R     HDA2A    0.780000E-01   1.00800           0   0.00000       0.00000    
      1754 MEMB     10       POPE     H16S     HDA2A    0.780000E-01   1.00800           0   0.00000       0.00000    
      1755 MEMB     10       POPE     C217     CD32A     2.07980       11.6110           0  -1.66000       1.30000    
      1756 MEMB     10       POPE     DC217    DRUD     -2.23580      0.400000           0   0.00000       0.00000    
      1757 MEMB     10       POPE     H17R     HDA2A    0.780000E-01   1.00800           0   0.00000       0.00000    
      1758 MEMB     10       POPE     H17S     HDA2A    0.780000E-01   1.00800           0   0.00000       0.00000    
      1759 MEMB     10       POPE     C218     CD33A     2.30820       11.6110           0  -2.05100       1.30000    
      1760 MEMB     10       POPE     DC218    DRUD     -2.48520      0.400000           0   0.00000       0.00000    
      1761 MEMB     10       POPE     H18R     HDA3A    0.590000E-01   1.00800           0   0.00000       0.00000    
      1762 MEMB     10       POPE     H18S     HDA3A    0.590000E-01   1.00800           0   0.00000       0.00000    
      1763 MEMB     10       POPE     H18T     HDA3A    0.590000E-01   1.00800           0   0.00000       0.00000    
      1764 MEMB     10       POPE     C33      CD32A     2.07980       11.6110           0  -1.66000       1.30000    
      1765 MEMB     10       POPE     DC33     DRUD     -2.23580      0.400000           0   0.00000       0.00000    
      1766 MEMB     10       POPE     H3X      HDA2A    0.780000E-01   1.00800           0   0.00000       0.00000    
      1767 MEMB     10       POPE     H3Y      HDA2A    0.780000E-01   1.00800           0   0.00000       0.00000    
      1768 MEMB     10       POPE     C34      CD32A     2.07980       11.6110           0  -1.66000       1.30000    
      1769 MEMB     10       POPE     DC34     DRUD     -2.23580      0.400000           0   0.00000       0.00000    
      1770 MEMB     10       POPE     H4X      HDA2A    0.780000E-01   1.00800           0   0.00000       0.00000    
      1771 MEMB     10       POPE     H4Y      HDA2A    0.780000E-01   1.00800           0   0.00000       0.00000    
      1772 MEMB     10       POPE     C35      CD32A     2.07980       11.6110           0  -1.66000       1.30000    
      1773 MEMB     10       POPE     DC35     DRUD     -2.23580      0.400000           0   0.00000       0.00000    
      1774 MEMB     10       POPE     H5X      HDA2A    0.780000E-01   1.00800           0   0.00000       0.00000    
      1775 MEMB     10       POPE     H5Y      HDA2A    0.780000E-01   1.00800           0   0.00000       0.00000    
      1776 MEMB     10       POPE     C36      CD32A     2.07980       11.6110           0  -1.66000       1.30000    
      1777 MEMB     10       POPE     DC36     DRUD     -2.23580      0.400000           0   0.00000       0.00000    
      1778 MEMB     10       POPE     H6X      HDA2A    0.780000E-01   1.00800           0   0.00000       0.00000    
      1779 MEMB     10       POPE     H6Y      HDA2A    0.780000E-01   1.00800           0   0.00000       0.00000    
      1780 MEMB     10       POPE     C37      CD32A     2.07980       11.6110           0  -1.66000       1.30000    
      1781 MEMB     10       POPE     DC37     DRUD     -2.23580      0.400000           0   0.00000       0.00000    
      1782 MEMB     10       POPE     H7X      HDA2A    0.780000E-01   1.00800           0   0.00000       0.00000    
      1783 MEMB     10       POPE     H7Y      HDA2A    0.780000E-01   1.00800           0   0.00000       0.00000    
      1784 MEMB     10       POPE     C38      CD32A     2.07980       11.6110           0  -1.66000       1.30000    
      1785 MEMB     10       POPE     DC38     DRUD     -2.23580      0.400000           0   0.00000       0.00000    
      1786 MEMB     10       POPE     H8X      HDA2A    0.780000E-01   1.00800           0   0.00000       0.00000    
      1787 MEMB     10       POPE     H8Y      HDA2A    0.780000E-01   1.00800           0   0.00000       0.00000    
      1788 MEMB     10       POPE     C39      CD32A     2.07980       11.6110           0  -1.66000       1.30000    
      1789 MEMB     10       POPE     DC39     DRUD     -2.23580      0.400000           0   0.00000       0.00000    
      1790 MEMB     10       POPE     H9X      HDA2A    0.780000E-01   1.00800           0   0.00000       0.00000    
      1791 MEMB     10       POPE     H9Y      HDA2A    0.780000E-01   1.00800           0   0.00000       0.00000    
      1792 MEMB     10       POPE     C310     CD32A     2.07980       11.6110           0  -1.66000       1.30000    
      1793 MEMB     10       POPE     DC310    DRUD     -2.23580      0.400000           0   0.00000       0.00000    
      1794 MEMB     10       POPE     H10X     HDA2A    0.780000E-01   1.00800           0   0.00000       0.00000    
      1795 MEMB     10       POPE     H10Y     HDA2A    0.780000E-01   1.00800           0   0.00000       0.00000    
      1796 MEMB     10       POPE     C311     CD32A     2.07980       11.6110           0  -1.66000       1.30000    
      1797 MEMB     10       POPE     DC311    DRUD     -2.23580      0.400000           0   0.00000       0.00000    
      1798 MEMB     10       POPE     H11X     HDA2A    0.780000E-01   1.00800           0   0.00000       0.00000    
      1799 MEMB     10       POPE     H11Y     HDA2A    0.780000E-01   1.00800           0   0.00000       0.00000    
      1800 MEMB     10       POPE     C312     CD32A     2.07980       11.6110           0  -1.66000       1.30000    
      1801 MEMB     10       POPE     DC312    DRUD     -2.23580      0.400000           0   0.00000       0.00000    
      1802 MEMB     10       POPE     H12X     HDA2A    0.780000E-01   1.00800           0   0.00000       0.00000    
      1803 MEMB     10       POPE     H12Y     HDA2A    0.780000E-01   1.00800           0   0.00000       0.00000    
      1804 MEMB     10       POPE     C313     CD32A     2.07980       11.6110           0  -1.66000       1.30000    
      1805 MEMB     10       POPE     DC313    DRUD     -2.23580      0.400000           0   0.00000       0.00000    
      1806 MEMB     10       POPE     H13X     HDA2A    0.780000E-01   1.00800           0   0.00000       0.00000    
      1807 MEMB     10       POPE     H13Y     HDA2A    0.780000E-01   1.00800           0   0.00000       0.00000    
      1808 MEMB     10       POPE     C314     CD32A     2.07980       11.6110           0  -1.66000       1.30000    
      1809 MEMB     10       POPE     DC314    DRUD     -2.23580      0.400000           0   0.00000       0.00000    
      1810 MEMB     10       POPE     H14X     HDA2A    0.780000E-01   1.00800           0   0.00000       0.00000    
      1811 MEMB     10       POPE     H14Y     HDA2A    0.780000E-01   1.00800           0   0.00000       0.00000    
      1812 MEMB     10       POPE     C315     CD32A     2.07980       11.6110           0  -1.66000       1.30000    
      1813 MEMB     10       POPE     DC315    DRUD     -2.23580      0.400000           0   0.00000       0.00000    
      1814 MEMB     10       POPE     H15X     HDA2A    0.780000E-01   1.00800           0   0.00000       0.00000    
      1815 MEMB     10       POPE     H15Y     HDA2A    0.780000E-01   1.00800           0   0.00000       0.00000    
      1816 MEMB     10       POPE     C316     CD33A     2.30820       11.6110           0  -2.05100       1.30000    
      1817 MEMB     10       POPE     DC316    DRUD     -2.48520      0.400000           0   0.00000       0.00000    
      1818 MEMB     10       POPE     H16X     HDA3A    0.590000E-01   1.00800           0   0.00000       0.00000    
      1819 MEMB     10       POPE     H16Y     HDA3A    0.590000E-01   1.00800           0   0.00000       0.00000    
      1820 MEMB     10       POPE     H16Z     HDA3A    0.590000E-01   1.00800           0   0.00000       0.00000    
      1821 MEMB     11       POPE     N        ND3P3A    1.62810       13.6070           0  -1.29800      0.895000    
      1822 MEMB     11       POPE     DN       DRUD     -1.97710      0.400000           0   0.00000       0.00000    
      1823 MEMB     11       POPE     HN1      HDP1B    0.340000       1.00800           0   0.00000       0.00000    
      1824 MEMB     11       POPE     HN2      HDP1B    0.340000       1.00800           0   0.00000       0.00000    
      1825 MEMB     11       POPE     HN3      HDP1B    0.340000       1.00800           0   0.00000       0.00000    
      1826 MEMB     11       POPE     C12      CD32A     2.27610       11.6110           0  -1.65600      0.895000    
      1827 MEMB     11       POPE     DC12     DRUD     -2.23310      0.400000           0   0.00000       0.00000    
      1828 MEMB     11       POPE     H12A     HDA2A    0.143000       1.00800           0   0.00000       0.00000    
      1829 MEMB     11       POPE     H12B     HDA2A    0.143000       1.00800           0   0.00000       0.00000    
      1830 MEMB     11       POPE     C11      CD32A     2.42220       11.6110           0  -1.64200      0.862000    
      1831 MEMB     11       POPE     DC11     DRUD     -2.22370      0.400000           0   0.00000       0.00000    
      1832 MEMB     11       POPE     H11A     HDA2A    0.260000E-01   1.00800           0   0.00000       0.00000    
      1833 MEMB     11       POPE     H11B     HDA2A    0.260000E-01   1.00800           0   0.00000       0.00000    
      1834 MEMB     11       POPE     P        PD1A      2.90360       30.5740           0 -0.974000       2.09800    
      1835 MEMB     11       POPE     DP       DRUD     -1.71260      0.400000           0   0.00000       0.00000    
      1836 MEMB     11       POPE     O13      OD2C2B   0.798400       15.5994           0 -0.931000       1.08300    
      1837 MEMB     11       POPE     DO13     DRUD     -1.67440      0.400000           0   0.00000       0.00000    
      1838 MEMB     11       POPE     O14      OD2C2B   0.798400       15.5994           0 -0.931000       1.08300    
      1839 MEMB     11       POPE     DO14     DRUD     -1.67440      0.400000           0   0.00000       0.00000    
      1840 MEMB     11       POPE     O11      OD30B     1.17720       15.5994           0 -0.901000      0.181000    
      1841 MEMB     11       POPE     DO11     DRUD     -1.64720      0.400000           0   0.00000       0.00000    
      1842 MEMB     11       POPE     O12      OD30B     1.17720       15.5994           0 -0.901000      0.181000    
      1843 MEMB     11       POPE     DO12     DRUD     -1.64720      0.400000           0   0.00000       0.00000    
      1844 MEMB     11       POPE     C1       CD32A     2.42220       11.6110           0  -1.64200      0.862000    
      1845 MEMB     11       POPE     DC1      DRUD     -2.22370      0.400000           0   0.00000       0.00000    
      1846 MEMB     11       POPE     HA       HDA2A    0.260000E-01   1.00800           0   0.00000       0.00000    
      1847 MEMB     11       POPE     HB       HDA2A    0.260000E-01   1.00800           0   0.00000       0.00000    
      1848 MEMB     11       POPE     C2       CD31C     2.52830       11.6110           0  -1.79700      0.410000    
      1849 MEMB     11       POPE     DC2      DRUD     -2.32630      0.400000           0   0.00000       0.00000    
      1850 MEMB     11       POPE     HS       HDA1A    0.116000       1.00800           0   0.00000       0.00000    
      1851 MEMB     11       POPE     O21      OD30CL    1.48470       15.5994           0 -0.732000      0.601000    
      1852 MEMB     11       POPE     DO21     DRUD     -1.48470      0.400000           0   0.00000       0.00000    
      1853 MEMB     11       POPE     C21      CD2O3B    2.72820       11.6110           0  -1.37000       1.74700    
      1854 MEMB     11       POPE     DC21     DRUD     -2.03120      0.400000           0   0.00000       0.00000    
      1855 MEMB     11       POPE     O22      OD2C3B    1.64990       15.5994           0 -0.904000      0.565000    
      1856 MEMB     11       POPE     DO22     DRUD     -1.64990      0.400000           0   0.00000       0.00000    
      1857 MEMB     11       POPE     C22      CD32C     2.24380       11.6110           0  -1.99300      0.410000    
      1858 MEMB     11       POPE     DC22     DRUD     -2.44980      0.400000           0   0.00000       0.00000    
      1859 MEMB     11       POPE     H2R      HDA2A    0.690000E-01   1.00800           0   0.00000       0.00000    
      1860 MEMB     11       POPE     H2S      HDA2A    0.690000E-01   1.00800           0   0.00000       0.00000    
      1861 MEMB     11       POPE     LP1A     LPD     -0.349000       0.00000          -1   0.00000       0.00000    
      1862 MEMB     11       POPE     LP1B     LPD     -0.258000       0.00000          -1   0.00000       0.00000    
      1863 MEMB     11       POPE     LPMA     LPD     -0.170000       0.00000          -1   0.00000       0.00000    
      1864 MEMB     11       POPE     LPMB     LPD     -0.170000       0.00000          -1   0.00000       0.00000    
      1865 MEMB     11       POPE     C3       CD32C     2.41230       11.6110           0  -1.79700      0.410000    
      1866 MEMB     11       POPE     DC3      DRUD     -2.32630      0.400000           0   0.00000       0.00000    
      1867 MEMB     11       POPE     HX       HDA2A    0.116000       1.00800           0   0.00000       0.00000    
      1868 MEMB     11       POPE     HY       HDA2A    0.116000       1.00800           0   0.00000       0.00000    
      1869 MEMB     11       POPE     O31      OD30CL    1.48470       15.5994           0 -0.732000      0.601000    
      1870 MEMB     11       POPE     DO31     DRUD     -1.48470      0.400000           0   0.00000       0.00000    
      1871 MEMB     11       POPE     C31      CD2O3B    2.72820       11.6110           0  -1.37000       1.74700    
      1872 MEMB     11       POPE     DC31     DRUD     -2.03120      0.400000           0   0.00000       0.00000    
      1873 MEMB     11       POPE     O32      OD2C3B    1.64990       15.5994           0 -0.904000      0.565000    
      1874 MEMB     11       POPE     DO32     DRUD     -1.64990      0.400000           0   0.00000       0.00000    
      1875 MEMB     11       POPE     C32      CD32C     2.24380       11.6110           0  -1.99300      0.410000    
      1876 MEMB     11       POPE     DC32     DRUD     -2.44980      0.400000           0   0.00000       0.00000    
      1877 MEMB     11       POPE     H2X      HDA2A    0.690000E-01   1.00800           0   0.00000       0.00000    
      1878 MEMB     11       POPE     H2Y      HDA2A    0.690000E-01   1.00800           0   0.00000       0.00000    
      1879 MEMB     11       POPE     LP1C     LPD     -0.349000       0.00000          -1   0.00000       0.00000    
      1880 MEMB     11       POPE     LP1D     LPD     -0.258000       0.00000          -1   0.00000       0.00000    
      1881 MEMB     11       POPE     LPMC     LPD     -0.170000       0.00000          -1   0.00000       0.00000    
      1882 MEMB     11       POPE     LPMD     LPD     -0.170000       0.00000          -1   0.00000       0.00000    
      1883 MEMB     11       POPE     C23      CD32A     2.07980       11.6110           0  -1.66000       1.30000    
      1884 MEMB     11       POPE     DC23     DRUD     -2.23580      0.400000           0   0.00000       0.00000    
      1885 MEMB     11       POPE     H3R      HDA2A    0.780000E-01   1.00800           0   0.00000       0.00000    
      1886 MEMB     11       POPE     H3S      HDA2A    0.780000E-01   1.00800           0   0.00000       0.00000    
      1887 MEMB     11       POPE     C24      CD32A     2.07980       11.6110           0  -1.66000       1.30000    
      1888 MEMB     11       POPE     DC24     DRUD     -2.23580      0.400000           0   0.00000       0.00000    
      1889 MEMB     11       POPE     H4R      HDA2A    0.780000E-01   1.00800           0   0.00000       0.00000    
      1890 MEMB     11       POPE     H4S      HDA2A    0.780000E-01   1.00800           0   0.00000       0.00000    
      1891 MEMB     11       POPE     C25      CD32A     2.07980       11.6110           0  -1.66000       1.30000    
      1892 MEMB     11       POPE     DC25     DRUD     -2.23580      0.400000           0   0.00000       0.00000    
      1893 MEMB     11       POPE     H5R      HDA2A    0.780000E-01   1.00800           0   0.00000       0.00000    
      1894 MEMB     11       POPE     H5S      HDA2A    0.780000E-01   1.00800           0   0.00000       0.00000    
      1895 MEMB     11       POPE     C26      CD32A     2.07980       11.6110           0  -1.66000       1.30000    
      1896 MEMB     11       POPE     DC26     DRUD     -2.23580      0.400000           0   0.00000       0.00000    
      1897 MEMB     11       POPE     H6R      HDA2A    0.780000E-01   1.00800           0   0.00000       0.00000    
      1898 MEMB     11       POPE     H6S      HDA2A    0.780000E-01   1.00800           0   0.00000       0.00000    
      1899 MEMB     11       POPE     C27      CD32A     2.07980       11.6110           0  -1.66000       1.30000    
      1900 MEMB     11       POPE     DC27     DRUD     -2.23580      0.400000           0   0.00000       0.00000    
      1901 MEMB     11       POPE     H7R      HDA2A    0.780000E-01   1.00800           0   0.00000       0.00000    
      1902 MEMB     11       POPE     H7S      HDA2A    0.780000E-01   1.00800           0   0.00000       0.00000    
      1903 MEMB     11       POPE     C28      CD32A     2.07980       11.6110           0  -1.66000       1.30000    
      1904 MEMB     11       POPE     DC28     DRUD     -2.23580      0.400000           0   0.00000       0.00000    
      1905 MEMB     11       POPE     H8R      HDA2A    0.780000E-01   1.00800           0   0.00000       0.00000    
      1906 MEMB     11       POPE     H8S      HDA2A    0.780000E-01   1.00800           0   0.00000       0.00000    
      1907 MEMB     11       POPE     C29      CD2C1A    2.33700       11.6110           0  -1.99000      0.750000    
      1908 MEMB     11       POPE     DC29     DRUD     -2.44800      0.400000           0   0.00000       0.00000    
      1909 MEMB     11       POPE     H91      HD2C1A   0.111000       1.00800           0   0.00000       0.00000    
      1910 MEMB     11       POPE     C210     CD2C1A    2.33700       11.6110           0  -1.99000      0.750000    
      1911 MEMB     11       POPE     DC210    DRUD     -2.44800      0.400000           0   0.00000       0.00000    
      1912 MEMB     11       POPE     H101     HD2C1A   0.111000       1.00800           0   0.00000       0.00000    
      1913 MEMB     11       POPE     C211     CD32A     2.07980       11.6110           0  -1.66000       1.30000    
      1914 MEMB     11       POPE     DC211    DRUD     -2.23580      0.400000           0   0.00000       0.00000    
      1915 MEMB     11       POPE     H11R     HDA2A    0.780000E-01   1.00800           0   0.00000       0.00000    
      1916 MEMB     11       POPE     H11S     HDA2A    0.780000E-01   1.00800           0   0.00000       0.00000    
      1917 MEMB     11       POPE     C212     CD32A     2.07980       11.6110           0  -1.66000       1.30000    
      1918 MEMB     11       POPE     DC212    DRUD     -2.23580      0.400000           0   0.00000       0.00000    
      1919 MEMB     11       POPE     H12R     HDA2A    0.780000E-01   1.00800           0   0.00000       0.00000    
      1920 MEMB     11       POPE     H12S     HDA2A    0.780000E-01   1.00800           0   0.00000       0.00000    
      1921 MEMB     11       POPE     C213     CD32A     2.07980       11.6110           0  -1.66000       1.30000    
      1922 MEMB     11       POPE     DC213    DRUD     -2.23580      0.400000           0   0.00000       0.00000    
      1923 MEMB     11       POPE     H13R     HDA2A    0.780000E-01   1.00800           0   0.00000       0.00000    
      1924 MEMB     11       POPE     H13S     HDA2A    0.780000E-01   1.00800           0   0.00000       0.00000    
      1925 MEMB     11       POPE     C214     CD32A     2.07980       11.6110           0  -1.66000       1.30000    
      1926 MEMB     11       POPE     DC214    DRUD     -2.23580      0.400000           0   0.00000       0.00000    
      1927 MEMB     11       POPE     H14R     HDA2A    0.780000E-01   1.00800           0   0.00000       0.00000    
      1928 MEMB     11       POPE     H14S     HDA2A    0.780000E-01   1.00800           0   0.00000       0.00000    
      1929 MEMB     11       POPE     C215     CD32A     2.07980       11.6110           0  -1.66000       1.30000    
      1930 MEMB     11       POPE     DC215    DRUD     -2.23580      0.400000           0   0.00000       0.00000    
      1931 MEMB     11       POPE     H15R     HDA2A    0.780000E-01   1.00800           0   0.00000       0.00000    
      1932 MEMB     11       POPE     H15S     HDA2A    0.780000E-01   1.00800           0   0.00000       0.00000    
      1933 MEMB     11       POPE     C216     CD32A     2.07980       11.6110           0  -1.66000       1.30000    
      1934 MEMB     11       POPE     DC216    DRUD     -2.23580      0.400000           0   0.00000       0.00000    
      1935 MEMB     11       POPE     H16R     HDA2A    0.780000E-01   1.00800           0   0.00000       0.00000    
      1936 MEMB     11       POPE     H16S     HDA2A    0.780000E-01   1.00800           0   0.00000       0.00000    
      1937 MEMB     11       POPE     C217     CD32A     2.07980       11.6110           0  -1.66000       1.30000    
      1938 MEMB     11       POPE     DC217    DRUD     -2.23580      0.400000           0   0.00000       0.00000    
      1939 MEMB     11       POPE     H17R     HDA2A    0.780000E-01   1.00800           0   0.00000       0.00000    
      1940 MEMB     11       POPE     H17S     HDA2A    0.780000E-01   1.00800           0   0.00000       0.00000    
      1941 MEMB     11       POPE     C218     CD33A     2.30820       11.6110           0  -2.05100       1.30000    
      1942 MEMB     11       POPE     DC218    DRUD     -2.48520      0.400000           0   0.00000       0.00000    
      1943 MEMB     11       POPE     H18R     HDA3A    0.590000E-01   1.00800           0   0.00000       0.00000    
      1944 MEMB     11       POPE     H18S     HDA3A    0.590000E-01   1.00800           0   0.00000       0.00000    
      1945 MEMB     11       POPE     H18T     HDA3A    0.590000E-01   1.00800           0   0.00000       0.00000    
      1946 MEMB     11       POPE     C33      CD32A     2.07980       11.6110           0  -1.66000       1.30000    
      1947 MEMB     11       POPE     DC33     DRUD     -2.23580      0.400000           0   0.00000       0.00000    
      1948 MEMB     11       POPE     H3X      HDA2A    0.780000E-01   1.00800           0   0.00000       0.00000    
      1949 MEMB     11       POPE     H3Y      HDA2A    0.780000E-01   1.00800           0   0.00000       0.00000    
      1950 MEMB     11       POPE     C34      CD32A     2.07980       11.6110           0  -1.66000       1.30000    
      1951 MEMB     11       POPE     DC34     DRUD     -2.23580      0.400000           0   0.00000       0.00000    
      1952 MEMB     11       POPE     H4X      HDA2A    0.780000E-01   1.00800           0   0.00000       0.00000    
      1953 MEMB     11       POPE     H4Y      HDA2A    0.780000E-01   1.00800           0   0.00000       0.00000    
      1954 MEMB     11       POPE     C35      CD32A     2.07980       11.6110           0  -1.66000       1.30000    
      1955 MEMB     11       POPE     DC35     DRUD     -2.23580      0.400000           0   0.00000       0.00000    
      1956 MEMB     11       POPE     H5X      HDA2A    0.780000E-01   1.00800           0   0.00000       0.00000    
      1957 MEMB     11       POPE     H5Y      HDA2A    0.780000E-01   1.00800           0   0.00000       0.00000    
      1958 MEMB     11       POPE     C36      CD32A     2.07980       11.6110           0  -1.66000       1.30000    
      1959 MEMB     11       POPE     DC36     DRUD     -2.23580      0.400000           0   0.00000       0.00000    
      1960 MEMB     11       POPE     H6X      HDA2A    0.780000E-01   1.00800           0   0.00000       0.00000    
      1961 MEMB     11       POPE     H6Y      HDA2A    0.780000E-01   1.00800           0   0.00000       0.00000    
      1962 MEMB     11       POPE     C37      CD32A     2.07980       11.6110           0  -1.66000       1.30000    
      1963 MEMB     11       POPE     DC37     DRUD     -2.23580      0.400000           0   0.00000       0.00000    
      1964 MEMB     11       POPE     H7X      HDA2A    0.780000E-01   1.00800           0   0.00000       0.00000    
      1965 MEMB     11       POPE     H7Y      HDA2A    0.780000E-01   1.00800           0   0.00000       0.00000    
      1966 MEMB     11       POPE     C38      CD32A     2.07980       11.6110           0  -1.66000       1.30000    
      1967 MEMB     11       POPE     DC38     DRUD     -2.23580      0.400000           0   0.00000       0.00000    
      1968 MEMB     11       POPE     H8X      HDA2A    0.780000E-01   1.00800           0   0.00000       0.00000    
      1969 MEMB     11       POPE     H8Y      HDA2A    0.780000E-01   1.00800           0   0.00000       0.00000    
      1970 MEMB     11       POPE     C39      CD32A     2.07980       11.6110           0  -1.66000       1.30000    
      1971 MEMB     11       POPE     DC39     DRUD     -2.23580      0.400000           0   0.00000       0.00000    
      1972 MEMB     11       POPE     H9X      HDA2A    0.780000E-01   1.00800           0   0.00000       0.00000    
      1973 MEMB     11       POPE     H9Y      HDA2A    0.780000E-01   1.00800           0   0.00000       0.00000    
      1974 MEMB     11       POPE     C310     CD32A     2.07980       11.6110           0  -1.66000       1.30000    
      1975 MEMB     11       POPE     DC310    DRUD     -2.23580      0.400000           0   0.00000       0.00000    
      1976 MEMB     11       POPE     H10X     HDA2A    0.780000E-01   1.00800           0   0.00000       0.00000    
      1977 MEMB     11       POPE     H10Y     HDA2A    0.780000E-01   1.00800           0   0.00000       0.00000    
      1978 MEMB     11       POPE     C311     CD32A     2.07980       11.6110           0  -1.66000       1.30000    
      1979 MEMB     11       POPE     DC311    DRUD     -2.23580      0.400000           0   0.00000       0.00000    
      1980 MEMB     11       POPE     H11X     HDA2A    0.780000E-01   1.00800           0   0.00000       0.00000    
      1981 MEMB     11       POPE     H11Y     HDA2A    0.780000E-01   1.00800           0   0.00000       0.00000    
      1982 MEMB     11       POPE     C312     CD32A     2.07980       11.6110           0  -1.66000       1.30000    
      1983 MEMB     11       POPE     DC312    DRUD     -2.23580      0.400000           0   0.00000       0.00000    
      1984 MEMB     11       POPE     H12X     HDA2A    0.780000E-01   1.00800           0   0.00000       0.00000    
      1985 MEMB     11       POPE     H12Y     HDA2A    0.780000E-01   1.00800           0   0.00000       0.00000    
      1986 MEMB     11       POPE     C313     CD32A     2.07980       11.6110           0  -1.66000       1.30000    
      1987 MEMB     11       POPE     DC313    DRUD     -2.23580      0.400000           0   0.00000       0.00000    
      1988 MEMB     11       POPE     H13X     HDA2A    0.780000E-01   1.00800           0   0.00000       0.00000    
      1989 MEMB     11       POPE     H13Y     HDA2A    0.780000E-01   1.00800           0   0.00000       0.00000    
      1990 MEMB     11       POPE     C314     CD32A     2.07980       11.6110           0  -1.66000       1.30000    
      1991 MEMB     11       POPE     DC314    DRUD     -2.23580      0.400000           0   0.00000       0.00000    
      1992 MEMB     11       POPE     H14X     HDA2A    0.780000E-01   1.00800           0   0.00000       0.00000    
      1993 MEMB     11       POPE     H14Y     HDA2A    0.780000E-01   1.00800           0   0.00000       0.00000    
      1994 MEMB     11       POPE     C315     CD32A     2.07980       11.6110           0  -1.66000       1.30000    
      1995 MEMB     11       POPE     DC315    DRUD     -2.23580      0.400000           0   0.00000       0.00000    
      1996 MEMB     11       POPE     H15X     HDA2A    0.780000E-01   1.00800           0   0.00000       0.00000    
      1997 MEMB     11       POPE     H15Y     HDA2A    0.780000E-01   1.00800           0   0.00000       0.00000    
      1998 MEMB     11       POPE     C316     CD33A     2.30820       11.6110           0  -2.05100       1.30000    
      1999 MEMB     11       POPE     DC316    DRUD     -2.48520      0.400000           0   0.00000       0.00000    
      2000 MEMB     11       POPE     H16X     HDA3A    0.590000E-01   1.00800           0   0.00000       0.00000    
      2001 MEMB     11       POPE     H16Y     HDA3A    0.590000E-01   1.00800           0   0.00000       0.00000    
      2002 MEMB     11       POPE     H16Z     HDA3A    0.590000E-01   1.00800           0   0.00000       0.00000    
      2003 MEMB     12       POPE     N        ND3P3A    1.62810       13.6070           0  -1.29800      0.895000    
      2004 MEMB     12       POPE     DN       DRUD     -1.97710      0.400000           0   0.00000       0.00000    
      2005 MEMB     12       POPE     HN1      HDP1B    0.340000       1.00800           0   0.00000       0.00000    
      2006 MEMB     12       POPE     HN2      HDP1B    0.340000       1.00800           0   0.00000       0.00000    
      2007 MEMB     12       POPE     HN3      HDP1B    0.340000       1.00800           0   0.00000       0.00000    
      2008 MEMB     12       POPE     C12      CD32A     2.27610       11.6110           0  -1.65600      0.895000    
      2009 MEMB     12       POPE     DC12     DRUD     -2.23310      0.400000           0   0.00000       0.00000    
      2010 MEMB     12       POPE     H12A     HDA2A    0.143000       1.00800           0   0.00000       0.00000    
      2011 MEMB     12       POPE     H12B     HDA2A    0.143000       1.00800           0   0.00000       0.00000    
      2012 MEMB     12       POPE     C11      CD32A     2.42220       11.6110           0  -1.64200      0.862000    
      2013 MEMB     12       POPE     DC11     DRUD     -2.22370      0.400000           0   0.00000       0.00000    
      2014 MEMB     12       POPE     H11A     HDA2A    0.260000E-01   1.00800           0   0.00000       0.00000    
      2015 MEMB     12       POPE     H11B     HDA2A    0.260000E-01   1.00800           0   0.00000       0.00000    
      2016 MEMB     12       POPE     P        PD1A      2.90360       30.5740           0 -0.974000       2.09800    
      2017 MEMB     12       POPE     DP       DRUD     -1.71260      0.400000           0   0.00000       0.00000    
      2018 MEMB     12       POPE     O13      OD2C2B   0.798400       15.5994           0 -0.931000       1.08300    
      2019 MEMB     12       POPE     DO13     DRUD     -1.67440      0.400000           0   0.00000       0.00000    
      2020 MEMB     12       POPE     O14      OD2C2B   0.798400       15.5994           0 -0.931000       1.08300    
      2021 MEMB     12       POPE     DO14     DRUD     -1.67440      0.400000           0   0.00000       0.00000    
      2022 MEMB     12       POPE     O11      OD30B     1.17720       15.5994           0 -0.901000      0.181000    
      2023 MEMB     12       POPE     DO11     DRUD     -1.64720      0.400000           0   0.00000       0.00000    
      2024 MEMB     12       POPE     O12      OD30B     1.17720       15.5994           0 -0.901000      0.181000    
      2025 MEMB     12       POPE     DO12     DRUD     -1.64720      0.400000           0   0.00000       0.00000    
      2026 MEMB     12       POPE     C1       CD32A     2.42220       11.6110           0  -1.64200      0.862000    
      2027 MEMB     12       POPE     DC1      DRUD     -2.22370      0.400000           0   0.00000       0.00000    
      2028 MEMB     12       POPE     HA       HDA2A    0.260000E-01   1.00800           0   0.00000       0.00000    
      2029 MEMB     12       POPE     HB       HDA2A    0.260000E-01   1.00800           0   0.00000       0.00000    
      2030 MEMB     12       POPE     C2       CD31C     2.52830       11.6110           0  -1.79700      0.410000    
      2031 MEMB     12       POPE     DC2      DRUD     -2.32630      0.400000           0   0.00000       0.00000    
      2032 MEMB     12       POPE     HS       HDA1A    0.116000       1.00800           0   0.00000       0.00000    
      2033 MEMB     12       POPE     O21      OD30CL    1.48470       15.5994           0 -0.732000      0.601000    
      2034 MEMB     12       POPE     DO21     DRUD     -1.48470      0.400000           0   0.00000       0.00000    
      2035 MEMB     12       POPE     C21      CD2O3B    2.72820       11.6110           0  -1.37000       1.74700    
      2036 MEMB     12       POPE     DC21     DRUD     -2.03120      0.400000           0   0.00000       0.00000    
      2037 MEMB     12       POPE     O22      OD2C3B    1.64990       15.5994           0 -0.904000      0.565000    
      2038 MEMB     12       POPE     DO22     DRUD     -1.64990      0.400000           0   0.00000       0.00000    
      2039 MEMB     12       POPE     C22      CD32C     2.24380       11.6110           0  -1.99300      0.410000    
      2040 MEMB     12       POPE     DC22     DRUD     -2.44980      0.400000           0   0.00000       0.00000    
      2041 MEMB     12       POPE     H2R      HDA2A    0.690000E-01   1.00800           0   0.00000       0.00000    
      2042 MEMB     12       POPE     H2S      HDA2A    0.690000E-01   1.00800           0   0.00000       0.00000    
      2043 MEMB     12       POPE     LP1A     LPD     -0.349000       0.00000          -1   0.00000       0.00000    
      2044 MEMB     12       POPE     LP1B     LPD     -0.258000       0.00000          -1   0.00000       0.00000    
      2045 MEMB     12       POPE     LPMA     LPD     -0.170000       0.00000          -1   0.00000       0.00000    
      2046 MEMB     12       POPE     LPMB     LPD     -0.170000       0.00000          -1   0.00000       0.00000    
      2047 MEMB     12       POPE     C3       CD32C     2.41230       11.6110           0  -1.79700      0.410000    
      2048 MEMB     12       POPE     DC3      DRUD     -2.32630      0.400000           0   0.00000       0.00000    
      2049 MEMB     12       POPE     HX       HDA2A    0.116000       1.00800           0   0.00000       0.00000    
      2050 MEMB     12       POPE     HY       HDA2A    0.116000       1.00800           0   0.00000       0.00000    
      2051 MEMB     12       POPE     O31      OD30CL    1.48470       15.5994           0 -0.732000      0.601000    
      2052 MEMB     12       POPE     DO31     DRUD     -1.48470      0.400000           0   0.00000       0.00000    
      2053 MEMB     12       POPE     C31      CD2O3B    2.72820       11.6110           0  -1.37000       1.74700    
      2054 MEMB     12       POPE     DC31     DRUD     -2.03120      0.400000           0   0.00000       0.00000    
      2055 MEMB     12       POPE     O32      OD2C3B    1.64990       15.5994           0 -0.904000      0.565000    
      2056 MEMB     12       POPE     DO32     DRUD     -1.64990      0.400000           0   0.00000       0.00000    
      2057 MEMB     12       POPE     C32      CD32C     2.24380       11.6110           0  -1.99300      0.410000    
      2058 MEMB     12       POPE     DC32     DRUD     -2.44980      0.400000           0   0.00000       0.00000    
      2059 MEMB     12       POPE     H2X      HDA2A    0.690000E-01   1.00800           0   0.00000       0.00000    
      2060 MEMB     12       POPE     H2Y      HDA2A    0.690000E-01   1.00800           0   0.00000       0.00000    
      2061 MEMB     12       POPE     LP1C     LPD     -0.349000       0.00000          -1   0.00000       0.00000    
      2062 MEMB     12       POPE     LP1D     LPD     -0.258000       0.00000          -1   0.00000       0.00000    
      2063 MEMB     12       POPE     LPMC     LPD     -0.170000       0.00000          -1   0.00000       0.00000    
      2064 MEMB     12       POPE     LPMD     LPD     -0.170000       0.00000          -1   0.00000       0.00000    
      2065 MEMB     12       POPE     C23      CD32A     2.07980       11.6110           0  -1.66000       1.30000    
      2066 MEMB     12       POPE     DC23     DRUD     -2.23580      0.400000           0   0.00000       0.00000    
      2067 MEMB     12       POPE     H3R      HDA2A    0.780000E-01   1.00800           0   0.00000       0.00000    
      2068 MEMB     12       POPE     H3S      HDA2A    0.780000E-01   1.00800           0   0.00000       0.00000    
      2069 MEMB     12       POPE     C24      CD32A     2.07980       11.6110           0  -1.66000       1.30000    
      2070 MEMB     12       POPE     DC24     DRUD     -2.23580      0.400000           0   0.00000       0.00000    
      2071 MEMB     12       POPE     H4R      HDA2A    0.780000E-01   1.00800           0   0.00000       0.00000    
      2072 MEMB     12       POPE     H4S      HDA2A    0.780000E-01   1.00800           0   0.00000       0.00000    
      2073 MEMB     12       POPE     C25      CD32A     2.07980       11.6110           0  -1.66000       1.30000    
      2074 MEMB     12       POPE     DC25     DRUD     -2.23580      0.400000           0   0.00000       0.00000    
      2075 MEMB     12       POPE     H5R      HDA2A    0.780000E-01   1.00800           0   0.00000       0.00000    
      2076 MEMB     12       POPE     H5S      HDA2A    0.780000E-01   1.00800           0   0.00000       0.00000    
      2077 MEMB     12       POPE     C26      CD32A     2.07980       11.6110           0  -1.66000       1.30000    
      2078 MEMB     12       POPE     DC26     DRUD     -2.23580      0.400000           0   0.00000       0.00000    
      2079 MEMB     12       POPE     H6R      HDA2A    0.780000E-01   1.00800           0   0.00000       0.00000    
      2080 MEMB     12       POPE     H6S      HDA2A    0.780000E-01   1.00800           0   0.00000       0.00000    
      2081 MEMB     12       POPE     C27      CD32A     2.07980       11.6110           0  -1.66000       1.30000    
      2082 MEMB     12       POPE     DC27     DRUD     -2.23580      0.400000           0   0.00000       0.00000    
      2083 MEMB     12       POPE     H7R      HDA2A    0.780000E-01   1.00800           0   0.00000       0.00000    
      2084 MEMB     12       POPE     H7S      HDA2A    0.780000E-01   1.00800           0   0.00000       0.00000    
      2085 MEMB     12       POPE     C28      CD32A     2.07980       11.6110           0  -1.66000       1.30000    
      2086 MEMB     12       POPE     DC28     DRUD     -2.23580      0.400000           0   0.00000       0.00000    
      2087 MEMB     12       POPE     H8R      HDA2A    0.780000E-01   1.00800           0   0.00000       0.00000    
      2088 MEMB     12       POPE     H8S      HDA2A    0.780000E-01   1.00800           0   0.00000       0.00000    
      2089 MEMB     12       POPE     C29      CD2C1A    2.33700       11.6110           0  -1.99000      0.750000    
      2090 MEMB     12       POPE     DC29     DRUD     -2.44800      0.400000           0   0.00000       0.00000    
      2091 MEMB     12       POPE     H91      HD2C1A   0.111000       1.00800           0   0.00000       0.00000    
      2092 MEMB     12       POPE     C210     CD2C1A    2.33700       11.6110           0  -1.99000      0.750000    
      2093 MEMB     12       POPE     DC210    DRUD     -2.44800      0.400000           0   0.00000       0.00000    
      2094 MEMB     12       POPE     H101     HD2C1A   0.111000       1.00800           0   0.00000       0.00000    
      2095 MEMB     12       POPE     C211     CD32A     2.07980       11.6110           0  -1.66000       1.30000    
      2096 MEMB     12       POPE     DC211    DRUD     -2.23580      0.400000           0   0.00000       0.00000    
      2097 MEMB     12       POPE     H11R     HDA2A    0.780000E-01   1.00800           0   0.00000       0.00000    
      2098 MEMB     12       POPE     H11S     HDA2A    0.780000E-01   1.00800           0   0.00000       0.00000    
      2099 MEMB     12       POPE     C212     CD32A     2.07980       11.6110           0  -1.66000       1.30000    
      2100 MEMB     12       POPE     DC212    DRUD     -2.23580      0.400000           0   0.00000       0.00000    
      2101 MEMB     12       POPE     H12R     HDA2A    0.780000E-01   1.00800           0   0.00000       0.00000    
      2102 MEMB     12       POPE     H12S     HDA2A    0.780000E-01   1.00800           0   0.00000       0.00000    
      2103 MEMB     12       POPE     C213     CD32A     2.07980       11.6110           0  -1.66000       1.30000    
      2104 MEMB     12       POPE     DC213    DRUD     -2.23580      0.400000           0   0.00000       0.00000    
      2105 MEMB     12       POPE     H13R     HDA2A    0.780000E-01   1.00800           0   0.00000       0.00000    
      2106 MEMB     12       POPE     H13S     HDA2A    0.780000E-01   1.00800           0   0.00000       0.00000    
      2107 MEMB     12       POPE     C214     CD32A     2.07980       11.6110           0  -1.66000       1.30000    
      2108 MEMB     12       POPE     DC214    DRUD     -2.23580      0.400000           0   0.00000       0.00000    
      2109 MEMB     12       POPE     H14R     HDA2A    0.780000E-01   1.00800           0   0.00000       0.00000    
      2110 MEMB     12       POPE     H14S     HDA2A    0.780000E-01   1.00800           0   0.00000       0.00000    
      2111 MEMB     12       POPE     C215     CD32A     2.07980       11.6110           0  -1.66000       1.30000    
      2112 MEMB     12       POPE     DC215    DRUD     -2.23580      0.400000           0   0.00000       0.00000    
      2113 MEMB     12       POPE     H15R     HDA2A    0.780000E-01   1.00800           0   0.00000       0.00000    
      2114 MEMB     12       POPE     H15S     HDA2A    0.780000E-01   1.00800           0   0.00000       0.00000    
      2115 MEMB     12       POPE     C216     CD32A     2.07980       11.6110           0  -1.66000       1.30000    
      2116 MEMB     12       POPE     DC216    DRUD     -2.23580      0.400000           0   0.00000       0.00000    
      2117 MEMB     12       POPE     H16R     HDA2A    0.780000E-01   1.00800           0   0.00000       0.00000    
      2118 MEMB     12       POPE     H16S     HDA2A    0.780000E-01   1.00800           0   0.00000       0.00000    
      2119 MEMB     12       POPE     C217     CD32A     2.07980       11.6110           0  -1.66000       1.30000    
      2120 MEMB     12       POPE     DC217    DRUD     -2.23580      0.400000           0   0.00000       0.00000    
      2121 MEMB     12       POPE     H17R     HDA2A    0.780000E-01   1.00800           0   0.00000       0.00000    
      2122 MEMB     12       POPE     H17S     HDA2A    0.780000E-01   1.00800           0   0.00000       0.00000    
      2123 MEMB     12       POPE     C218     CD33A     2.30820       11.6110           0  -2.05100       1.30000    
      2124 MEMB     12       POPE     DC218    DRUD     -2.48520      0.400000           0   0.00000       0.00000    
      2125 MEMB     12       POPE     H18R     HDA3A    0.590000E-01   1.00800           0   0.00000       0.00000    
      2126 MEMB     12       POPE     H18S     HDA3A    0.590000E-01   1.00800           0   0.00000       0.00000    
      2127 MEMB     12       POPE     H18T     HDA3A    0.590000E-01   1.00800           0   0.00000       0.00000    
      2128 MEMB     12       POPE     C33      CD32A     2.07980       11.6110           0  -1.66000       1.30000    
      2129 MEMB     12       POPE     DC33     DRUD     -2.23580      0.400000           0   0.00000       0.00000    
      2130 MEMB     12       POPE     H3X      HDA2A    0.780000E-01   1.00800           0   0.00000       0.00000    
      2131 MEMB     12       POPE     H3Y      HDA2A    0.780000E-01   1.00800           0   0.00000       0.00000    
      2132 MEMB     12       POPE     C34      CD32A     2.07980       11.6110           0  -1.66000       1.30000    
      2133 MEMB     12       POPE     DC34     DRUD     -2.23580      0.400000           0   0.00000       0.00000    
      2134 MEMB     12       POPE     H4X      HDA2A    0.780000E-01   1.00800           0   0.00000       0.00000    
      2135 MEMB     12       POPE     H4Y      HDA2A    0.780000E-01   1.00800           0   0.00000       0.00000    
      2136 MEMB     12       POPE     C35      CD32A     2.07980       11.6110           0  -1.66000       1.30000    
      2137 MEMB     12       POPE     DC35     DRUD     -2.23580      0.400000           0   0.00000       0.00000    
      2138 MEMB     12       POPE     H5X      HDA2A    0.780000E-01   1.00800           0   0.00000       0.00000    
      2139 MEMB     12       POPE     H5Y      HDA2A    0.780000E-01   1.00800           0   0.00000       0.00000    
      2140 MEMB     12       POPE     C36      CD32A     2.07980       11.6110           0  -1.66000       1.30000    
      2141 MEMB     12       POPE     DC36     DRUD     -2.23580      0.400000           0   0.00000       0.00000    
      2142 MEMB     12       POPE     H6X      HDA2A    0.780000E-01   1.00800           0   0.00000       0.00000    
      2143 MEMB     12       POPE     H6Y      HDA2A    0.780000E-01   1.00800           0   0.00000       0.00000    
      2144 MEMB     12       POPE     C37      CD32A     2.07980       11.6110           0  -1.66000       1.30000    
      2145 MEMB     12       POPE     DC37     DRUD     -2.23580      0.400000           0   0.00000       0.00000    
      2146 MEMB     12       POPE     H7X      HDA2A    0.780000E-01   1.00800           0   0.00000       0.00000    
      2147 MEMB     12       POPE     H7Y      HDA2A    0.780000E-01   1.00800           0   0.00000       0.00000    
      2148 MEMB     12       POPE     C38      CD32A     2.07980       11.6110           0  -1.66000       1.30000    
      2149 MEMB     12       POPE     DC38     DRUD     -2.23580      0.400000           0   0.00000       0.00000    
      2150 MEMB     12       POPE     H8X      HDA2A    0.780000E-01   1.00800           0   0.00000       0.00000    
      2151 MEMB     12       POPE     H8Y      HDA2A    0.780000E-01   1.00800           0   0.00000       0.00000    
      2152 MEMB     12       POPE     C39      CD32A     2.07980       11.6110           0  -1.66000       1.30000    
      2153 MEMB     12       POPE     DC39     DRUD     -2.23580      0.400000           0   0.00000       0.00000    
      2154 MEMB     12       POPE     H9X      HDA2A    0.780000E-01   1.00800           0   0.00000       0.00000    
      2155 MEMB     12       POPE     H9Y      HDA2A    0.780000E-01   1.00800           0   0.00000       0.00000    
      2156 MEMB     12       POPE     C310     CD32A     2.07980       11.6110           0  -1.66000       1.30000    
      2157 MEMB     12       POPE     DC310    DRUD     -2.23580      0.400000           0   0.00000       0.00000    
      2158 MEMB     12       POPE     H10X     HDA2A    0.780000E-01   1.00800           0   0.00000       0.00000    
      2159 MEMB     12       POPE     H10Y     HDA2A    0.780000E-01   1.00800           0   0.00000       0.00000    
      2160 MEMB     12       POPE     C311     CD32A     2.07980       11.6110           0  -1.66000       1.30000    
      2161 MEMB     12       POPE     DC311    DRUD     -2.23580      0.400000           0   0.00000       0.00000    
      2162 MEMB     12       POPE     H11X     HDA2A    0.780000E-01   1.00800           0   0.00000       0.00000    
      2163 MEMB     12       POPE     H11Y     HDA2A    0.780000E-01   1.00800           0   0.00000       0.00000    
      2164 MEMB     12       POPE     C312     CD32A     2.07980       11.6110           0  -1.66000       1.30000    
      2165 MEMB     12       POPE     DC312    DRUD     -2.23580      0.400000           0   0.00000       0.00000    
      2166 MEMB     12       POPE     H12X     HDA2A    0.780000E-01   1.00800           0   0.00000       0.00000    
      2167 MEMB     12       POPE     H12Y     HDA2A    0.780000E-01   1.00800           0   0.00000       0.00000    
      2168 MEMB     12       POPE     C313     CD32A     2.07980       11.6110           0  -1.66000       1.30000    
      2169 MEMB     12       POPE     DC313    DRUD     -2.23580      0.400000           0   0.00000       0.00000    
      2170 MEMB     12       POPE     H13X     HDA2A    0.780000E-01   1.00800           0   0.00000       0.00000    
      2171 MEMB     12       POPE     H13Y     HDA2A    0.780000E-01   1.00800           0   0.00000       0.00000    
      2172 MEMB     12       POPE     C314     CD32A     2.07980       11.6110           0  -1.66000       1.30000    
      2173 MEMB     12       POPE     DC314    DRUD     -2.23580      0.400000           0   0.00000       0.00000    
      2174 MEMB     12       POPE     H14X     HDA2A    0.780000E-01   1.00800           0   0.00000       0.00000    
      2175 MEMB     12       POPE     H14Y     HDA2A    0.780000E-01   1.00800           0   0.00000       0.00000    
      2176 MEMB     12       POPE     C315     CD32A     2.07980       11.6110           0  -1.66000       1.30000    
      2177 MEMB     12       POPE     DC315    DRUD     -2.23580      0.400000           0   0.00000       0.00000    
      2178 MEMB     12       POPE     H15X     HDA2A    0.780000E-01   1.00800           0   0.00000       0.00000    
      2179 MEMB     12       POPE     H15Y     HDA2A    0.780000E-01   1.00800           0   0.00000       0.00000    
      2180 MEMB     12       POPE     C316     CD33A     2.30820       11.6110           0  -2.05100       1.30000    
      2181 MEMB     12       POPE     DC316    DRUD     -2.48520      0.400000           0   0.00000       0.00000    
      2182 MEMB     12       POPE     H16X     HDA3A    0.590000E-01   1.00800           0   0.00000       0.00000    
      2183 MEMB     12       POPE     H16Y     HDA3A    0.590000E-01   1.00800           0   0.00000       0.00000    
      2184 MEMB     12       POPE     H16Z     HDA3A    0.590000E-01   1.00800           0   0.00000       0.00000    
      2185 MEMB     13       POPE     N        ND3P3A    1.62810       13.6070           0  -1.29800      0.895000    
      2186 MEMB     13       POPE     DN       DRUD     -1.97710      0.400000           0   0.00000       0.00000    
      2187 MEMB     13       POPE     HN1      HDP1B    0.340000       1.00800           0   0.00000       0.00000    
      2188 MEMB     13       POPE     HN2      HDP1B    0.340000       1.00800           0   0.00000       0.00000    
      2189 MEMB     13       POPE     HN3      HDP1B    0.340000       1.00800           0   0.00000       0.00000    
      2190 MEMB     13       POPE     C12      CD32A     2.27610       11.6110           0  -1.65600      0.895000    
      2191 MEMB     13       POPE     DC12     DRUD     -2.23310      0.400000           0   0.00000       0.00000    
      2192 MEMB     13       POPE     H12A     HDA2A    0.143000       1.00800           0   0.00000       0.00000    
      2193 MEMB     13       POPE     H12B     HDA2A    0.143000       1.00800           0   0.00000       0.00000    
      2194 MEMB     13       POPE     C11      CD32A     2.42220       11.6110           0  -1.64200      0.862000    
      2195 MEMB     13       POPE     DC11     DRUD     -2.22370      0.400000           0   0.00000       0.00000    
      2196 MEMB     13       POPE     H11A     HDA2A    0.260000E-01   1.00800           0   0.00000       0.00000    
      2197 MEMB     13       POPE     H11B     HDA2A    0.260000E-01   1.00800           0   0.00000       0.00000    
      2198 MEMB     13       POPE     P        PD1A      2.90360       30.5740           0 -0.974000       2.09800    
      2199 MEMB     13       POPE     DP       DRUD     -1.71260      0.400000           0   0.00000       0.00000    
      2200 MEMB     13       POPE     O13      OD2C2B   0.798400       15.5994           0 -0.931000       1.08300    
      2201 MEMB     13       POPE     DO13     DRUD     -1.67440      0.400000           0   0.00000       0.00000    
      2202 MEMB     13       POPE     O14      OD2C2B   0.798400       15.5994           0 -0.931000       1.08300    
      2203 MEMB     13       POPE     DO14     DRUD     -1.67440      0.400000           0   0.00000       0.00000    
      2204 MEMB     13       POPE     O11      OD30B     1.17720       15.5994           0 -0.901000      0.181000    
      2205 MEMB     13       POPE     DO11     DRUD     -1.64720      0.400000           0   0.00000       0.00000    
      2206 MEMB     13       POPE     O12      OD30B     1.17720       15.5994           0 -0.901000      0.181000    
      2207 MEMB     13       POPE     DO12     DRUD     -1.64720      0.400000           0   0.00000       0.00000    
      2208 MEMB     13       POPE     C1       CD32A     2.42220       11.6110           0  -1.64200      0.862000    
      2209 MEMB     13       POPE     DC1      DRUD     -2.22370      0.400000           0   0.00000       0.00000    
      2210 MEMB     13       POPE     HA       HDA2A    0.260000E-01   1.00800           0   0.00000       0.00000    
      2211 MEMB     13       POPE     HB       HDA2A    0.260000E-01   1.00800           0   0.00000       0.00000    
      2212 MEMB     13       POPE     C2       CD31C     2.52830       11.6110           0  -1.79700      0.410000    
      2213 MEMB     13       POPE     DC2      DRUD     -2.32630      0.400000           0   0.00000       0.00000    
      2214 MEMB     13       POPE     HS       HDA1A    0.116000       1.00800           0   0.00000       0.00000    
      2215 MEMB     13       POPE     O21      OD30CL    1.48470       15.5994           0 -0.732000      0.601000    
      2216 MEMB     13       POPE     DO21     DRUD     -1.48470      0.400000           0   0.00000       0.00000    
      2217 MEMB     13       POPE     C21      CD2O3B    2.72820       11.6110           0  -1.37000       1.74700    
      2218 MEMB     13       POPE     DC21     DRUD     -2.03120      0.400000           0   0.00000       0.00000    
      2219 MEMB     13       POPE     O22      OD2C3B    1.64990       15.5994           0 -0.904000      0.565000    
      2220 MEMB     13       POPE     DO22     DRUD     -1.64990      0.400000           0   0.00000       0.00000    
      2221 MEMB     13       POPE     C22      CD32C     2.24380       11.6110           0  -1.99300      0.410000    
      2222 MEMB     13       POPE     DC22     DRUD     -2.44980      0.400000           0   0.00000       0.00000    
      2223 MEMB     13       POPE     H2R      HDA2A    0.690000E-01   1.00800           0   0.00000       0.00000    
      2224 MEMB     13       POPE     H2S      HDA2A    0.690000E-01   1.00800           0   0.00000       0.00000    
      2225 MEMB     13       POPE     LP1A     LPD     -0.349000       0.00000          -1   0.00000       0.00000    
      2226 MEMB     13       POPE     LP1B     LPD     -0.258000       0.00000          -1   0.00000       0.00000    
      2227 MEMB     13       POPE     LPMA     LPD     -0.170000       0.00000          -1   0.00000       0.00000    
      2228 MEMB     13       POPE     LPMB     LPD     -0.170000       0.00000          -1   0.00000       0.00000    
      2229 MEMB     13       POPE     C3       CD32C     2.41230       11.6110           0  -1.79700      0.410000    
      2230 MEMB     13       POPE     DC3      DRUD     -2.32630      0.400000           0   0.00000       0.00000    
      2231 MEMB     13       POPE     HX       HDA2A    0.116000       1.00800           0   0.00000       0.00000    
      2232 MEMB     13       POPE     HY       HDA2A    0.116000       1.00800           0   0.00000       0.00000    
      2233 MEMB     13       POPE     O31      OD30CL    1.48470       15.5994           0 -0.732000      0.601000    
      2234 MEMB     13       POPE     DO31     DRUD     -1.48470      0.400000           0   0.00000       0.00000    
      2235 MEMB     13       POPE     C31      CD2O3B    2.72820       11.6110           0  -1.37000       1.74700    
      2236 MEMB     13       POPE     DC31     DRUD     -2.03120      0.400000           0   0.00000       0.00000    
      2237 MEMB     13       POPE     O32      OD2C3B    1.64990       15.5994           0 -0.904000      0.565000    
      2238 MEMB     13       POPE     DO32     DRUD     -1.64990      0.400000           0   0.00000       0.00000    
      2239 MEMB     13       POPE     C32      CD32C     2.24380       11.6110           0  -1.99300      0.410000    
      2240 MEMB     13       POPE     DC32     DRUD     -2.44980      0.400000           0   0.00000       0.00000    
      2241 MEMB     13       POPE     H2X      HDA2A    0.690000E-01   1.00800           0   0.00000       0.00000    
      2242 MEMB     13       POPE     H2Y      HDA2A    0.690000E-01   1.00800           0   0.00000       0.00000    
      2243 MEMB     13       POPE     LP1C     LPD     -0.349000       0.00000          -1   0.00000       0.00000    
      2244 MEMB     13       POPE     LP1D     LPD     -0.258000       0.00000          -1   0.00000       0.00000    
      2245 MEMB     13       POPE     LPMC     LPD     -0.170000       0.00000          -1   0.00000       0.00000    
      2246 MEMB     13       POPE     LPMD     LPD     -0.170000       0.00000          -1   0.00000       0.00000    
      2247 MEMB     13       POPE     C23      CD32A     2.07980       11.6110           0  -1.66000       1.30000    
      2248 MEMB     13       POPE     DC23     DRUD     -2.23580      0.400000           0   0.00000       0.00000    
      2249 MEMB     13       POPE     H3R      HDA2A    0.780000E-01   1.00800           0   0.00000       0.00000    
      2250 MEMB     13       POPE     H3S      HDA2A    0.780000E-01   1.00800           0   0.00000       0.00000    
      2251 MEMB     13       POPE     C24      CD32A     2.07980       11.6110           0  -1.66000       1.30000    
      2252 MEMB     13       POPE     DC24     DRUD     -2.23580      0.400000           0   0.00000       0.00000    
      2253 MEMB     13       POPE     H4R      HDA2A    0.780000E-01   1.00800           0   0.00000       0.00000    
      2254 MEMB     13       POPE     H4S      HDA2A    0.780000E-01   1.00800           0   0.00000       0.00000    
      2255 MEMB     13       POPE     C25      CD32A     2.07980       11.6110           0  -1.66000       1.30000    
      2256 MEMB     13       POPE     DC25     DRUD     -2.23580      0.400000           0   0.00000       0.00000    
      2257 MEMB     13       POPE     H5R      HDA2A    0.780000E-01   1.00800           0   0.00000       0.00000    
      2258 MEMB     13       POPE     H5S      HDA2A    0.780000E-01   1.00800           0   0.00000       0.00000    
      2259 MEMB     13       POPE     C26      CD32A     2.07980       11.6110           0  -1.66000       1.30000    
      2260 MEMB     13       POPE     DC26     DRUD     -2.23580      0.400000           0   0.00000       0.00000    
      2261 MEMB     13       POPE     H6R      HDA2A    0.780000E-01   1.00800           0   0.00000       0.00000    
      2262 MEMB     13       POPE     H6S      HDA2A    0.780000E-01   1.00800           0   0.00000       0.00000    
      2263 MEMB     13       POPE     C27      CD32A     2.07980       11.6110           0  -1.66000       1.30000    
      2264 MEMB     13       POPE     DC27     DRUD     -2.23580      0.400000           0   0.00000       0.00000    
      2265 MEMB     13       POPE     H7R      HDA2A    0.780000E-01   1.00800           0   0.00000       0.00000    
      2266 MEMB     13       POPE     H7S      HDA2A    0.780000E-01   1.00800           0   0.00000       0.00000    
      2267 MEMB     13       POPE     C28      CD32A     2.07980       11.6110           0  -1.66000       1.30000    
      2268 MEMB     13       POPE     DC28     DRUD     -2.23580      0.400000           0   0.00000       0.00000    
      2269 MEMB     13       POPE     H8R      HDA2A    0.780000E-01   1.00800           0   0.00000       0.00000    
      2270 MEMB     13       POPE     H8S      HDA2A    0.780000E-01   1.00800           0   0.00000       0.00000    
      2271 MEMB     13       POPE     C29      CD2C1A    2.33700       11.6110           0  -1.99000      0.750000    
      2272 MEMB     13       POPE     DC29     DRUD     -2.44800      0.400000           0   0.00000       0.00000    
      2273 MEMB     13       POPE     H91      HD2C1A   0.111000       1.00800           0   0.00000       0.00000    
      2274 MEMB     13       POPE     C210     CD2C1A    2.33700       11.6110           0  -1.99000      0.750000    
      2275 MEMB     13       POPE     DC210    DRUD     -2.44800      0.400000           0   0.00000       0.00000    
      2276 MEMB     13       POPE     H101     HD2C1A   0.111000       1.00800           0   0.00000       0.00000    
      2277 MEMB     13       POPE     C211     CD32A     2.07980       11.6110           0  -1.66000       1.30000    
      2278 MEMB     13       POPE     DC211    DRUD     -2.23580      0.400000           0   0.00000       0.00000    
      2279 MEMB     13       POPE     H11R     HDA2A    0.780000E-01   1.00800           0   0.00000       0.00000    
      2280 MEMB     13       POPE     H11S     HDA2A    0.780000E-01   1.00800           0   0.00000       0.00000    
      2281 MEMB     13       POPE     C212     CD32A     2.07980       11.6110           0  -1.66000       1.30000    
      2282 MEMB     13       POPE     DC212    DRUD     -2.23580      0.400000           0   0.00000       0.00000    
      2283 MEMB     13       POPE     H12R     HDA2A    0.780000E-01   1.00800           0   0.00000       0.00000    
      2284 MEMB     13       POPE     H12S     HDA2A    0.780000E-01   1.00800           0   0.00000       0.00000    
      2285 MEMB     13       POPE     C213     CD32A     2.07980       11.6110           0  -1.66000       1.30000    
      2286 MEMB     13       POPE     DC213    DRUD     -2.23580      0.400000           0   0.00000       0.00000    
      2287 MEMB     13       POPE     H13R     HDA2A    0.780000E-01   1.00800           0   0.00000       0.00000    
      2288 MEMB     13       POPE     H13S     HDA2A    0.780000E-01   1.00800           0   0.00000       0.00000    
      2289 MEMB     13       POPE     C214     CD32A     2.07980       11.6110           0  -1.66000       1.30000    
      2290 MEMB     13       POPE     DC214    DRUD     -2.23580      0.400000           0   0.00000       0.00000    
      2291 MEMB     13       POPE     H14R     HDA2A    0.780000E-01   1.00800           0   0.00000       0.00000    
      2292 MEMB     13       POPE     H14S     HDA2A    0.780000E-01   1.00800           0   0.00000       0.00000    
      2293 MEMB     13       POPE     C215     CD32A     2.07980       11.6110           0  -1.66000       1.30000    
      2294 MEMB     13       POPE     DC215    DRUD     -2.23580      0.400000           0   0.00000       0.00000    
      2295 MEMB     13       POPE     H15R     HDA2A    0.780000E-01   1.00800           0   0.00000       0.00000    
      2296 MEMB     13       POPE     H15S     HDA2A    0.780000E-01   1.00800           0   0.00000       0.00000    
      2297 MEMB     13       POPE     C216     CD32A     2.07980       11.6110           0  -1.66000       1.30000    
      2298 MEMB     13       POPE     DC216    DRUD     -2.23580      0.400000           0   0.00000       0.00000    
      2299 MEMB     13       POPE     H16R     HDA2A    0.780000E-01   1.00800           0   0.00000       0.00000    
      2300 MEMB     13       POPE     H16S     HDA2A    0.780000E-01   1.00800           0   0.00000       0.00000    
      2301 MEMB     13       POPE     C217     CD32A     2.07980       11.6110           0  -1.66000       1.30000    
      2302 MEMB     13       POPE     DC217    DRUD     -2.23580      0.400000           0   0.00000       0.00000    
      2303 MEMB     13       POPE     H17R     HDA2A    0.780000E-01   1.00800           0   0.00000       0.00000    
      2304 MEMB     13       POPE     H17S     HDA2A    0.780000E-01   1.00800           0   0.00000       0.00000    
      2305 MEMB     13       POPE     C218     CD33A     2.30820       11.6110           0  -2.05100       1.30000    
      2306 MEMB     13       POPE     DC218    DRUD     -2.48520      0.400000           0   0.00000       0.00000    
      2307 MEMB     13       POPE     H18R     HDA3A    0.590000E-01   1.00800           0   0.00000       0.00000    
      2308 MEMB     13       POPE     H18S     HDA3A    0.590000E-01   1.00800           0   0.00000       0.00000    
      2309 MEMB     13       POPE     H18T     HDA3A    0.590000E-01   1.00800           0   0.00000       0.00000    
      2310 MEMB     13       POPE     C33      CD32A     2.07980       11.6110           0  -1.66000       1.30000    
      2311 MEMB     13       POPE     DC33     DRUD     -2.23580      0.400000           0   0.00000       0.00000    
      2312 MEMB     13       POPE     H3X      HDA2A    0.780000E-01   1.00800           0   0.00000       0.00000    
      2313 MEMB     13       POPE     H3Y      HDA2A    0.780000E-01   1.00800           0   0.00000       0.00000    
      2314 MEMB     13       POPE     C34      CD32A     2.07980       11.6110           0  -1.66000       1.30000    
      2315 MEMB     13       POPE     DC34     DRUD     -2.23580      0.400000           0   0.00000       0.00000    
      2316 MEMB     13       POPE     H4X      HDA2A    0.780000E-01   1.00800           0   0.00000       0.00000    
      2317 MEMB     13       POPE     H4Y      HDA2A    0.780000E-01   1.00800           0   0.00000       0.00000    
      2318 MEMB     13       POPE     C35      CD32A     2.07980       11.6110           0  -1.66000       1.30000    
      2319 MEMB     13       POPE     DC35     DRUD     -2.23580      0.400000           0   0.00000       0.00000    
      2320 MEMB     13       POPE     H5X      HDA2A    0.780000E-01   1.00800           0   0.00000       0.00000    
      2321 MEMB     13       POPE     H5Y      HDA2A    0.780000E-01   1.00800           0   0.00000       0.00000    
      2322 MEMB     13       POPE     C36      CD32A     2.07980       11.6110           0  -1.66000       1.30000    
      2323 MEMB     13       POPE     DC36     DRUD     -2.23580      0.400000           0   0.00000       0.00000    
      2324 MEMB     13       POPE     H6X      HDA2A    0.780000E-01   1.00800           0   0.00000       0.00000    
      2325 MEMB     13       POPE     H6Y      HDA2A    0.780000E-01   1.00800           0   0.00000       0.00000    
      2326 MEMB     13       POPE     C37      CD32A     2.07980       11.6110           0  -1.66000       1.30000    
      2327 MEMB     13       POPE     DC37     DRUD     -2.23580      0.400000           0   0.00000       0.00000    
      2328 MEMB     13       POPE     H7X      HDA2A    0.780000E-01   1.00800           0   0.00000       0.00000    
      2329 MEMB     13       POPE     H7Y      HDA2A    0.780000E-01   1.00800           0   0.00000       0.00000    
      2330 MEMB     13       POPE     C38      CD32A     2.07980       11.6110           0  -1.66000       1.30000    
      2331 MEMB     13       POPE     DC38     DRUD     -2.23580      0.400000           0   0.00000       0.00000    
      2332 MEMB     13       POPE     H8X      HDA2A    0.780000E-01   1.00800           0   0.00000       0.00000    
      2333 MEMB     13       POPE     H8Y      HDA2A    0.780000E-01   1.00800           0   0.00000       0.00000    
      2334 MEMB     13       POPE     C39      CD32A     2.07980       11.6110           0  -1.66000       1.30000    
      2335 MEMB     13       POPE     DC39     DRUD     -2.23580      0.400000           0   0.00000       0.00000    
      2336 MEMB     13       POPE     H9X      HDA2A    0.780000E-01   1.00800           0   0.00000       0.00000    
      2337 MEMB     13       POPE     H9Y      HDA2A    0.780000E-01   1.00800           0   0.00000       0.00000    
      2338 MEMB     13       POPE     C310     CD32A     2.07980       11.6110           0  -1.66000       1.30000    
      2339 MEMB     13       POPE     DC310    DRUD     -2.23580      0.400000           0   0.00000       0.00000    
      2340 MEMB     13       POPE     H10X     HDA2A    0.780000E-01   1.00800           0   0.00000       0.00000    
      2341 MEMB     13       POPE     H10Y     HDA2A    0.780000E-01   1.00800           0   0.00000       0.00000    
      2342 MEMB     13       POPE     C311     CD32A     2.07980       11.6110           0  -1.66000       1.30000    
      2343 MEMB     13       POPE     DC311    DRUD     -2.23580      0.400000           0   0.00000       0.00000    
      2344 MEMB     13       POPE     H11X     HDA2A    0.780000E-01   1.00800           0   0.00000       0.00000    
      2345 MEMB     13       POPE     H11Y     HDA2A    0.780000E-01   1.00800           0   0.00000       0.00000    
      2346 MEMB     13       POPE     C312     CD32A     2.07980       11.6110           0  -1.66000       1.30000    
      2347 MEMB     13       POPE     DC312    DRUD     -2.23580      0.400000           0   0.00000       0.00000    
      2348 MEMB     13       POPE     H12X     HDA2A    0.780000E-01   1.00800           0   0.00000       0.00000    
      2349 MEMB     13       POPE     H12Y     HDA2A    0.780000E-01   1.00800           0   0.00000       0.00000    
      2350 MEMB     13       POPE     C313     CD32A     2.07980       11.6110           0  -1.66000       1.30000    
      2351 MEMB     13       POPE     DC313    DRUD     -2.23580      0.400000           0   0.00000       0.00000    
      2352 MEMB     13       POPE     H13X     HDA2A    0.780000E-01   1.00800           0   0.00000       0.00000    
      2353 MEMB     13       POPE     H13Y     HDA2A    0.780000E-01   1.00800           0   0.00000       0.00000    
      2354 MEMB     13       POPE     C314     CD32A     2.07980       11.6110           0  -1.66000       1.30000    
      2355 MEMB     13       POPE     DC314    DRUD     -2.23580      0.400000           0   0.00000       0.00000    
      2356 MEMB     13       POPE     H14X     HDA2A    0.780000E-01   1.00800           0   0.00000       0.00000    
      2357 MEMB     13       POPE     H14Y     HDA2A    0.780000E-01   1.00800           0   0.00000       0.00000    
      2358 MEMB     13       POPE     C315     CD32A     2.07980       11.6110           0  -1.66000       1.30000    
      2359 MEMB     13       POPE     DC315    DRUD     -2.23580      0.400000           0   0.00000       0.00000    
      2360 MEMB     13       POPE     H15X     HDA2A    0.780000E-01   1.00800           0   0.00000       0.00000    
      2361 MEMB     13       POPE     H15Y     HDA2A    0.780000E-01   1.00800           0   0.00000       0.00000    
      2362 MEMB     13       POPE     C316     CD33A     2.30820       11.6110           0  -2.05100       1.30000    
      2363 MEMB     13       POPE     DC316    DRUD     -2.48520      0.400000           0   0.00000       0.00000    
      2364 MEMB     13       POPE     H16X     HDA3A    0.590000E-01   1.00800           0   0.00000       0.00000    
      2365 MEMB     13       POPE     H16Y     HDA3A    0.590000E-01   1.00800           0   0.00000       0.00000    
      2366 MEMB     13       POPE     H16Z     HDA3A    0.590000E-01   1.00800           0   0.00000       0.00000    
      2367 MEMB     14       POPE     N        ND3P3A    1.62810       13.6070           0  -1.29800      0.895000    
      2368 MEMB     14       POPE     DN       DRUD     -1.97710      0.400000           0   0.00000       0.00000    
      2369 MEMB     14       POPE     HN1      HDP1B    0.340000       1.00800           0   0.00000       0.00000    
      2370 MEMB     14       POPE     HN2      HDP1B    0.340000       1.00800           0   0.00000       0.00000    
      2371 MEMB     14       POPE     HN3      HDP1B    0.340000       1.00800           0   0.00000       0.00000    
      2372 MEMB     14       POPE     C12      CD32A     2.27610       11.6110           0  -1.65600      0.895000    
      2373 MEMB     14       POPE     DC12     DRUD     -2.23310      0.400000           0   0.00000       0.00000    
      2374 MEMB     14       POPE     H12A     HDA2A    0.143000       1.00800           0   0.00000       0.00000    
      2375 MEMB     14       POPE     H12B     HDA2A    0.143000       1.00800           0   0.00000       0.00000    
      2376 MEMB     14       POPE     C11      CD32A     2.42220       11.6110           0  -1.64200      0.862000    
      2377 MEMB     14       POPE     DC11     DRUD     -2.22370      0.400000           0   0.00000       0.00000    
      2378 MEMB     14       POPE     H11A     HDA2A    0.260000E-01   1.00800           0   0.00000       0.00000    
      2379 MEMB     14       POPE     H11B     HDA2A    0.260000E-01   1.00800           0   0.00000       0.00000    
      2380 MEMB     14       POPE     P        PD1A      2.90360       30.5740           0 -0.974000       2.09800    
      2381 MEMB     14       POPE     DP       DRUD     -1.71260      0.400000           0   0.00000       0.00000    
      2382 MEMB     14       POPE     O13      OD2C2B   0.798400       15.5994           0 -0.931000       1.08300    
      2383 MEMB     14       POPE     DO13     DRUD     -1.67440      0.400000           0   0.00000       0.00000    
      2384 MEMB     14       POPE     O14      OD2C2B   0.798400       15.5994           0 -0.931000       1.08300    
      2385 MEMB     14       POPE     DO14     DRUD     -1.67440      0.400000           0   0.00000       0.00000    
      2386 MEMB     14       POPE     O11      OD30B     1.17720       15.5994           0 -0.901000      0.181000    
      2387 MEMB     14       POPE     DO11     DRUD     -1.64720      0.400000           0   0.00000       0.00000    
      2388 MEMB     14       POPE     O12      OD30B     1.17720       15.5994           0 -0.901000      0.181000    
      2389 MEMB     14       POPE     DO12     DRUD     -1.64720      0.400000           0   0.00000       0.00000    
      2390 MEMB     14       POPE     C1       CD32A     2.42220       11.6110           0  -1.64200      0.862000    
      2391 MEMB     14       POPE     DC1      DRUD     -2.22370      0.400000           0   0.00000       0.00000    
      2392 MEMB     14       POPE     HA       HDA2A    0.260000E-01   1.00800           0   0.00000       0.00000    
      2393 MEMB     14       POPE     HB       HDA2A    0.260000E-01   1.00800           0   0.00000       0.00000    
      2394 MEMB     14       POPE     C2       CD31C     2.52830       11.6110           0  -1.79700      0.410000    
      2395 MEMB     14       POPE     DC2      DRUD     -2.32630      0.400000           0   0.00000       0.00000    
      2396 MEMB     14       POPE     HS       HDA1A    0.116000       1.00800           0   0.00000       0.00000    
      2397 MEMB     14       POPE     O21      OD30CL    1.48470       15.5994           0 -0.732000      0.601000    
      2398 MEMB     14       POPE     DO21     DRUD     -1.48470      0.400000           0   0.00000       0.00000    
      2399 MEMB     14       POPE     C21      CD2O3B    2.72820       11.6110           0  -1.37000       1.74700    
      2400 MEMB     14       POPE     DC21     DRUD     -2.03120      0.400000           0   0.00000       0.00000    
      2401 MEMB     14       POPE     O22      OD2C3B    1.64990       15.5994           0 -0.904000      0.565000    
      2402 MEMB     14       POPE     DO22     DRUD     -1.64990      0.400000           0   0.00000       0.00000    
      2403 MEMB     14       POPE     C22      CD32C     2.24380       11.6110           0  -1.99300      0.410000    
      2404 MEMB     14       POPE     DC22     DRUD     -2.44980      0.400000           0   0.00000       0.00000    
      2405 MEMB     14       POPE     H2R      HDA2A    0.690000E-01   1.00800           0   0.00000       0.00000    
      2406 MEMB     14       POPE     H2S      HDA2A    0.690000E-01   1.00800           0   0.00000       0.00000    
      2407 MEMB     14       POPE     LP1A     LPD     -0.349000       0.00000          -1   0.00000       0.00000    
      2408 MEMB     14       POPE     LP1B     LPD     -0.258000       0.00000          -1   0.00000       0.00000    
      2409 MEMB     14       POPE     LPMA     LPD     -0.170000       0.00000          -1   0.00000       0.00000    
      2410 MEMB     14       POPE     LPMB     LPD     -0.170000       0.00000          -1   0.00000       0.00000    
      2411 MEMB     14       POPE     C3       CD32C     2.41230       11.6110           0  -1.79700      0.410000    
      2412 MEMB     14       POPE     DC3      DRUD     -2.32630      0.400000           0   0.00000       0.00000    
      2413 MEMB     14       POPE     HX       HDA2A    0.116000       1.00800           0   0.00000       0.00000    
      2414 MEMB     14       POPE     HY       HDA2A    0.116000       1.00800           0   0.00000       0.00000    
      2415 MEMB     14       POPE     O31      OD30CL    1.48470       15.5994           0 -0.732000      0.601000    
      2416 MEMB     14       POPE     DO31     DRUD     -1.48470      0.400000           0   0.00000       0.00000    
      2417 MEMB     14       POPE     C31      CD2O3B    2.72820       11.6110           0  -1.37000       1.74700    
      2418 MEMB     14       POPE     DC31     DRUD     -2.03120      0.400000           0   0.00000       0.00000    
      2419 MEMB     14       POPE     O32      OD2C3B    1.64990       15.5994           0 -0.904000      0.565000    
      2420 MEMB     14       POPE     DO32     DRUD     -1.64990      0.400000           0   0.00000       0.00000    
      2421 MEMB     14       POPE     C32      CD32C     2.24380       11.6110           0  -1.99300      0.410000    
      2422 MEMB     14       POPE     DC32     DRUD     -2.44980      0.400000           0   0.00000       0.00000    
      2423 MEMB     14       POPE     H2X      HDA2A    0.690000E-01   1.00800           0   0.00000       0.00000    
      2424 MEMB     14       POPE     H2Y      HDA2A    0.690000E-01   1.00800           0   0.00000       0.00000    
      2425 MEMB     14       POPE     LP1C     LPD     -0.349000       0.00000          -1   0.00000       0.00000    
      2426 MEMB     14       POPE     LP1D     LPD     -0.258000       0.00000          -1   0.00000       0.00000    
      2427 MEMB     14       POPE     LPMC     LPD     -0.170000       0.00000          -1   0.00000       0.00000    
      2428 MEMB     14       POPE     LPMD     LPD     -0.170000       0.00000          -1   0.00000       0.00000    
      2429 MEMB     14       POPE     C23      CD32A     2.07980       11.6110           0  -1.66000       1.30000    
      2430 MEMB     14       POPE     DC23     DRUD     -2.23580      0.400000           0   0.00000       0.00000    
      2431 MEMB     14       POPE     H3R      HDA2A    0.780000E-01   1.00800           0   0.00000       0.00000    
      2432 MEMB     14       POPE     H3S      HDA2A    0.780000E-01   1.00800           0   0.00000       0.00000    
      2433 MEMB     14       POPE     C24      CD32A     2.07980       11.6110           0  -1.66000       1.30000    
      2434 MEMB     14       POPE     DC24     DRUD     -2.23580      0.400000           0   0.00000       0.00000    
      2435 MEMB     14       POPE     H4R      HDA2A    0.780000E-01   1.00800           0   0.00000       0.00000    
      2436 MEMB     14       POPE     H4S      HDA2A    0.780000E-01   1.00800           0   0.00000       0.00000    
      2437 MEMB     14       POPE     C25      CD32A     2.07980       11.6110           0  -1.66000       1.30000    
      2438 MEMB     14       POPE     DC25     DRUD     -2.23580      0.400000           0   0.00000       0.00000    
      2439 MEMB     14       POPE     H5R      HDA2A    0.780000E-01   1.00800           0   0.00000       0.00000    
      2440 MEMB     14       POPE     H5S      HDA2A    0.780000E-01   1.00800           0   0.00000       0.00000    
      2441 MEMB     14       POPE     C26      CD32A     2.07980       11.6110           0  -1.66000       1.30000    
      2442 MEMB     14       POPE     DC26     DRUD     -2.23580      0.400000           0   0.00000       0.00000    
      2443 MEMB     14       POPE     H6R      HDA2A    0.780000E-01   1.00800           0   0.00000       0.00000    
      2444 MEMB     14       POPE     H6S      HDA2A    0.780000E-01   1.00800           0   0.00000       0.00000    
      2445 MEMB     14       POPE     C27      CD32A     2.07980       11.6110           0  -1.66000       1.30000    
      2446 MEMB     14       POPE     DC27     DRUD     -2.23580      0.400000           0   0.00000       0.00000    
      2447 MEMB     14       POPE     H7R      HDA2A    0.780000E-01   1.00800           0   0.00000       0.00000    
      2448 MEMB     14       POPE     H7S      HDA2A    0.780000E-01   1.00800           0   0.00000       0.00000    
      2449 MEMB     14       POPE     C28      CD32A     2.07980       11.6110           0  -1.66000       1.30000    
      2450 MEMB     14       POPE     DC28     DRUD     -2.23580      0.400000           0   0.00000       0.00000    
      2451 MEMB     14       POPE     H8R      HDA2A    0.780000E-01   1.00800           0   0.00000       0.00000    
      2452 MEMB     14       POPE     H8S      HDA2A    0.780000E-01   1.00800           0   0.00000       0.00000    
      2453 MEMB     14       POPE     C29      CD2C1A    2.33700       11.6110           0  -1.99000      0.750000    
      2454 MEMB     14       POPE     DC29     DRUD     -2.44800      0.400000           0   0.00000       0.00000    
      2455 MEMB     14       POPE     H91      HD2C1A   0.111000       1.00800           0   0.00000       0.00000    
      2456 MEMB     14       POPE     C210     CD2C1A    2.33700       11.6110           0  -1.99000      0.750000    
      2457 MEMB     14       POPE     DC210    DRUD     -2.44800      0.400000           0   0.00000       0.00000    
      2458 MEMB     14       POPE     H101     HD2C1A   0.111000       1.00800           0   0.00000       0.00000    
      2459 MEMB     14       POPE     C211     CD32A     2.07980       11.6110           0  -1.66000       1.30000    
      2460 MEMB     14       POPE     DC211    DRUD     -2.23580      0.400000           0   0.00000       0.00000    
      2461 MEMB     14       POPE     H11R     HDA2A    0.780000E-01   1.00800           0   0.00000       0.00000    
      2462 MEMB     14       POPE     H11S     HDA2A    0.780000E-01   1.00800           0   0.00000       0.00000    
      2463 MEMB     14       POPE     C212     CD32A     2.07980       11.6110           0  -1.66000       1.30000    
      2464 MEMB     14       POPE     DC212    DRUD     -2.23580      0.400000           0   0.00000       0.00000    
      2465 MEMB     14       POPE     H12R     HDA2A    0.780000E-01   1.00800           0   0.00000       0.00000    
      2466 MEMB     14       POPE     H12S     HDA2A    0.780000E-01   1.00800           0   0.00000       0.00000    
      2467 MEMB     14       POPE     C213     CD32A     2.07980       11.6110           0  -1.66000       1.30000    
      2468 MEMB     14       POPE     DC213    DRUD     -2.23580      0.400000           0   0.00000       0.00000    
      2469 MEMB     14       POPE     H13R     HDA2A    0.780000E-01   1.00800           0   0.00000       0.00000    
      2470 MEMB     14       POPE     H13S     HDA2A    0.780000E-01   1.00800           0   0.00000       0.00000    
      2471 MEMB     14       POPE     C214     CD32A     2.07980       11.6110           0  -1.66000       1.30000    
      2472 MEMB     14       POPE     DC214    DRUD     -2.23580      0.400000           0   0.00000       0.00000    
      2473 MEMB     14       POPE     H14R     HDA2A    0.780000E-01   1.00800           0   0.00000       0.00000    
      2474 MEMB     14       POPE     H14S     HDA2A    0.780000E-01   1.00800           0   0.00000       0.00000    
      2475 MEMB     14       POPE     C215     CD32A     2.07980       11.6110           0  -1.66000       1.30000    
      2476 MEMB     14       POPE     DC215    DRUD     -2.23580      0.400000           0   0.00000       0.00000    
      2477 MEMB     14       POPE     H15R     HDA2A    0.780000E-01   1.00800           0   0.00000       0.00000    
      2478 MEMB     14       POPE     H15S     HDA2A    0.780000E-01   1.00800           0   0.00000       0.00000    
      2479 MEMB     14       POPE     C216     CD32A     2.07980       11.6110           0  -1.66000       1.30000    
      2480 MEMB     14       POPE     DC216    DRUD     -2.23580      0.400000           0   0.00000       0.00000    
      2481 MEMB     14       POPE     H16R     HDA2A    0.780000E-01   1.00800           0   0.00000       0.00000    
      2482 MEMB     14       POPE     H16S     HDA2A    0.780000E-01   1.00800           0   0.00000       0.00000    
      2483 MEMB     14       POPE     C217     CD32A     2.07980       11.6110           0  -1.66000       1.30000    
      2484 MEMB     14       POPE     DC217    DRUD     -2.23580      0.400000           0   0.00000       0.00000    
      2485 MEMB     14       POPE     H17R     HDA2A    0.780000E-01   1.00800           0   0.00000       0.00000    
      2486 MEMB     14       POPE     H17S     HDA2A    0.780000E-01   1.00800           0   0.00000       0.00000    
      2487 MEMB     14       POPE     C218     CD33A     2.30820       11.6110           0  -2.05100       1.30000    
      2488 MEMB     14       POPE     DC218    DRUD     -2.48520      0.400000           0   0.00000       0.00000    
      2489 MEMB     14       POPE     H18R     HDA3A    0.590000E-01   1.00800           0   0.00000       0.00000    
      2490 MEMB     14       POPE     H18S     HDA3A    0.590000E-01   1.00800           0   0.00000       0.00000    
      2491 MEMB     14       POPE     H18T     HDA3A    0.590000E-01   1.00800           0   0.00000       0.00000    
      2492 MEMB     14       POPE     C33      CD32A     2.07980       11.6110           0  -1.66000       1.30000    
      2493 MEMB     14       POPE     DC33     DRUD     -2.23580      0.400000           0   0.00000       0.00000    
      2494 MEMB     14       POPE     H3X      HDA2A    0.780000E-01   1.00800           0   0.00000       0.00000    
      2495 MEMB     14       POPE     H3Y      HDA2A    0.780000E-01   1.00800           0   0.00000       0.00000    
      2496 MEMB     14       POPE     C34      CD32A     2.07980       11.6110           0  -1.66000       1.30000    
      2497 MEMB     14       POPE     DC34     DRUD     -2.23580      0.400000           0   0.00000       0.00000    
      2498 MEMB     14       POPE     H4X      HDA2A    0.780000E-01   1.00800           0   0.00000       0.00000    
      2499 MEMB     14       POPE     H4Y      HDA2A    0.780000E-01   1.00800           0   0.00000       0.00000    
      2500 MEMB     14       POPE     C35      CD32A     2.07980       11.6110           0  -1.66000       1.30000    
      2501 MEMB     14       POPE     DC35     DRUD     -2.23580      0.400000           0   0.00000       0.00000    
      2502 MEMB     14       POPE     H5X      HDA2A    0.780000E-01   1.00800           0   0.00000       0.00000    
      2503 MEMB     14       POPE     H5Y      HDA2A    0.780000E-01   1.00800           0   0.00000       0.00000    
      2504 MEMB     14       POPE     C36      CD32A     2.07980       11.6110           0  -1.66000       1.30000    
      2505 MEMB     14       POPE     DC36     DRUD     -2.23580      0.400000           0   0.00000       0.00000    
      2506 MEMB     14       POPE     H6X      HDA2A    0.780000E-01   1.00800           0   0.00000       0.00000    
      2507 MEMB     14       POPE     H6Y      HDA2A    0.780000E-01   1.00800           0   0.00000       0.00000    
      2508 MEMB     14       POPE     C37      CD32A     2.07980       11.6110           0  -1.66000       1.30000    
      2509 MEMB     14       POPE     DC37     DRUD     -2.23580      0.400000           0   0.00000       0.00000    
      2510 MEMB     14       POPE     H7X      HDA2A    0.780000E-01   1.00800           0   0.00000       0.00000    
      2511 MEMB     14       POPE     H7Y      HDA2A    0.780000E-01   1.00800           0   0.00000       0.00000    
      2512 MEMB     14       POPE     C38      CD32A     2.07980       11.6110           0  -1.66000       1.30000    
      2513 MEMB     14       POPE     DC38     DRUD     -2.23580      0.400000           0   0.00000       0.00000    
      2514 MEMB     14       POPE     H8X      HDA2A    0.780000E-01   1.00800           0   0.00000       0.00000    
      2515 MEMB     14       POPE     H8Y      HDA2A    0.780000E-01   1.00800           0   0.00000       0.00000    
      2516 MEMB     14       POPE     C39      CD32A     2.07980       11.6110           0  -1.66000       1.30000    
      2517 MEMB     14       POPE     DC39     DRUD     -2.23580      0.400000           0   0.00000       0.00000    
      2518 MEMB     14       POPE     H9X      HDA2A    0.780000E-01   1.00800           0   0.00000       0.00000    
      2519 MEMB     14       POPE     H9Y      HDA2A    0.780000E-01   1.00800           0   0.00000       0.00000    
      2520 MEMB     14       POPE     C310     CD32A     2.07980       11.6110           0  -1.66000       1.30000    
      2521 MEMB     14       POPE     DC310    DRUD     -2.23580      0.400000           0   0.00000       0.00000    
      2522 MEMB     14       POPE     H10X     HDA2A    0.780000E-01   1.00800           0   0.00000       0.00000    
      2523 MEMB     14       POPE     H10Y     HDA2A    0.780000E-01   1.00800           0   0.00000       0.00000    
      2524 MEMB     14       POPE     C311     CD32A     2.07980       11.6110           0  -1.66000       1.30000    
      2525 MEMB     14       POPE     DC311    DRUD     -2.23580      0.400000           0   0.00000       0.00000    
      2526 MEMB     14       POPE     H11X     HDA2A    0.780000E-01   1.00800           0   0.00000       0.00000    
      2527 MEMB     14       POPE     H11Y     HDA2A    0.780000E-01   1.00800           0   0.00000       0.00000    
      2528 MEMB     14       POPE     C312     CD32A     2.07980       11.6110           0  -1.66000       1.30000    
      2529 MEMB     14       POPE     DC312    DRUD     -2.23580      0.400000           0   0.00000       0.00000    
      2530 MEMB     14       POPE     H12X     HDA2A    0.780000E-01   1.00800           0   0.00000       0.00000    
      2531 MEMB     14       POPE     H12Y     HDA2A    0.780000E-01   1.00800           0   0.00000       0.00000    
      2532 MEMB     14       POPE     C313     CD32A     2.07980       11.6110           0  -1.66000       1.30000    
      2533 MEMB     14       POPE     DC313    DRUD     -2.23580      0.400000           0   0.00000       0.00000    
      2534 MEMB     14       POPE     H13X     HDA2A    0.780000E-01   1.00800           0   0.00000       0.00000    
      2535 MEMB     14       POPE     H13Y     HDA2A    0.780000E-01   1.00800           0   0.00000       0.00000    
      2536 MEMB     14       POPE     C314     CD32A     2.07980       11.6110           0  -1.66000       1.30000    
      2537 MEMB     14       POPE     DC314    DRUD     -2.23580      0.400000           0   0.00000       0.00000    
      2538 MEMB     14       POPE     H14X     HDA2A    0.780000E-01   1.00800           0   0.00000       0.00000    
      2539 MEMB     14       POPE     H14Y     HDA2A    0.780000E-01   1.00800           0   0.00000       0.00000    
      2540 MEMB     14       POPE     C315     CD32A     2.07980       11.6110           0  -1.66000       1.30000    
      2541 MEMB     14       POPE     DC315    DRUD     -2.23580      0.400000           0   0.00000       0.00000    
      2542 MEMB     14       POPE     H15X     HDA2A    0.780000E-01   1.00800           0   0.00000       0.00000    
      2543 MEMB     14       POPE     H15Y     HDA2A    0.780000E-01   1.00800           0   0.00000       0.00000    
      2544 MEMB     14       POPE     C316     CD33A     2.30820       11.6110           0  -2.05100       1.30000    
      2545 MEMB     14       POPE     DC316    DRUD     -2.48520      0.400000           0   0.00000       0.00000    
      2546 MEMB     14       POPE     H16X     HDA3A    0.590000E-01   1.00800           0   0.00000       0.00000    
      2547 MEMB     14       POPE     H16Y     HDA3A    0.590000E-01   1.00800           0   0.00000       0.00000    
      2548 MEMB     14       POPE     H16Z     HDA3A    0.590000E-01   1.00800           0   0.00000       0.00000    
      2549 MEMB     15       POPE     N        ND3P3A    1.62810       13.6070           0  -1.29800      0.895000    
      2550 MEMB     15       POPE     DN       DRUD     -1.97710      0.400000           0   0.00000       0.00000    
      2551 MEMB     15       POPE     HN1      HDP1B    0.340000       1.00800           0   0.00000       0.00000    
      2552 MEMB     15       POPE     HN2      HDP1B    0.340000       1.00800           0   0.00000       0.00000    
      2553 MEMB     15       POPE     HN3      HDP1B    0.340000       1.00800           0   0.00000       0.00000    
      2554 MEMB     15       POPE     C12      CD32A     2.27610       11.6110           0  -1.65600      0.895000    
      2555 MEMB     15       POPE     DC12     DRUD     -2.23310      0.400000           0   0.00000       0.00000    
      2556 MEMB     15       POPE     H12A     HDA2A    0.143000       1.00800           0   0.00000       0.00000    
      2557 MEMB     15       POPE     H12B     HDA2A    0.143000       1.00800           0   0.00000       0.00000    
      2558 MEMB     15       POPE     C11      CD32A     2.42220       11.6110           0  -1.64200      0.862000    
      2559 MEMB     15       POPE     DC11     DRUD     -2.22370      0.400000           0   0.00000       0.00000    
      2560 MEMB     15       POPE     H11A     HDA2A    0.260000E-01   1.00800           0   0.00000       0.00000    
      2561 MEMB     15       POPE     H11B     HDA2A    0.260000E-01   1.00800           0   0.00000       0.00000    
      2562 MEMB     15       POPE     P        PD1A      2.90360       30.5740           0 -0.974000       2.09800    
      2563 MEMB     15       POPE     DP       DRUD     -1.71260      0.400000           0   0.00000       0.00000    
      2564 MEMB     15       POPE     O13      OD2C2B   0.798400       15.5994           0 -0.931000       1.08300    
      2565 MEMB     15       POPE     DO13     DRUD     -1.67440      0.400000           0   0.00000       0.00000    
      2566 MEMB     15       POPE     O14      OD2C2B   0.798400       15.5994           0 -0.931000       1.08300    
      2567 MEMB     15       POPE     DO14     DRUD     -1.67440      0.400000           0   0.00000       0.00000    
      2568 MEMB     15       POPE     O11      OD30B     1.17720       15.5994           0 -0.901000      0.181000    
      2569 MEMB     15       POPE     DO11     DRUD     -1.64720      0.400000           0   0.00000       0.00000    
      2570 MEMB     15       POPE     O12      OD30B     1.17720       15.5994           0 -0.901000      0.181000    
      2571 MEMB     15       POPE     DO12     DRUD     -1.64720      0.400000           0   0.00000       0.00000    
      2572 MEMB     15       POPE     C1       CD32A     2.42220       11.6110           0  -1.64200      0.862000    
      2573 MEMB     15       POPE     DC1      DRUD     -2.22370      0.400000           0   0.00000       0.00000    
      2574 MEMB     15       POPE     HA       HDA2A    0.260000E-01   1.00800           0   0.00000       0.00000    
      2575 MEMB     15       POPE     HB       HDA2A    0.260000E-01   1.00800           0   0.00000       0.00000    
      2576 MEMB     15       POPE     C2       CD31C     2.52830       11.6110           0  -1.79700      0.410000    
      2577 MEMB     15       POPE     DC2      DRUD     -2.32630      0.400000           0   0.00000       0.00000    
      2578 MEMB     15       POPE     HS       HDA1A    0.116000       1.00800           0   0.00000       0.00000    
      2579 MEMB     15       POPE     O21      OD30CL    1.48470       15.5994           0 -0.732000      0.601000    
      2580 MEMB     15       POPE     DO21     DRUD     -1.48470      0.400000           0   0.00000       0.00000    
      2581 MEMB     15       POPE     C21      CD2O3B    2.72820       11.6110           0  -1.37000       1.74700    
      2582 MEMB     15       POPE     DC21     DRUD     -2.03120      0.400000           0   0.00000       0.00000    
      2583 MEMB     15       POPE     O22      OD2C3B    1.64990       15.5994           0 -0.904000      0.565000    
      2584 MEMB     15       POPE     DO22     DRUD     -1.64990      0.400000           0   0.00000       0.00000    
      2585 MEMB     15       POPE     C22      CD32C     2.24380       11.6110           0  -1.99300      0.410000    
      2586 MEMB     15       POPE     DC22     DRUD     -2.44980      0.400000           0   0.00000       0.00000    
      2587 MEMB     15       POPE     H2R      HDA2A    0.690000E-01   1.00800           0   0.00000       0.00000    
      2588 MEMB     15       POPE     H2S      HDA2A    0.690000E-01   1.00800           0   0.00000       0.00000    
      2589 MEMB     15       POPE     LP1A     LPD     -0.349000       0.00000          -1   0.00000       0.00000    
      2590 MEMB     15       POPE     LP1B     LPD     -0.258000       0.00000          -1   0.00000       0.00000    
      2591 MEMB     15       POPE     LPMA     LPD     -0.170000       0.00000          -1   0.00000       0.00000    
      2592 MEMB     15       POPE     LPMB     LPD     -0.170000       0.00000          -1   0.00000       0.00000    
      2593 MEMB     15       POPE     C3       CD32C     2.41230       11.6110           0  -1.79700      0.410000    
      2594 MEMB     15       POPE     DC3      DRUD     -2.32630      0.400000           0   0.00000       0.00000    
      2595 MEMB     15       POPE     HX       HDA2A    0.116000       1.00800           0   0.00000       0.00000    
      2596 MEMB     15       POPE     HY       HDA2A    0.116000       1.00800           0   0.00000       0.00000    
      2597 MEMB     15       POPE     O31      OD30CL    1.48470       15.5994           0 -0.732000      0.601000    
      2598 MEMB     15       POPE     DO31     DRUD     -1.48470      0.400000           0   0.00000       0.00000    
      2599 MEMB     15       POPE     C31      CD2O3B    2.72820       11.6110           0  -1.37000       1.74700    
      2600 MEMB     15       POPE     DC31     DRUD     -2.03120      0.400000           0   0.00000       0.00000    
      2601 MEMB     15       POPE     O32      OD2C3B    1.64990       15.5994           0 -0.904000      0.565000    
      2602 MEMB     15       POPE     DO32     DRUD     -1.64990      0.400000           0   0.00000       0.00000    
      2603 MEMB     15       POPE     C32      CD32C     2.24380       11.6110           0  -1.99300      0.410000    
      2604 MEMB     15       POPE     DC32     DRUD     -2.44980      0.400000           0   0.00000       0.00000    
      2605 MEMB     15       POPE     H2X      HDA2A    0.690000E-01   1.00800           0   0.00000       0.00000    
      2606 MEMB     15       POPE     H2Y      HDA2A    0.690000E-01   1.00800           0   0.00000       0.00000    
      2607 MEMB     15       POPE     LP1C     LPD     -0.349000       0.00000          -1   0.00000       0.00000    
      2608 MEMB     15       POPE     LP1D     LPD     -0.258000       0.00000          -1   0.00000       0.00000    
      2609 MEMB     15       POPE     LPMC     LPD     -0.170000       0.00000          -1   0.00000       0.00000    
      2610 MEMB     15       POPE     LPMD     LPD     -0.170000       0.00000          -1   0.00000       0.00000    
      2611 MEMB     15       POPE     C23      CD32A     2.07980       11.6110           0  -1.66000       1.30000    
      2612 MEMB     15       POPE     DC23     DRUD     -2.23580      0.400000           0   0.00000       0.00000    
      2613 MEMB     15       POPE     H3R      HDA2A    0.780000E-01   1.00800           0   0.00000       0.00000    
      2614 MEMB     15       POPE     H3S      HDA2A    0.780000E-01   1.00800           0   0.00000       0.00000    
      2615 MEMB     15       POPE     C24      CD32A     2.07980       11.6110           0  -1.66000       1.30000    
      2616 MEMB     15       POPE     DC24     DRUD     -2.23580      0.400000           0   0.00000       0.00000    
      2617 MEMB     15       POPE     H4R      HDA2A    0.780000E-01   1.00800           0   0.00000       0.00000    
      2618 MEMB     15       POPE     H4S      HDA2A    0.780000E-01   1.00800           0   0.00000       0.00000    
      2619 MEMB     15       POPE     C25      CD32A     2.07980       11.6110           0  -1.66000       1.30000    
      2620 MEMB     15       POPE     DC25     DRUD     -2.23580      0.400000           0   0.00000       0.00000    
      2621 MEMB     15       POPE     H5R      HDA2A    0.780000E-01   1.00800           0   0.00000       0.00000    
      2622 MEMB     15       POPE     H5S      HDA2A    0.780000E-01   1.00800           0   0.00000       0.00000    
      2623 MEMB     15       POPE     C26      CD32A     2.07980       11.6110           0  -1.66000       1.30000    
      2624 MEMB     15       POPE     DC26     DRUD     -2.23580      0.400000           0   0.00000       0.00000    
      2625 MEMB     15       POPE     H6R      HDA2A    0.780000E-01   1.00800           0   0.00000       0.00000    
      2626 MEMB     15       POPE     H6S      HDA2A    0.780000E-01   1.00800           0   0.00000       0.00000    
      2627 MEMB     15       POPE     C27      CD32A     2.07980       11.6110           0  -1.66000       1.30000    
      2628 MEMB     15       POPE     DC27     DRUD     -2.23580      0.400000           0   0.00000       0.00000    
      2629 MEMB     15       POPE     H7R      HDA2A    0.780000E-01   1.00800           0   0.00000       0.00000    
      2630 MEMB     15       POPE     H7S      HDA2A    0.780000E-01   1.00800           0   0.00000       0.00000    
      2631 MEMB     15       POPE     C28      CD32A     2.07980       11.6110           0  -1.66000       1.30000    
      2632 MEMB     15       POPE     DC28     DRUD     -2.23580      0.400000           0   0.00000       0.00000    
      2633 MEMB     15       POPE     H8R      HDA2A    0.780000E-01   1.00800           0   0.00000       0.00000    
      2634 MEMB     15       POPE     H8S      HDA2A    0.780000E-01   1.00800           0   0.00000       0.00000    
      2635 MEMB     15       POPE     C29      CD2C1A    2.33700       11.6110           0  -1.99000      0.750000    
      2636 MEMB     15       POPE     DC29     DRUD     -2.44800      0.400000           0   0.00000       0.00000    
      2637 MEMB     15       POPE     H91      HD2C1A   0.111000       1.00800           0   0.00000       0.00000    
      2638 MEMB     15       POPE     C210     CD2C1A    2.33700       11.6110           0  -1.99000      0.750000    
      2639 MEMB     15       POPE     DC210    DRUD     -2.44800      0.400000           0   0.00000       0.00000    
      2640 MEMB     15       POPE     H101     HD2C1A   0.111000       1.00800           0   0.00000       0.00000    
      2641 MEMB     15       POPE     C211     CD32A     2.07980       11.6110           0  -1.66000       1.30000    
      2642 MEMB     15       POPE     DC211    DRUD     -2.23580      0.400000           0   0.00000       0.00000    
      2643 MEMB     15       POPE     H11R     HDA2A    0.780000E-01   1.00800           0   0.00000       0.00000    
      2644 MEMB     15       POPE     H11S     HDA2A    0.780000E-01   1.00800           0   0.00000       0.00000    
      2645 MEMB     15       POPE     C212     CD32A     2.07980       11.6110           0  -1.66000       1.30000    
      2646 MEMB     15       POPE     DC212    DRUD     -2.23580      0.400000           0   0.00000       0.00000    
      2647 MEMB     15       POPE     H12R     HDA2A    0.780000E-01   1.00800           0   0.00000       0.00000    
      2648 MEMB     15       POPE     H12S     HDA2A    0.780000E-01   1.00800           0   0.00000       0.00000    
      2649 MEMB     15       POPE     C213     CD32A     2.07980       11.6110           0  -1.66000       1.30000    
      2650 MEMB     15       POPE     DC213    DRUD     -2.23580      0.400000           0   0.00000       0.00000    
      2651 MEMB     15       POPE     H13R     HDA2A    0.780000E-01   1.00800           0   0.00000       0.00000    
      2652 MEMB     15       POPE     H13S     HDA2A    0.780000E-01   1.00800           0   0.00000       0.00000    
      2653 MEMB     15       POPE     C214     CD32A     2.07980       11.6110           0  -1.66000       1.30000    
      2654 MEMB     15       POPE     DC214    DRUD     -2.23580      0.400000           0   0.00000       0.00000    
      2655 MEMB     15       POPE     H14R     HDA2A    0.780000E-01   1.00800           0   0.00000       0.00000    
      2656 MEMB     15       POPE     H14S     HDA2A    0.780000E-01   1.00800           0   0.00000       0.00000    
      2657 MEMB     15       POPE     C215     CD32A     2.07980       11.6110           0  -1.66000       1.30000    
      2658 MEMB     15       POPE     DC215    DRUD     -2.23580      0.400000           0   0.00000       0.00000    
      2659 MEMB     15       POPE     H15R     HDA2A    0.780000E-01   1.00800           0   0.00000       0.00000    
      2660 MEMB     15       POPE     H15S     HDA2A    0.780000E-01   1.00800           0   0.00000       0.00000    
      2661 MEMB     15       POPE     C216     CD32A     2.07980       11.6110           0  -1.66000       1.30000    
      2662 MEMB     15       POPE     DC216    DRUD     -2.23580      0.400000           0   0.00000       0.00000    
      2663 MEMB     15       POPE     H16R     HDA2A    0.780000E-01   1.00800           0   0.00000       0.00000    
      2664 MEMB     15       POPE     H16S     HDA2A    0.780000E-01   1.00800           0   0.00000       0.00000    
      2665 MEMB     15       POPE     C217     CD32A     2.07980       11.6110           0  -1.66000       1.30000    
      2666 MEMB     15       POPE     DC217    DRUD     -2.23580      0.400000           0   0.00000       0.00000    
      2667 MEMB     15       POPE     H17R     HDA2A    0.780000E-01   1.00800           0   0.00000       0.00000    
      2668 MEMB     15       POPE     H17S     HDA2A    0.780000E-01   1.00800           0   0.00000       0.00000    
      2669 MEMB     15       POPE     C218     CD33A     2.30820       11.6110           0  -2.05100       1.30000    
      2670 MEMB     15       POPE     DC218    DRUD     -2.48520      0.400000           0   0.00000       0.00000    
      2671 MEMB     15       POPE     H18R     HDA3A    0.590000E-01   1.00800           0   0.00000       0.00000    
      2672 MEMB     15       POPE     H18S     HDA3A    0.590000E-01   1.00800           0   0.00000       0.00000    
      2673 MEMB     15       POPE     H18T     HDA3A    0.590000E-01   1.00800           0   0.00000       0.00000    
      2674 MEMB     15       POPE     C33      CD32A     2.07980       11.6110           0  -1.66000       1.30000    
      2675 MEMB     15       POPE     DC33     DRUD     -2.23580      0.400000           0   0.00000       0.00000    
      2676 MEMB     15       POPE     H3X      HDA2A    0.780000E-01   1.00800           0   0.00000       0.00000    
      2677 MEMB     15       POPE     H3Y      HDA2A    0.780000E-01   1.00800           0   0.00000       0.00000    
      2678 MEMB     15       POPE     C34      CD32A     2.07980       11.6110           0  -1.66000       1.30000    
      2679 MEMB     15       POPE     DC34     DRUD     -2.23580      0.400000           0   0.00000       0.00000    
      2680 MEMB     15       POPE     H4X      HDA2A    0.780000E-01   1.00800           0   0.00000       0.00000    
      2681 MEMB     15       POPE     H4Y      HDA2A    0.780000E-01   1.00800           0   0.00000       0.00000    
      2682 MEMB     15       POPE     C35      CD32A     2.07980       11.6110           0  -1.66000       1.30000    
      2683 MEMB     15       POPE     DC35     DRUD     -2.23580      0.400000           0   0.00000       0.00000    
      2684 MEMB     15       POPE     H5X      HDA2A    0.780000E-01   1.00800           0   0.00000       0.00000    
      2685 MEMB     15       POPE     H5Y      HDA2A    0.780000E-01   1.00800           0   0.00000       0.00000    
      2686 MEMB     15       POPE     C36      CD32A     2.07980       11.6110           0  -1.66000       1.30000    
      2687 MEMB     15       POPE     DC36     DRUD     -2.23580      0.400000           0   0.00000       0.00000    
      2688 MEMB     15       POPE     H6X      HDA2A    0.780000E-01   1.00800           0   0.00000       0.00000    
      2689 MEMB     15       POPE     H6Y      HDA2A    0.780000E-01   1.00800           0   0.00000       0.00000    
      2690 MEMB     15       POPE     C37      CD32A     2.07980       11.6110           0  -1.66000       1.30000    
      2691 MEMB     15       POPE     DC37     DRUD     -2.23580      0.400000           0   0.00000       0.00000    
      2692 MEMB     15       POPE     H7X      HDA2A    0.780000E-01   1.00800           0   0.00000       0.00000    
      2693 MEMB     15       POPE     H7Y      HDA2A    0.780000E-01   1.00800           0   0.00000       0.00000    
      2694 MEMB     15       POPE     C38      CD32A     2.07980       11.6110           0  -1.66000       1.30000    
      2695 MEMB     15       POPE     DC38     DRUD     -2.23580      0.400000           0   0.00000       0.00000    
      2696 MEMB     15       POPE     H8X      HDA2A    0.780000E-01   1.00800           0   0.00000       0.00000    
      2697 MEMB     15       POPE     H8Y      HDA2A    0.780000E-01   1.00800           0   0.00000       0.00000    
      2698 MEMB     15       POPE     C39      CD32A     2.07980       11.6110           0  -1.66000       1.30000    
      2699 MEMB     15       POPE     DC39     DRUD     -2.23580      0.400000           0   0.00000       0.00000    
      2700 MEMB     15       POPE     H9X      HDA2A    0.780000E-01   1.00800           0   0.00000       0.00000    
      2701 MEMB     15       POPE     H9Y      HDA2A    0.780000E-01   1.00800           0   0.00000       0.00000    
      2702 MEMB     15       POPE     C310     CD32A     2.07980       11.6110           0  -1.66000       1.30000    
      2703 MEMB     15       POPE     DC310    DRUD     -2.23580      0.400000           0   0.00000       0.00000    
      2704 MEMB     15       POPE     H10X     HDA2A    0.780000E-01   1.00800           0   0.00000       0.00000    
      2705 MEMB     15       POPE     H10Y     HDA2A    0.780000E-01   1.00800           0   0.00000       0.00000    
      2706 MEMB     15       POPE     C311     CD32A     2.07980       11.6110           0  -1.66000       1.30000    
      2707 MEMB     15       POPE     DC311    DRUD     -2.23580      0.400000           0   0.00000       0.00000    
      2708 MEMB     15       POPE     H11X     HDA2A    0.780000E-01   1.00800           0   0.00000       0.00000    
      2709 MEMB     15       POPE     H11Y     HDA2A    0.780000E-01   1.00800           0   0.00000       0.00000    
      2710 MEMB     15       POPE     C312     CD32A     2.07980       11.6110           0  -1.66000       1.30000    
      2711 MEMB     15       POPE     DC312    DRUD     -2.23580      0.400000           0   0.00000       0.00000    
      2712 MEMB     15       POPE     H12X     HDA2A    0.780000E-01   1.00800           0   0.00000       0.00000    
      2713 MEMB     15       POPE     H12Y     HDA2A    0.780000E-01   1.00800           0   0.00000       0.00000    
      2714 MEMB     15       POPE     C313     CD32A     2.07980       11.6110           0  -1.66000       1.30000    
      2715 MEMB     15       POPE     DC313    DRUD     -2.23580      0.400000           0   0.00000       0.00000    
      2716 MEMB     15       POPE     H13X     HDA2A    0.780000E-01   1.00800           0   0.00000       0.00000    
      2717 MEMB     15       POPE     H13Y     HDA2A    0.780000E-01   1.00800           0   0.00000       0.00000    
      2718 MEMB     15       POPE     C314     CD32A     2.07980       11.6110           0  -1.66000       1.30000    
      2719 MEMB     15       POPE     DC314    DRUD     -2.23580      0.400000           0   0.00000       0.00000    
      2720 MEMB     15       POPE     H14X     HDA2A    0.780000E-01   1.00800           0   0.00000       0.00000    
      2721 MEMB     15       POPE     H14Y     HDA2A    0.780000E-01   1.00800           0   0.00000       0.00000    
      2722 MEMB     15       POPE     C315     CD32A     2.07980       11.6110           0  -1.66000       1.30000    
      2723 MEMB     15       POPE     DC315    DRUD     -2.23580      0.400000           0   0.00000       0.00000    
      2724 MEMB     15       POPE     H15X     HDA2A    0.780000E-01   1.00800           0   0.00000       0.00000    
      2725 MEMB     15       POPE     H15Y     HDA2A    0.780000E-01   1.00800           0   0.00000       0.00000    
      2726 MEMB     15       POPE     C316     CD33A     2.30820       11.6110           0  -2.05100       1.30000    
      2727 MEMB     15       POPE     DC316    DRUD     -2.48520      0.400000           0   0.00000       0.00000    
      2728 MEMB     15       POPE     H16X     HDA3A    0.590000E-01   1.00800           0   0.00000       0.00000    
      2729 MEMB     15       POPE     H16Y     HDA3A    0.590000E-01   1.00800           0   0.00000       0.00000    
      2730 MEMB     15       POPE     H16Z     HDA3A    0.590000E-01   1.00800           0   0.00000       0.00000    
      2731 MEMB     16       POPE     N        ND3P3A    1.62810       13.6070           0  -1.29800      0.895000    
      2732 MEMB     16       POPE     DN       DRUD     -1.97710      0.400000           0   0.00000       0.00000    
      2733 MEMB     16       POPE     HN1      HDP1B    0.340000       1.00800           0   0.00000       0.00000    
      2734 MEMB     16       POPE     HN2      HDP1B    0.340000       1.00800           0   0.00000       0.00000    
      2735 MEMB     16       POPE     HN3      HDP1B    0.340000       1.00800           0   0.00000       0.00000    
      2736 MEMB     16       POPE     C12      CD32A     2.27610       11.6110           0  -1.65600      0.895000    
      2737 MEMB     16       POPE     DC12     DRUD     -2.23310      0.400000           0   0.00000       0.00000    
      2738 MEMB     16       POPE     H12A     HDA2A    0.143000       1.00800           0   0.00000       0.00000    
      2739 MEMB     16       POPE     H12B     HDA2A    0.143000       1.00800           0   0.00000       0.00000    
      2740 MEMB     16       POPE     C11      CD32A     2.42220       11.6110           0  -1.64200      0.862000    
      2741 MEMB     16       POPE     DC11     DRUD     -2.22370      0.400000           0   0.00000       0.00000    
      2742 MEMB     16       POPE     H11A     HDA2A    0.260000E-01   1.00800           0   0.00000       0.00000    
      2743 MEMB     16       POPE     H11B     HDA2A    0.260000E-01   1.00800           0   0.00000       0.00000    
      2744 MEMB     16       POPE     P        PD1A      2.90360       30.5740           0 -0.974000       2.09800    
      2745 MEMB     16       POPE     DP       DRUD     -1.71260      0.400000           0   0.00000       0.00000    
      2746 MEMB     16       POPE     O13      OD2C2B   0.798400       15.5994           0 -0.931000       1.08300    
      2747 MEMB     16       POPE     DO13     DRUD     -1.67440      0.400000           0   0.00000       0.00000    
      2748 MEMB     16       POPE     O14      OD2C2B   0.798400       15.5994           0 -0.931000       1.08300    
      2749 MEMB     16       POPE     DO14     DRUD     -1.67440      0.400000           0   0.00000       0.00000    
      2750 MEMB     16       POPE     O11      OD30B     1.17720       15.5994           0 -0.901000      0.181000    
      2751 MEMB     16       POPE     DO11     DRUD     -1.64720      0.400000           0   0.00000       0.00000    
      2752 MEMB     16       POPE     O12      OD30B     1.17720       15.5994           0 -0.901000      0.181000    
      2753 MEMB     16       POPE     DO12     DRUD     -1.64720      0.400000           0   0.00000       0.00000    
      2754 MEMB     16       POPE     C1       CD32A     2.42220       11.6110           0  -1.64200      0.862000    
      2755 MEMB     16       POPE     DC1      DRUD     -2.22370      0.400000           0   0.00000       0.00000    
      2756 MEMB     16       POPE     HA       HDA2A    0.260000E-01   1.00800           0   0.00000       0.00000    
      2757 MEMB     16       POPE     HB       HDA2A    0.260000E-01   1.00800           0   0.00000       0.00000    
      2758 MEMB     16       POPE     C2       CD31C     2.52830       11.6110           0  -1.79700      0.410000    
      2759 MEMB     16       POPE     DC2      DRUD     -2.32630      0.400000           0   0.00000       0.00000    
      2760 MEMB     16       POPE     HS       HDA1A    0.116000       1.00800           0   0.00000       0.00000    
      2761 MEMB     16       POPE     O21      OD30CL    1.48470       15.5994           0 -0.732000      0.601000    
      2762 MEMB     16       POPE     DO21     DRUD     -1.48470      0.400000           0   0.00000       0.00000    
      2763 MEMB     16       POPE     C21      CD2O3B    2.72820       11.6110           0  -1.37000       1.74700    
      2764 MEMB     16       POPE     DC21     DRUD     -2.03120      0.400000           0   0.00000       0.00000    
      2765 MEMB     16       POPE     O22      OD2C3B    1.64990       15.5994           0 -0.904000      0.565000    
      2766 MEMB     16       POPE     DO22     DRUD     -1.64990      0.400000           0   0.00000       0.00000    
      2767 MEMB     16       POPE     C22      CD32C     2.24380       11.6110           0  -1.99300      0.410000    
      2768 MEMB     16       POPE     DC22     DRUD     -2.44980      0.400000           0   0.00000       0.00000    
      2769 MEMB     16       POPE     H2R      HDA2A    0.690000E-01   1.00800           0   0.00000       0.00000    
      2770 MEMB     16       POPE     H2S      HDA2A    0.690000E-01   1.00800           0   0.00000       0.00000    
      2771 MEMB     16       POPE     LP1A     LPD     -0.349000       0.00000          -1   0.00000       0.00000    
      2772 MEMB     16       POPE     LP1B     LPD     -0.258000       0.00000          -1   0.00000       0.00000    
      2773 MEMB     16       POPE     LPMA     LPD     -0.170000       0.00000          -1   0.00000       0.00000    
      2774 MEMB     16       POPE     LPMB     LPD     -0.170000       0.00000          -1   0.00000       0.00000    
      2775 MEMB     16       POPE     C3       CD32C     2.41230       11.6110           0  -1.79700      0.410000    
      2776 MEMB     16       POPE     DC3      DRUD     -2.32630      0.400000           0   0.00000       0.00000    
      2777 MEMB     16       POPE     HX       HDA2A    0.116000       1.00800           0   0.00000       0.00000    
      2778 MEMB     16       POPE     HY       HDA2A    0.116000       1.00800           0   0.00000       0.00000    
      2779 MEMB     16       POPE     O31      OD30CL    1.48470       15.5994           0 -0.732000      0.601000    
      2780 MEMB     16       POPE     DO31     DRUD     -1.48470      0.400000           0   0.00000       0.00000    
      2781 MEMB     16       POPE     C31      CD2O3B    2.72820       11.6110           0  -1.37000       1.74700    
      2782 MEMB     16       POPE     DC31     DRUD     -2.03120      0.400000           0   0.00000       0.00000    
      2783 MEMB     16       POPE     O32      OD2C3B    1.64990       15.5994           0 -0.904000      0.565000    
      2784 MEMB     16       POPE     DO32     DRUD     -1.64990      0.400000           0   0.00000       0.00000    
      2785 MEMB     16       POPE     C32      CD32C     2.24380       11.6110           0  -1.99300      0.410000    
      2786 MEMB     16       POPE     DC32     DRUD     -2.44980      0.400000           0   0.00000       0.00000    
      2787 MEMB     16       POPE     H2X      HDA2A    0.690000E-01   1.00800           0   0.00000       0.00000    
      2788 MEMB     16       POPE     H2Y      HDA2A    0.690000E-01   1.00800           0   0.00000       0.00000    
      2789 MEMB     16       POPE     LP1C     LPD     -0.349000       0.00000          -1   0.00000       0.00000    
      2790 MEMB     16       POPE     LP1D     LPD     -0.258000       0.00000          -1   0.00000       0.00000    
      2791 MEMB     16       POPE     LPMC     LPD     -0.170000       0.00000          -1   0.00000       0.00000    
      2792 MEMB     16       POPE     LPMD     LPD     -0.170000       0.00000          -1   0.00000       0.00000    
      2793 MEMB     16       POPE     C23      CD32A     2.07980       11.6110           0  -1.66000       1.30000    
      2794 MEMB     16       POPE     DC23     DRUD     -2.23580      0.400000           0   0.00000       0.00000    
      2795 MEMB     16       POPE     H3R      HDA2A    0.780000E-01   1.00800           0   0.00000       0.00000    
      2796 MEMB     16       POPE     H3S      HDA2A    0.780000E-01   1.00800           0   0.00000       0.00000    
      2797 MEMB     16       POPE     C24      CD32A     2.07980       11.6110           0  -1.66000       1.30000    
      2798 MEMB     16       POPE     DC24     DRUD     -2.23580      0.400000           0   0.00000       0.00000    
      2799 MEMB     16       POPE     H4R      HDA2A    0.780000E-01   1.00800           0   0.00000       0.00000    
      2800 MEMB     16       POPE     H4S      HDA2A    0.780000E-01   1.00800           0   0.00000       0.00000    
      2801 MEMB     16       POPE     C25      CD32A     2.07980       11.6110           0  -1.66000       1.30000    
      2802 MEMB     16       POPE     DC25     DRUD     -2.23580      0.400000           0   0.00000       0.00000    
      2803 MEMB     16       POPE     H5R      HDA2A    0.780000E-01   1.00800           0   0.00000       0.00000    
      2804 MEMB     16       POPE     H5S      HDA2A    0.780000E-01   1.00800           0   0.00000       0.00000    
      2805 MEMB     16       POPE     C26      CD32A     2.07980       11.6110           0  -1.66000       1.30000    
      2806 MEMB     16       POPE     DC26     DRUD     -2.23580      0.400000           0   0.00000       0.00000    
      2807 MEMB     16       POPE     H6R      HDA2A    0.780000E-01   1.00800           0   0.00000       0.00000    
      2808 MEMB     16       POPE     H6S      HDA2A    0.780000E-01   1.00800           0   0.00000       0.00000    
      2809 MEMB     16       POPE     C27      CD32A     2.07980       11.6110           0  -1.66000       1.30000    
      2810 MEMB     16       POPE     DC27     DRUD     -2.23580      0.400000           0   0.00000       0.00000    
      2811 MEMB     16       POPE     H7R      HDA2A    0.780000E-01   1.00800           0   0.00000       0.00000    
      2812 MEMB     16       POPE     H7S      HDA2A    0.780000E-01   1.00800           0   0.00000       0.00000    
      2813 MEMB     16       POPE     C28      CD32A     2.07980       11.6110           0  -1.66000       1.30000    
      2814 MEMB     16       POPE     DC28     DRUD     -2.23580      0.400000           0   0.00000       0.00000    
      2815 MEMB     16       POPE     H8R      HDA2A    0.780000E-01   1.00800           0   0.00000       0.00000    
      2816 MEMB     16       POPE     H8S      HDA2A    0.780000E-01   1.00800           0   0.00000       0.00000    
      2817 MEMB     16       POPE     C29      CD2C1A    2.33700       11.6110           0  -1.99000      0.750000    
      2818 MEMB     16       POPE     DC29     DRUD     -2.44800      0.400000           0   0.00000       0.00000    
      2819 MEMB     16       POPE     H91      HD2C1A   0.111000       1.00800           0   0.00000       0.00000    
      2820 MEMB     16       POPE     C210     CD2C1A    2.33700       11.6110           0  -1.99000      0.750000    
      2821 MEMB     16       POPE     DC210    DRUD     -2.44800      0.400000           0   0.00000       0.00000    
      2822 MEMB     16       POPE     H101     HD2C1A   0.111000       1.00800           0   0.00000       0.00000    
      2823 MEMB     16       POPE     C211     CD32A     2.07980       11.6110           0  -1.66000       1.30000    
      2824 MEMB     16       POPE     DC211    DRUD     -2.23580      0.400000           0   0.00000       0.00000    
      2825 MEMB     16       POPE     H11R     HDA2A    0.780000E-01   1.00800           0   0.00000       0.00000    
      2826 MEMB     16       POPE     H11S     HDA2A    0.780000E-01   1.00800           0   0.00000       0.00000    
      2827 MEMB     16       POPE     C212     CD32A     2.07980       11.6110           0  -1.66000       1.30000    
      2828 MEMB     16       POPE     DC212    DRUD     -2.23580      0.400000           0   0.00000       0.00000    
      2829 MEMB     16       POPE     H12R     HDA2A    0.780000E-01   1.00800           0   0.00000       0.00000    
      2830 MEMB     16       POPE     H12S     HDA2A    0.780000E-01   1.00800           0   0.00000       0.00000    
      2831 MEMB     16       POPE     C213     CD32A     2.07980       11.6110           0  -1.66000       1.30000    
      2832 MEMB     16       POPE     DC213    DRUD     -2.23580      0.400000           0   0.00000       0.00000    
      2833 MEMB     16       POPE     H13R     HDA2A    0.780000E-01   1.00800           0   0.00000       0.00000    
      2834 MEMB     16       POPE     H13S     HDA2A    0.780000E-01   1.00800           0   0.00000       0.00000    
      2835 MEMB     16       POPE     C214     CD32A     2.07980       11.6110           0  -1.66000       1.30000    
      2836 MEMB     16       POPE     DC214    DRUD     -2.23580      0.400000           0   0.00000       0.00000    
      2837 MEMB     16       POPE     H14R     HDA2A    0.780000E-01   1.00800           0   0.00000       0.00000    
      2838 MEMB     16       POPE     H14S     HDA2A    0.780000E-01   1.00800           0   0.00000       0.00000    
      2839 MEMB     16       POPE     C215     CD32A     2.07980       11.6110           0  -1.66000       1.30000    
      2840 MEMB     16       POPE     DC215    DRUD     -2.23580      0.400000           0   0.00000       0.00000    
      2841 MEMB     16       POPE     H15R     HDA2A    0.780000E-01   1.00800           0   0.00000       0.00000    
      2842 MEMB     16       POPE     H15S     HDA2A    0.780000E-01   1.00800           0   0.00000       0.00000    
      2843 MEMB     16       POPE     C216     CD32A     2.07980       11.6110           0  -1.66000       1.30000    
      2844 MEMB     16       POPE     DC216    DRUD     -2.23580      0.400000           0   0.00000       0.00000    
      2845 MEMB     16       POPE     H16R     HDA2A    0.780000E-01   1.00800           0   0.00000       0.00000    
      2846 MEMB     16       POPE     H16S     HDA2A    0.780000E-01   1.00800           0   0.00000       0.00000    
      2847 MEMB     16       POPE     C217     CD32A     2.07980       11.6110           0  -1.66000       1.30000    
      2848 MEMB     16       POPE     DC217    DRUD     -2.23580      0.400000           0   0.00000       0.00000    
      2849 MEMB     16       POPE     H17R     HDA2A    0.780000E-01   1.00800           0   0.00000       0.00000    
      2850 MEMB     16       POPE     H17S     HDA2A    0.780000E-01   1.00800           0   0.00000       0.00000    
      2851 MEMB     16       POPE     C218     CD33A     2.30820       11.6110           0  -2.05100       1.30000    
      2852 MEMB     16       POPE     DC218    DRUD     -2.48520      0.400000           0   0.00000       0.00000    
      2853 MEMB     16       POPE     H18R     HDA3A    0.590000E-01   1.00800           0   0.00000       0.00000    
      2854 MEMB     16       POPE     H18S     HDA3A    0.590000E-01   1.00800           0   0.00000       0.00000    
      2855 MEMB     16       POPE     H18T     HDA3A    0.590000E-01   1.00800           0   0.00000       0.00000    
      2856 MEMB     16       POPE     C33      CD32A     2.07980       11.6110           0  -1.66000       1.30000    
      2857 MEMB     16       POPE     DC33     DRUD     -2.23580      0.400000           0   0.00000       0.00000    
      2858 MEMB     16       POPE     H3X      HDA2A    0.780000E-01   1.00800           0   0.00000       0.00000    
      2859 MEMB     16       POPE     H3Y      HDA2A    0.780000E-01   1.00800           0   0.00000       0.00000    
      2860 MEMB     16       POPE     C34      CD32A     2.07980       11.6110           0  -1.66000       1.30000    
      2861 MEMB     16       POPE     DC34     DRUD     -2.23580      0.400000           0   0.00000       0.00000    
      2862 MEMB     16       POPE     H4X      HDA2A    0.780000E-01   1.00800           0   0.00000       0.00000    
      2863 MEMB     16       POPE     H4Y      HDA2A    0.780000E-01   1.00800           0   0.00000       0.00000    
      2864 MEMB     16       POPE     C35      CD32A     2.07980       11.6110           0  -1.66000       1.30000    
      2865 MEMB     16       POPE     DC35     DRUD     -2.23580      0.400000           0   0.00000       0.00000    
      2866 MEMB     16       POPE     H5X      HDA2A    0.780000E-01   1.00800           0   0.00000       0.00000    
      2867 MEMB     16       POPE     H5Y      HDA2A    0.780000E-01   1.00800           0   0.00000       0.00000    
      2868 MEMB     16       POPE     C36      CD32A     2.07980       11.6110           0  -1.66000       1.30000    
      2869 MEMB     16       POPE     DC36     DRUD     -2.23580      0.400000           0   0.00000       0.00000    
      2870 MEMB     16       POPE     H6X      HDA2A    0.780000E-01   1.00800           0   0.00000       0.00000    
      2871 MEMB     16       POPE     H6Y      HDA2A    0.780000E-01   1.00800           0   0.00000       0.00000    
      2872 MEMB     16       POPE     C37      CD32A     2.07980       11.6110           0  -1.66000       1.30000    
      2873 MEMB     16       POPE     DC37     DRUD     -2.23580      0.400000           0   0.00000       0.00000    
      2874 MEMB     16       POPE     H7X      HDA2A    0.780000E-01   1.00800           0   0.00000       0.00000    
      2875 MEMB     16       POPE     H7Y      HDA2A    0.780000E-01   1.00800           0   0.00000       0.00000    
      2876 MEMB     16       POPE     C38      CD32A     2.07980       11.6110           0  -1.66000       1.30000    
      2877 MEMB     16       POPE     DC38     DRUD     -2.23580      0.400000           0   0.00000       0.00000    
      2878 MEMB     16       POPE     H8X      HDA2A    0.780000E-01   1.00800           0   0.00000       0.00000    
      2879 MEMB     16       POPE     H8Y      HDA2A    0.780000E-01   1.00800           0   0.00000       0.00000    
      2880 MEMB     16       POPE     C39      CD32A     2.07980       11.6110           0  -1.66000       1.30000    
      2881 MEMB     16       POPE     DC39     DRUD     -2.23580      0.400000           0   0.00000       0.00000    
      2882 MEMB     16       POPE     H9X      HDA2A    0.780000E-01   1.00800           0   0.00000       0.00000    
      2883 MEMB     16       POPE     H9Y      HDA2A    0.780000E-01   1.00800           0   0.00000       0.00000    
      2884 MEMB     16       POPE     C310     CD32A     2.07980       11.6110           0  -1.66000       1.30000    
      2885 MEMB     16       POPE     DC310    DRUD     -2.23580      0.400000           0   0.00000       0.00000    
      2886 MEMB     16       POPE     H10X     HDA2A    0.780000E-01   1.00800           0   0.00000       0.00000    
      2887 MEMB     16       POPE     H10Y     HDA2A    0.780000E-01   1.00800           0   0.00000       0.00000    
      2888 MEMB     16       POPE     C311     CD32A     2.07980       11.6110           0  -1.66000       1.30000    
      2889 MEMB     16       POPE     DC311    DRUD     -2.23580      0.400000           0   0.00000       0.00000    
      2890 MEMB     16       POPE     H11X     HDA2A    0.780000E-01   1.00800           0   0.00000       0.00000    
      2891 MEMB     16       POPE     H11Y     HDA2A    0.780000E-01   1.00800           0   0.00000       0.00000    
      2892 MEMB     16       POPE     C312     CD32A     2.07980       11.6110           0  -1.66000       1.30000    
      2893 MEMB     16       POPE     DC312    DRUD     -2.23580      0.400000           0   0.00000       0.00000    
      2894 MEMB     16       POPE     H12X     HDA2A    0.780000E-01   1.00800           0   0.00000       0.00000    
      2895 MEMB     16       POPE     H12Y     HDA2A    0.780000E-01   1.00800           0   0.00000       0.00000    
      2896 MEMB     16       POPE     C313     CD32A     2.07980       11.6110           0  -1.66000       1.30000    
      2897 MEMB     16       POPE     DC313    DRUD     -2.23580      0.400000           0   0.00000       0.00000    
      2898 MEMB     16       POPE     H13X     HDA2A    0.780000E-01   1.00800           0   0.00000       0.00000    
      2899 MEMB     16       POPE     H13Y     HDA2A    0.780000E-01   1.00800           0   0.00000       0.00000    
      2900 MEMB     16       POPE     C314     CD32A     2.07980       11.6110           0  -1.66000       1.30000    
      2901 MEMB     16       POPE     DC314    DRUD     -2.23580      0.400000           0   0.00000       0.00000    
      2902 MEMB     16       POPE     H14X     HDA2A    0.780000E-01   1.00800           0   0.00000       0.00000    
      2903 MEMB     16       POPE     H14Y     HDA2A    0.780000E-01   1.00800           0   0.00000       0.00000    
      2904 MEMB     16       POPE     C315     CD32A     2.07980       11.6110           0  -1.66000       1.30000    
      2905 MEMB     16       POPE     DC315    DRUD     -2.23580      0.400000           0   0.00000       0.00000    
      2906 MEMB     16       POPE     H15X     HDA2A    0.780000E-01   1.00800           0   0.00000       0.00000    
      2907 MEMB     16       POPE     H15Y     HDA2A    0.780000E-01   1.00800           0   0.00000       0.00000    
      2908 MEMB     16       POPE     C316     CD33A     2.30820       11.6110           0  -2.05100       1.30000    
      2909 MEMB     16       POPE     DC316    DRUD     -2.48520      0.400000           0   0.00000       0.00000    
      2910 MEMB     16       POPE     H16X     HDA3A    0.590000E-01   1.00800           0   0.00000       0.00000    
      2911 MEMB     16       POPE     H16Y     HDA3A    0.590000E-01   1.00800           0   0.00000       0.00000    
      2912 MEMB     16       POPE     H16Z     HDA3A    0.590000E-01   1.00800           0   0.00000       0.00000    
      2913 MEMB     17       POPE     N        ND3P3A    1.62810       13.6070           0  -1.29800      0.895000    
      2914 MEMB     17       POPE     DN       DRUD     -1.97710      0.400000           0   0.00000       0.00000    
      2915 MEMB     17       POPE     HN1      HDP1B    0.340000       1.00800           0   0.00000       0.00000    
      2916 MEMB     17       POPE     HN2      HDP1B    0.340000       1.00800           0   0.00000       0.00000    
      2917 MEMB     17       POPE     HN3      HDP1B    0.340000       1.00800           0   0.00000       0.00000    
      2918 MEMB     17       POPE     C12      CD32A     2.27610       11.6110           0  -1.65600      0.895000    
      2919 MEMB     17       POPE     DC12     DRUD     -2.23310      0.400000           0   0.00000       0.00000    
      2920 MEMB     17       POPE     H12A     HDA2A    0.143000       1.00800           0   0.00000       0.00000    
      2921 MEMB     17       POPE     H12B     HDA2A    0.143000       1.00800           0   0.00000       0.00000    
      2922 MEMB     17       POPE     C11      CD32A     2.42220       11.6110           0  -1.64200      0.862000    
      2923 MEMB     17       POPE     DC11     DRUD     -2.22370      0.400000           0   0.00000       0.00000    
      2924 MEMB     17       POPE     H11A     HDA2A    0.260000E-01   1.00800           0   0.00000       0.00000    
      2925 MEMB     17       POPE     H11B     HDA2A    0.260000E-01   1.00800           0   0.00000       0.00000    
      2926 MEMB     17       POPE     P        PD1A      2.90360       30.5740           0 -0.974000       2.09800    
      2927 MEMB     17       POPE     DP       DRUD     -1.71260      0.400000           0   0.00000       0.00000    
      2928 MEMB     17       POPE     O13      OD2C2B   0.798400       15.5994           0 -0.931000       1.08300    
      2929 MEMB     17       POPE     DO13     DRUD     -1.67440      0.400000           0   0.00000       0.00000    
      2930 MEMB     17       POPE     O14      OD2C2B   0.798400       15.5994           0 -0.931000       1.08300    
      2931 MEMB     17       POPE     DO14     DRUD     -1.67440      0.400000           0   0.00000       0.00000    
      2932 MEMB     17       POPE     O11      OD30B     1.17720       15.5994           0 -0.901000      0.181000    
      2933 MEMB     17       POPE     DO11     DRUD     -1.64720      0.400000           0   0.00000       0.00000    
      2934 MEMB     17       POPE     O12      OD30B     1.17720       15.5994           0 -0.901000      0.181000    
      2935 MEMB     17       POPE     DO12     DRUD     -1.64720      0.400000           0   0.00000       0.00000    
      2936 MEMB     17       POPE     C1       CD32A     2.42220       11.6110           0  -1.64200      0.862000    
      2937 MEMB     17       POPE     DC1      DRUD     -2.22370      0.400000           0   0.00000       0.00000    
      2938 MEMB     17       POPE     HA       HDA2A    0.260000E-01   1.00800           0   0.00000       0.00000    
      2939 MEMB     17       POPE     HB       HDA2A    0.260000E-01   1.00800           0   0.00000       0.00000    
      2940 MEMB     17       POPE     C2       CD31C     2.52830       11.6110           0  -1.79700      0.410000    
      2941 MEMB     17       POPE     DC2      DRUD     -2.32630      0.400000           0   0.00000       0.00000    
      2942 MEMB     17       POPE     HS       HDA1A    0.116000       1.00800           0   0.00000       0.00000    
      2943 MEMB     17       POPE     O21      OD30CL    1.48470       15.5994           0 -0.732000      0.601000    
      2944 MEMB     17       POPE     DO21     DRUD     -1.48470      0.400000           0   0.00000       0.00000    
      2945 MEMB     17       POPE     C21      CD2O3B    2.72820       11.6110           0  -1.37000       1.74700    
      2946 MEMB     17       POPE     DC21     DRUD     -2.03120      0.400000           0   0.00000       0.00000    
      2947 MEMB     17       POPE     O22      OD2C3B    1.64990       15.5994           0 -0.904000      0.565000    
      2948 MEMB     17       POPE     DO22     DRUD     -1.64990      0.400000           0   0.00000       0.00000    
      2949 MEMB     17       POPE     C22      CD32C     2.24380       11.6110           0  -1.99300      0.410000    
      2950 MEMB     17       POPE     DC22     DRUD     -2.44980      0.400000           0   0.00000       0.00000    
      2951 MEMB     17       POPE     H2R      HDA2A    0.690000E-01   1.00800           0   0.00000       0.00000    
      2952 MEMB     17       POPE     H2S      HDA2A    0.690000E-01   1.00800           0   0.00000       0.00000    
      2953 MEMB     17       POPE     LP1A     LPD     -0.349000       0.00000          -1   0.00000       0.00000    
      2954 MEMB     17       POPE     LP1B     LPD     -0.258000       0.00000          -1   0.00000       0.00000    
      2955 MEMB     17       POPE     LPMA     LPD     -0.170000       0.00000          -1   0.00000       0.00000    
      2956 MEMB     17       POPE     LPMB     LPD     -0.170000       0.00000          -1   0.00000       0.00000    
      2957 MEMB     17       POPE     C3       CD32C     2.41230       11.6110           0  -1.79700      0.410000    
      2958 MEMB     17       POPE     DC3      DRUD     -2.32630      0.400000           0   0.00000       0.00000    
      2959 MEMB     17       POPE     HX       HDA2A    0.116000       1.00800           0   0.00000       0.00000    
      2960 MEMB     17       POPE     HY       HDA2A    0.116000       1.00800           0   0.00000       0.00000    
      2961 MEMB     17       POPE     O31      OD30CL    1.48470       15.5994           0 -0.732000      0.601000    
      2962 MEMB     17       POPE     DO31     DRUD     -1.48470      0.400000           0   0.00000       0.00000    
      2963 MEMB     17       POPE     C31      CD2O3B    2.72820       11.6110           0  -1.37000       1.74700    
      2964 MEMB     17       POPE     DC31     DRUD     -2.03120      0.400000           0   0.00000       0.00000    
      2965 MEMB     17       POPE     O32      OD2C3B    1.64990       15.5994           0 -0.904000      0.565000    
      2966 MEMB     17       POPE     DO32     DRUD     -1.64990      0.400000           0   0.00000       0.00000    
      2967 MEMB     17       POPE     C32      CD32C     2.24380       11.6110           0  -1.99300      0.410000    
      2968 MEMB     17       POPE     DC32     DRUD     -2.44980      0.400000           0   0.00000       0.00000    
      2969 MEMB     17       POPE     H2X      HDA2A    0.690000E-01   1.00800           0   0.00000       0.00000    
      2970 MEMB     17       POPE     H2Y      HDA2A    0.690000E-01   1.00800           0   0.00000       0.00000    
      2971 MEMB     17       POPE     LP1C     LPD     -0.349000       0.00000          -1   0.00000       0.00000    
      2972 MEMB     17       POPE     LP1D     LPD     -0.258000       0.00000          -1   0.00000       0.00000    
      2973 MEMB     17       POPE     LPMC     LPD     -0.170000       0.00000          -1   0.00000       0.00000    
      2974 MEMB     17       POPE     LPMD     LPD     -0.170000       0.00000          -1   0.00000       0.00000    
      2975 MEMB     17       POPE     C23      CD32A     2.07980       11.6110           0  -1.66000       1.30000    
      2976 MEMB     17       POPE     DC23     DRUD     -2.23580      0.400000           0   0.00000       0.00000    
      2977 MEMB     17       POPE     H3R      HDA2A    0.780000E-01   1.00800           0   0.00000       0.00000    
      2978 MEMB     17       POPE     H3S      HDA2A    0.780000E-01   1.00800           0   0.00000       0.00000    
      2979 MEMB     17       POPE     C24      CD32A     2.07980       11.6110           0  -1.66000       1.30000    
      2980 MEMB     17       POPE     DC24     DRUD     -2.23580      0.400000           0   0.00000       0.00000    
      2981 MEMB     17       POPE     H4R      HDA2A    0.780000E-01   1.00800           0   0.00000       0.00000    
      2982 MEMB     17       POPE     H4S      HDA2A    0.780000E-01   1.00800           0   0.00000       0.00000    
      2983 MEMB     17       POPE     C25      CD32A     2.07980       11.6110           0  -1.66000       1.30000    
      2984 MEMB     17       POPE     DC25     DRUD     -2.23580      0.400000           0   0.00000       0.00000    
      2985 MEMB     17       POPE     H5R      HDA2A    0.780000E-01   1.00800           0   0.00000       0.00000    
      2986 MEMB     17       POPE     H5S      HDA2A    0.780000E-01   1.00800           0   0.00000       0.00000    
      2987 MEMB     17       POPE     C26      CD32A     2.07980       11.6110           0  -1.66000       1.30000    
      2988 MEMB     17       POPE     DC26     DRUD     -2.23580      0.400000           0   0.00000       0.00000    
      2989 MEMB     17       POPE     H6R      HDA2A    0.780000E-01   1.00800           0   0.00000       0.00000    
      2990 MEMB     17       POPE     H6S      HDA2A    0.780000E-01   1.00800           0   0.00000       0.00000    
      2991 MEMB     17       POPE     C27      CD32A     2.07980       11.6110           0  -1.66000       1.30000    
      2992 MEMB     17       POPE     DC27     DRUD     -2.23580      0.400000           0   0.00000       0.00000    
      2993 MEMB     17       POPE     H7R      HDA2A    0.780000E-01   1.00800           0   0.00000       0.00000    
      2994 MEMB     17       POPE     H7S      HDA2A    0.780000E-01   1.00800           0   0.00000       0.00000    
      2995 MEMB     17       POPE     C28      CD32A     2.07980       11.6110           0  -1.66000       1.30000    
      2996 MEMB     17       POPE     DC28     DRUD     -2.23580      0.400000           0   0.00000       0.00000    
      2997 MEMB     17       POPE     H8R      HDA2A    0.780000E-01   1.00800           0   0.00000       0.00000    
      2998 MEMB     17       POPE     H8S      HDA2A    0.780000E-01   1.00800           0   0.00000       0.00000    
      2999 MEMB     17       POPE     C29      CD2C1A    2.33700       11.6110           0  -1.99000      0.750000    
      3000 MEMB     17       POPE     DC29     DRUD     -2.44800      0.400000           0   0.00000       0.00000    
      3001 MEMB     17       POPE     H91      HD2C1A   0.111000       1.00800           0   0.00000       0.00000    
      3002 MEMB     17       POPE     C210     CD2C1A    2.33700       11.6110           0  -1.99000      0.750000    
      3003 MEMB     17       POPE     DC210    DRUD     -2.44800      0.400000           0   0.00000       0.00000    
      3004 MEMB     17       POPE     H101     HD2C1A   0.111000       1.00800           0   0.00000       0.00000    
      3005 MEMB     17       POPE     C211     CD32A     2.07980       11.6110           0  -1.66000       1.30000    
      3006 MEMB     17       POPE     DC211    DRUD     -2.23580      0.400000           0   0.00000       0.00000    
      3007 MEMB     17       POPE     H11R     HDA2A    0.780000E-01   1.00800           0   0.00000       0.00000    
      3008 MEMB     17       POPE     H11S     HDA2A    0.780000E-01   1.00800           0   0.00000       0.00000    
      3009 MEMB     17       POPE     C212     CD32A     2.07980       11.6110           0  -1.66000       1.30000    
      3010 MEMB     17       POPE     DC212    DRUD     -2.23580      0.400000           0   0.00000       0.00000    
      3011 MEMB     17       POPE     H12R     HDA2A    0.780000E-01   1.00800           0   0.00000       0.00000    
      3012 MEMB     17       POPE     H12S     HDA2A    0.780000E-01   1.00800           0   0.00000       0.00000    
      3013 MEMB     17       POPE     C213     CD32A     2.07980       11.6110           0  -1.66000       1.30000    
      3014 MEMB     17       POPE     DC213    DRUD     -2.23580      0.400000           0   0.00000       0.00000    
      3015 MEMB     17       POPE     H13R     HDA2A    0.780000E-01   1.00800           0   0.00000       0.00000    
      3016 MEMB     17       POPE     H13S     HDA2A    0.780000E-01   1.00800           0   0.00000       0.00000    
      3017 MEMB     17       POPE     C214     CD32A     2.07980       11.6110           0  -1.66000       1.30000    
      3018 MEMB     17       POPE     DC214    DRUD     -2.23580      0.400000           0   0.00000       0.00000    
      3019 MEMB     17       POPE     H14R     HDA2A    0.780000E-01   1.00800           0   0.00000       0.00000    
      3020 MEMB     17       POPE     H14S     HDA2A    0.780000E-01   1.00800           0   0.00000       0.00000    
      3021 MEMB     17       POPE     C215     CD32A     2.07980       11.6110           0  -1.66000       1.30000    
      3022 MEMB     17       POPE     DC215    DRUD     -2.23580      0.400000           0   0.00000       0.00000    
      3023 MEMB     17       POPE     H15R     HDA2A    0.780000E-01   1.00800           0   0.00000       0.00000    
      3024 MEMB     17       POPE     H15S     HDA2A    0.780000E-01   1.00800           0   0.00000       0.00000    
      3025 MEMB     17       POPE     C216     CD32A     2.07980       11.6110           0  -1.66000       1.30000    
      3026 MEMB     17       POPE     DC216    DRUD     -2.23580      0.400000           0   0.00000       0.00000    
      3027 MEMB     17       POPE     H16R     HDA2A    0.780000E-01   1.00800           0   0.00000       0.00000    
      3028 MEMB     17       POPE     H16S     HDA2A    0.780000E-01   1.00800           0   0.00000       0.00000    
      3029 MEMB     17       POPE     C217     CD32A     2.07980       11.6110           0  -1.66000       1.30000    
      3030 MEMB     17       POPE     DC217    DRUD     -2.23580      0.400000           0   0.00000       0.00000    
      3031 MEMB     17       POPE     H17R     HDA2A    0.780000E-01   1.00800           0   0.00000       0.00000    
      3032 MEMB     17       POPE     H17S     HDA2A    0.780000E-01   1.00800           0   0.00000       0.00000    
      3033 MEMB     17       POPE     C218     CD33A     2.30820       11.6110           0  -2.05100       1.30000    
      3034 MEMB     17       POPE     DC218    DRUD     -2.48520      0.400000           0   0.00000       0.00000    
      3035 MEMB     17       POPE     H18R     HDA3A    0.590000E-01   1.00800           0   0.00000       0.00000    
      3036 MEMB     17       POPE     H18S     HDA3A    0.590000E-01   1.00800           0   0.00000       0.00000    
      3037 MEMB     17       POPE     H18T     HDA3A    0.590000E-01   1.00800           0   0.00000       0.00000    
      3038 MEMB     17       POPE     C33      CD32A     2.07980       11.6110           0  -1.66000       1.30000    
      3039 MEMB     17       POPE     DC33     DRUD     -2.23580      0.400000           0   0.00000       0.00000    
      3040 MEMB     17       POPE     H3X      HDA2A    0.780000E-01   1.00800           0   0.00000       0.00000    
      3041 MEMB     17       POPE     H3Y      HDA2A    0.780000E-01   1.00800           0   0.00000       0.00000    
      3042 MEMB     17       POPE     C34      CD32A     2.07980       11.6110           0  -1.66000       1.30000    
      3043 MEMB     17       POPE     DC34     DRUD     -2.23580      0.400000           0   0.00000       0.00000    
      3044 MEMB     17       POPE     H4X      HDA2A    0.780000E-01   1.00800           0   0.00000       0.00000    
      3045 MEMB     17       POPE     H4Y      HDA2A    0.780000E-01   1.00800           0   0.00000       0.00000    
      3046 MEMB     17       POPE     C35      CD32A     2.07980       11.6110           0  -1.66000       1.30000    
      3047 MEMB     17       POPE     DC35     DRUD     -2.23580      0.400000           0   0.00000       0.00000    
      3048 MEMB     17       POPE     H5X      HDA2A    0.780000E-01   1.00800           0   0.00000       0.00000    
      3049 MEMB     17       POPE     H5Y      HDA2A    0.780000E-01   1.00800           0   0.00000       0.00000    
      3050 MEMB     17       POPE     C36      CD32A     2.07980       11.6110           0  -1.66000       1.30000    
      3051 MEMB     17       POPE     DC36     DRUD     -2.23580      0.400000           0   0.00000       0.00000    
      3052 MEMB     17       POPE     H6X      HDA2A    0.780000E-01   1.00800           0   0.00000       0.00000    
      3053 MEMB     17       POPE     H6Y      HDA2A    0.780000E-01   1.00800           0   0.00000       0.00000    
      3054 MEMB     17       POPE     C37      CD32A     2.07980       11.6110           0  -1.66000       1.30000    
      3055 MEMB     17       POPE     DC37     DRUD     -2.23580      0.400000           0   0.00000       0.00000    
      3056 MEMB     17       POPE     H7X      HDA2A    0.780000E-01   1.00800           0   0.00000       0.00000    
      3057 MEMB     17       POPE     H7Y      HDA2A    0.780000E-01   1.00800           0   0.00000       0.00000    
      3058 MEMB     17       POPE     C38      CD32A     2.07980       11.6110           0  -1.66000       1.30000    
      3059 MEMB     17       POPE     DC38     DRUD     -2.23580      0.400000           0   0.00000       0.00000    
      3060 MEMB     17       POPE     H8X      HDA2A    0.780000E-01   1.00800           0   0.00000       0.00000    
      3061 MEMB     17       POPE     H8Y      HDA2A    0.780000E-01   1.00800           0   0.00000       0.00000    
      3062 MEMB     17       POPE     C39      CD32A     2.07980       11.6110           0  -1.66000       1.30000    
      3063 MEMB     17       POPE     DC39     DRUD     -2.23580      0.400000           0   0.00000       0.00000    
      3064 MEMB     17       POPE     H9X      HDA2A    0.780000E-01   1.00800           0   0.00000       0.00000    
      3065 MEMB     17       POPE     H9Y      HDA2A    0.780000E-01   1.00800           0   0.00000       0.00000    
      3066 MEMB     17       POPE     C310     CD32A     2.07980       11.6110           0  -1.66000       1.30000    
      3067 MEMB     17       POPE     DC310    DRUD     -2.23580      0.400000           0   0.00000       0.00000    
      3068 MEMB     17       POPE     H10X     HDA2A    0.780000E-01   1.00800           0   0.00000       0.00000    
      3069 MEMB     17       POPE     H10Y     HDA2A    0.780000E-01   1.00800           0   0.00000       0.00000    
      3070 MEMB     17       POPE     C311     CD32A     2.07980       11.6110           0  -1.66000       1.30000    
      3071 MEMB     17       POPE     DC311    DRUD     -2.23580      0.400000           0   0.00000       0.00000    
      3072 MEMB     17       POPE     H11X     HDA2A    0.780000E-01   1.00800           0   0.00000       0.00000    
      3073 MEMB     17       POPE     H11Y     HDA2A    0.780000E-01   1.00800           0   0.00000       0.00000    
      3074 MEMB     17       POPE     C312     CD32A     2.07980       11.6110           0  -1.66000       1.30000    
      3075 MEMB     17       POPE     DC312    DRUD     -2.23580      0.400000           0   0.00000       0.00000    
      3076 MEMB     17       POPE     H12X     HDA2A    0.780000E-01   1.00800           0   0.00000       0.00000    
      3077 MEMB     17       POPE     H12Y     HDA2A    0.780000E-01   1.00800           0   0.00000       0.00000    
      3078 MEMB     17       POPE     C313     CD32A     2.07980       11.6110           0  -1.66000       1.30000    
      3079 MEMB     17       POPE     DC313    DRUD     -2.23580      0.400000           0   0.00000       0.00000    
      3080 MEMB     17       POPE     H13X     HDA2A    0.780000E-01   1.00800           0   0.00000       0.00000    
      3081 MEMB     17       POPE     H13Y     HDA2A    0.780000E-01   1.00800           0   0.00000       0.00000    
      3082 MEMB     17       POPE     C314     CD32A     2.07980       11.6110           0  -1.66000       1.30000    
      3083 MEMB     17       POPE     DC314    DRUD     -2.23580      0.400000           0   0.00000       0.00000    
      3084 MEMB     17       POPE     H14X     HDA2A    0.780000E-01   1.00800           0   0.00000       0.00000    
      3085 MEMB     17       POPE     H14Y     HDA2A    0.780000E-01   1.00800           0   0.00000       0.00000    
      3086 MEMB     17       POPE     C315     CD32A     2.07980       11.6110           0  -1.66000       1.30000    
      3087 MEMB     17       POPE     DC315    DRUD     -2.23580      0.400000           0   0.00000       0.00000    
      3088 MEMB     17       POPE     H15X     HDA2A    0.780000E-01   1.00800           0   0.00000       0.00000    
      3089 MEMB     17       POPE     H15Y     HDA2A    0.780000E-01   1.00800           0   0.00000       0.00000    
      3090 MEMB     17       POPE     C316     CD33A     2.30820       11.6110           0  -2.05100       1.30000    
      3091 MEMB     17       POPE     DC316    DRUD     -2.48520      0.400000           0   0.00000       0.00000    
      3092 MEMB     17       POPE     H16X     HDA3A    0.590000E-01   1.00800           0   0.00000       0.00000    
      3093 MEMB     17       POPE     H16Y     HDA3A    0.590000E-01   1.00800           0   0.00000       0.00000    
      3094 MEMB     17       POPE     H16Z     HDA3A    0.590000E-01   1.00800           0   0.00000       0.00000    
      3095 MEMB     18       POPE     N        ND3P3A    1.62810       13.6070           0  -1.29800      0.895000    
      3096 MEMB     18       POPE     DN       DRUD     -1.97710      0.400000           0   0.00000       0.00000    
      3097 MEMB     18       POPE     HN1      HDP1B    0.340000       1.00800           0   0.00000       0.00000    
      3098 MEMB     18       POPE     HN2      HDP1B    0.340000       1.00800           0   0.00000       0.00000    
      3099 MEMB     18       POPE     HN3      HDP1B    0.340000       1.00800           0   0.00000       0.00000    
      3100 MEMB     18       POPE     C12      CD32A     2.27610       11.6110           0  -1.65600      0.895000    
      3101 MEMB     18       POPE     DC12     DRUD     -2.23310      0.400000           0   0.00000       0.00000    
      3102 MEMB     18       POPE     H12A     HDA2A    0.143000       1.00800           0   0.00000       0.00000    
      3103 MEMB     18       POPE     H12B     HDA2A    0.143000       1.00800           0   0.00000       0.00000    
      3104 MEMB     18       POPE     C11      CD32A     2.42220       11.6110           0  -1.64200      0.862000    
      3105 MEMB     18       POPE     DC11     DRUD     -2.22370      0.400000           0   0.00000       0.00000    
      3106 MEMB     18       POPE     H11A     HDA2A    0.260000E-01   1.00800           0   0.00000       0.00000    
      3107 MEMB     18       POPE     H11B     HDA2A    0.260000E-01   1.00800           0   0.00000       0.00000    
      3108 MEMB     18       POPE     P        PD1A      2.90360       30.5740           0 -0.974000       2.09800    
      3109 MEMB     18       POPE     DP       DRUD     -1.71260      0.400000           0   0.00000       0.00000    
      3110 MEMB     18       POPE     O13      OD2C2B   0.798400       15.5994           0 -0.931000       1.08300    
      3111 MEMB     18       POPE     DO13     DRUD     -1.67440      0.400000           0   0.00000       0.00000    
      3112 MEMB     18       POPE     O14      OD2C2B   0.798400       15.5994           0 -0.931000       1.08300    
      3113 MEMB     18       POPE     DO14     DRUD     -1.67440      0.400000           0   0.00000       0.00000    
      3114 MEMB     18       POPE     O11      OD30B     1.17720       15.5994           0 -0.901000      0.181000    
      3115 MEMB     18       POPE     DO11     DRUD     -1.64720      0.400000           0   0.00000       0.00000    
      3116 MEMB     18       POPE     O12      OD30B     1.17720       15.5994           0 -0.901000      0.181000    
      3117 MEMB     18       POPE     DO12     DRUD     -1.64720      0.400000           0   0.00000       0.00000    
      3118 MEMB     18       POPE     C1       CD32A     2.42220       11.6110           0  -1.64200      0.862000    
      3119 MEMB     18       POPE     DC1      DRUD     -2.22370      0.400000           0   0.00000       0.00000    
      3120 MEMB     18       POPE     HA       HDA2A    0.260000E-01   1.00800           0   0.00000       0.00000    
      3121 MEMB     18       POPE     HB       HDA2A    0.260000E-01   1.00800           0   0.00000       0.00000    
      3122 MEMB     18       POPE     C2       CD31C     2.52830       11.6110           0  -1.79700      0.410000    
      3123 MEMB     18       POPE     DC2      DRUD     -2.32630      0.400000           0   0.00000       0.00000    
      3124 MEMB     18       POPE     HS       HDA1A    0.116000       1.00800           0   0.00000       0.00000    
      3125 MEMB     18       POPE     O21      OD30CL    1.48470       15.5994           0 -0.732000      0.601000    
      3126 MEMB     18       POPE     DO21     DRUD     -1.48470      0.400000           0   0.00000       0.00000    
      3127 MEMB     18       POPE     C21      CD2O3B    2.72820       11.6110           0  -1.37000       1.74700    
      3128 MEMB     18       POPE     DC21     DRUD     -2.03120      0.400000           0   0.00000       0.00000    
      3129 MEMB     18       POPE     O22      OD2C3B    1.64990       15.5994           0 -0.904000      0.565000    
      3130 MEMB     18       POPE     DO22     DRUD     -1.64990      0.400000           0   0.00000       0.00000    
      3131 MEMB     18       POPE     C22      CD32C     2.24380       11.6110           0  -1.99300      0.410000    
      3132 MEMB     18       POPE     DC22     DRUD     -2.44980      0.400000           0   0.00000       0.00000    
      3133 MEMB     18       POPE     H2R      HDA2A    0.690000E-01   1.00800           0   0.00000       0.00000    
      3134 MEMB     18       POPE     H2S      HDA2A    0.690000E-01   1.00800           0   0.00000       0.00000    
      3135 MEMB     18       POPE     LP1A     LPD     -0.349000       0.00000          -1   0.00000       0.00000    
      3136 MEMB     18       POPE     LP1B     LPD     -0.258000       0.00000          -1   0.00000       0.00000    
      3137 MEMB     18       POPE     LPMA     LPD     -0.170000       0.00000          -1   0.00000       0.00000    
      3138 MEMB     18       POPE     LPMB     LPD     -0.170000       0.00000          -1   0.00000       0.00000    
      3139 MEMB     18       POPE     C3       CD32C     2.41230       11.6110           0  -1.79700      0.410000    
      3140 MEMB     18       POPE     DC3      DRUD     -2.32630      0.400000           0   0.00000       0.00000    
      3141 MEMB     18       POPE     HX       HDA2A    0.116000       1.00800           0   0.00000       0.00000    
      3142 MEMB     18       POPE     HY       HDA2A    0.116000       1.00800           0   0.00000       0.00000    
      3143 MEMB     18       POPE     O31      OD30CL    1.48470       15.5994           0 -0.732000      0.601000    
      3144 MEMB     18       POPE     DO31     DRUD     -1.48470      0.400000           0   0.00000       0.00000    
      3145 MEMB     18       POPE     C31      CD2O3B    2.72820       11.6110           0  -1.37000       1.74700    
      3146 MEMB     18       POPE     DC31     DRUD     -2.03120      0.400000           0   0.00000       0.00000    
      3147 MEMB     18       POPE     O32      OD2C3B    1.64990       15.5994           0 -0.904000      0.565000    
      3148 MEMB     18       POPE     DO32     DRUD     -1.64990      0.400000           0   0.00000       0.00000    
      3149 MEMB     18       POPE     C32      CD32C     2.24380       11.6110           0  -1.99300      0.410000    
      3150 MEMB     18       POPE     DC32     DRUD     -2.44980      0.400000           0   0.00000       0.00000    
      3151 MEMB     18       POPE     H2X      HDA2A    0.690000E-01   1.00800           0   0.00000       0.00000    
      3152 MEMB     18       POPE     H2Y      HDA2A    0.690000E-01   1.00800           0   0.00000       0.00000    
      3153 MEMB     18       POPE     LP1C     LPD     -0.349000       0.00000          -1   0.00000       0.00000    
      3154 MEMB     18       POPE     LP1D     LPD     -0.258000       0.00000          -1   0.00000       0.00000    
      3155 MEMB     18       POPE     LPMC     LPD     -0.170000       0.00000          -1   0.00000       0.00000    
      3156 MEMB     18       POPE     LPMD     LPD     -0.170000       0.00000          -1   0.00000       0.00000    
      3157 MEMB     18       POPE     C23      CD32A     2.07980       11.6110           0  -1.66000       1.30000    
      3158 MEMB     18       POPE     DC23     DRUD     -2.23580      0.400000           0   0.00000       0.00000    
      3159 MEMB     18       POPE     H3R      HDA2A    0.780000E-01   1.00800           0   0.00000       0.00000    
      3160 MEMB     18       POPE     H3S      HDA2A    0.780000E-01   1.00800           0   0.00000       0.00000    
      3161 MEMB     18       POPE     C24      CD32A     2.07980       11.6110           0  -1.66000       1.30000    
      3162 MEMB     18       POPE     DC24     DRUD     -2.23580      0.400000           0   0.00000       0.00000    
      3163 MEMB     18       POPE     H4R      HDA2A    0.780000E-01   1.00800           0   0.00000       0.00000    
      3164 MEMB     18       POPE     H4S      HDA2A    0.780000E-01   1.00800           0   0.00000       0.00000    
      3165 MEMB     18       POPE     C25      CD32A     2.07980       11.6110           0  -1.66000       1.30000    
      3166 MEMB     18       POPE     DC25     DRUD     -2.23580      0.400000           0   0.00000       0.00000    
      3167 MEMB     18       POPE     H5R      HDA2A    0.780000E-01   1.00800           0   0.00000       0.00000    
      3168 MEMB     18       POPE     H5S      HDA2A    0.780000E-01   1.00800           0   0.00000       0.00000    
      3169 MEMB     18       POPE     C26      CD32A     2.07980       11.6110           0  -1.66000       1.30000    
      3170 MEMB     18       POPE     DC26     DRUD     -2.23580      0.400000           0   0.00000       0.00000    
      3171 MEMB     18       POPE     H6R      HDA2A    0.780000E-01   1.00800           0   0.00000       0.00000    
      3172 MEMB     18       POPE     H6S      HDA2A    0.780000E-01   1.00800           0   0.00000       0.00000    
      3173 MEMB     18       POPE     C27      CD32A     2.07980       11.6110           0  -1.66000       1.30000    
      3174 MEMB     18       POPE     DC27     DRUD     -2.23580      0.400000           0   0.00000       0.00000    
      3175 MEMB     18       POPE     H7R      HDA2A    0.780000E-01   1.00800           0   0.00000       0.00000    
      3176 MEMB     18       POPE     H7S      HDA2A    0.780000E-01   1.00800           0   0.00000       0.00000    
      3177 MEMB     18       POPE     C28      CD32A     2.07980       11.6110           0  -1.66000       1.30000    
      3178 MEMB     18       POPE     DC28     DRUD     -2.23580      0.400000           0   0.00000       0.00000    
      3179 MEMB     18       POPE     H8R      HDA2A    0.780000E-01   1.00800           0   0.00000       0.00000    
      3180 MEMB     18       POPE     H8S      HDA2A    0.780000E-01   1.00800           0   0.00000       0.00000    
      3181 MEMB     18       POPE     C29      CD2C1A    2.33700       11.6110           0  -1.99000      0.750000    
      3182 MEMB     18       POPE     DC29     DRUD     -2.44800      0.400000           0   0.00000       0.00000    
      3183 MEMB     18       POPE     H91      HD2C1A   0.111000       1.00800           0   0.00000       0.00000    
      3184 MEMB     18       POPE     C210     CD2C1A    2.33700       11.6110           0  -1.99000      0.750000    
      3185 MEMB     18       POPE     DC210    DRUD     -2.44800      0.400000           0   0.00000       0.00000    
      3186 MEMB     18       POPE     H101     HD2C1A   0.111000       1.00800           0   0.00000       0.00000    
      3187 MEMB     18       POPE     C211     CD32A     2.07980       11.6110           0  -1.66000       1.30000    
      3188 MEMB     18       POPE     DC211    DRUD     -2.23580      0.400000           0   0.00000       0.00000    
      3189 MEMB     18       POPE     H11R     HDA2A    0.780000E-01   1.00800           0   0.00000       0.00000    
      3190 MEMB     18       POPE     H11S     HDA2A    0.780000E-01   1.00800           0   0.00000       0.00000    
      3191 MEMB     18       POPE     C212     CD32A     2.07980       11.6110           0  -1.66000       1.30000    
      3192 MEMB     18       POPE     DC212    DRUD     -2.23580      0.400000           0   0.00000       0.00000    
      3193 MEMB     18       POPE     H12R     HDA2A    0.780000E-01   1.00800           0   0.00000       0.00000    
      3194 MEMB     18       POPE     H12S     HDA2A    0.780000E-01   1.00800           0   0.00000       0.00000    
      3195 MEMB     18       POPE     C213     CD32A     2.07980       11.6110           0  -1.66000       1.30000    
      3196 MEMB     18       POPE     DC213    DRUD     -2.23580      0.400000           0   0.00000       0.00000    
      3197 MEMB     18       POPE     H13R     HDA2A    0.780000E-01   1.00800           0   0.00000       0.00000    
      3198 MEMB     18       POPE     H13S     HDA2A    0.780000E-01   1.00800           0   0.00000       0.00000    
      3199 MEMB     18       POPE     C214     CD32A     2.07980       11.6110           0  -1.66000       1.30000    
      3200 MEMB     18       POPE     DC214    DRUD     -2.23580      0.400000           0   0.00000       0.00000    
      3201 MEMB     18       POPE     H14R     HDA2A    0.780000E-01   1.00800           0   0.00000       0.00000    
      3202 MEMB     18       POPE     H14S     HDA2A    0.780000E-01   1.00800           0   0.00000       0.00000    
      3203 MEMB     18       POPE     C215     CD32A     2.07980       11.6110           0  -1.66000       1.30000    
      3204 MEMB     18       POPE     DC215    DRUD     -2.23580      0.400000           0   0.00000       0.00000    
      3205 MEMB     18       POPE     H15R     HDA2A    0.780000E-01   1.00800           0   0.00000       0.00000    
      3206 MEMB     18       POPE     H15S     HDA2A    0.780000E-01   1.00800           0   0.00000       0.00000    
      3207 MEMB     18       POPE     C216     CD32A     2.07980       11.6110           0  -1.66000       1.30000    
      3208 MEMB     18       POPE     DC216    DRUD     -2.23580      0.400000           0   0.00000       0.00000    
      3209 MEMB     18       POPE     H16R     HDA2A    0.780000E-01   1.00800           0   0.00000       0.00000    
      3210 MEMB     18       POPE     H16S     HDA2A    0.780000E-01   1.00800           0   0.00000       0.00000    
      3211 MEMB     18       POPE     C217     CD32A     2.07980       11.6110           0  -1.66000       1.30000    
      3212 MEMB     18       POPE     DC217    DRUD     -2.23580      0.400000           0   0.00000       0.00000    
      3213 MEMB     18       POPE     H17R     HDA2A    0.780000E-01   1.00800           0   0.00000       0.00000    
      3214 MEMB     18       POPE     H17S     HDA2A    0.780000E-01   1.00800           0   0.00000       0.00000    
      3215 MEMB     18       POPE     C218     CD33A     2.30820       11.6110           0  -2.05100       1.30000    
      3216 MEMB     18       POPE     DC218    DRUD     -2.48520      0.400000           0   0.00000       0.00000    
      3217 MEMB     18       POPE     H18R     HDA3A    0.590000E-01   1.00800           0   0.00000       0.00000    
      3218 MEMB     18       POPE     H18S     HDA3A    0.590000E-01   1.00800           0   0.00000       0.00000    
      3219 MEMB     18       POPE     H18T     HDA3A    0.590000E-01   1.00800           0   0.00000       0.00000    
      3220 MEMB     18       POPE     C33      CD32A     2.07980       11.6110           0  -1.66000       1.30000    
      3221 MEMB     18       POPE     DC33     DRUD     -2.23580      0.400000           0   0.00000       0.00000    
      3222 MEMB     18       POPE     H3X      HDA2A    0.780000E-01   1.00800           0   0.00000       0.00000    
      3223 MEMB     18       POPE     H3Y      HDA2A    0.780000E-01   1.00800           0   0.00000       0.00000    
      3224 MEMB     18       POPE     C34      CD32A     2.07980       11.6110           0  -1.66000       1.30000    
      3225 MEMB     18       POPE     DC34     DRUD     -2.23580      0.400000           0   0.00000       0.00000    
      3226 MEMB     18       POPE     H4X      HDA2A    0.780000E-01   1.00800           0   0.00000       0.00000    
      3227 MEMB     18       POPE     H4Y      HDA2A    0.780000E-01   1.00800           0   0.00000       0.00000    
      3228 MEMB     18       POPE     C35      CD32A     2.07980       11.6110           0  -1.66000       1.30000    
      3229 MEMB     18       POPE     DC35     DRUD     -2.23580      0.400000           0   0.00000       0.00000    
      3230 MEMB     18       POPE     H5X      HDA2A    0.780000E-01   1.00800           0   0.00000       0.00000    
      3231 MEMB     18       POPE     H5Y      HDA2A    0.780000E-01   1.00800           0   0.00000       0.00000    
      3232 MEMB     18       POPE     C36      CD32A     2.07980       11.6110           0  -1.66000       1.30000    
      3233 MEMB     18       POPE     DC36     DRUD     -2.23580      0.400000           0   0.00000       0.00000    
      3234 MEMB     18       POPE     H6X      HDA2A    0.780000E-01   1.00800           0   0.00000       0.00000    
      3235 MEMB     18       POPE     H6Y      HDA2A    0.780000E-01   1.00800           0   0.00000       0.00000    
      3236 MEMB     18       POPE     C37      CD32A     2.07980       11.6110           0  -1.66000       1.30000    
      3237 MEMB     18       POPE     DC37     DRUD     -2.23580      0.400000           0   0.00000       0.00000    
      3238 MEMB     18       POPE     H7X      HDA2A    0.780000E-01   1.00800           0   0.00000       0.00000    
      3239 MEMB     18       POPE     H7Y      HDA2A    0.780000E-01   1.00800           0   0.00000       0.00000    
      3240 MEMB     18       POPE     C38      CD32A     2.07980       11.6110           0  -1.66000       1.30000    
      3241 MEMB     18       POPE     DC38     DRUD     -2.23580      0.400000           0   0.00000       0.00000    
      3242 MEMB     18       POPE     H8X      HDA2A    0.780000E-01   1.00800           0   0.00000       0.00000    
      3243 MEMB     18       POPE     H8Y      HDA2A    0.780000E-01   1.00800           0   0.00000       0.00000    
      3244 MEMB     18       POPE     C39      CD32A     2.07980       11.6110           0  -1.66000       1.30000    
      3245 MEMB     18       POPE     DC39     DRUD     -2.23580      0.400000           0   0.00000       0.00000    
      3246 MEMB     18       POPE     H9X      HDA2A    0.780000E-01   1.00800           0   0.00000       0.00000    
      3247 MEMB     18       POPE     H9Y      HDA2A    0.780000E-01   1.00800           0   0.00000       0.00000    
      3248 MEMB     18       POPE     C310     CD32A     2.07980       11.6110           0  -1.66000       1.30000    
      3249 MEMB     18       POPE     DC310    DRUD     -2.23580      0.400000           0   0.00000       0.00000    
      3250 MEMB     18       POPE     H10X     HDA2A    0.780000E-01   1.00800           0   0.00000       0.00000    
      3251 MEMB     18       POPE     H10Y     HDA2A    0.780000E-01   1.00800           0   0.00000       0.00000    
      3252 MEMB     18       POPE     C311     CD32A     2.07980       11.6110           0  -1.66000       1.30000    
      3253 MEMB     18       POPE     DC311    DRUD     -2.23580      0.400000           0   0.00000       0.00000    
      3254 MEMB     18       POPE     H11X     HDA2A    0.780000E-01   1.00800           0   0.00000       0.00000    
      3255 MEMB     18       POPE     H11Y     HDA2A    0.780000E-01   1.00800           0   0.00000       0.00000    
      3256 MEMB     18       POPE     C312     CD32A     2.07980       11.6110           0  -1.66000       1.30000    
      3257 MEMB     18       POPE     DC312    DRUD     -2.23580      0.400000           0   0.00000       0.00000    
      3258 MEMB     18       POPE     H12X     HDA2A    0.780000E-01   1.00800           0   0.00000       0.00000    
      3259 MEMB     18       POPE     H12Y     HDA2A    0.780000E-01   1.00800           0   0.00000       0.00000    
      3260 MEMB     18       POPE     C313     CD32A     2.07980       11.6110           0  -1.66000       1.30000    
      3261 MEMB     18       POPE     DC313    DRUD     -2.23580      0.400000           0   0.00000       0.00000    
      3262 MEMB     18       POPE     H13X     HDA2A    0.780000E-01   1.00800           0   0.00000       0.00000    
      3263 MEMB     18       POPE     H13Y     HDA2A    0.780000E-01   1.00800           0   0.00000       0.00000    
      3264 MEMB     18       POPE     C314     CD32A     2.07980       11.6110           0  -1.66000       1.30000    
      3265 MEMB     18       POPE     DC314    DRUD     -2.23580      0.400000           0   0.00000       0.00000    
      3266 MEMB     18       POPE     H14X     HDA2A    0.780000E-01   1.00800           0   0.00000       0.00000    
      3267 MEMB     18       POPE     H14Y     HDA2A    0.780000E-01   1.00800           0   0.00000       0.00000    
      3268 MEMB     18       POPE     C315     CD32A     2.07980       11.6110           0  -1.66000       1.30000    
      3269 MEMB     18       POPE     DC315    DRUD     -2.23580      0.400000           0   0.00000       0.00000    
      3270 MEMB     18       POPE     H15X     HDA2A    0.780000E-01   1.00800           0   0.00000       0.00000    
      3271 MEMB     18       POPE     H15Y     HDA2A    0.780000E-01   1.00800           0   0.00000       0.00000    
      3272 MEMB     18       POPE     C316     CD33A     2.30820       11.6110           0  -2.05100       1.30000    
      3273 MEMB     18       POPE     DC316    DRUD     -2.48520      0.400000           0   0.00000       0.00000    
      3274 MEMB     18       POPE     H16X     HDA3A    0.590000E-01   1.00800           0   0.00000       0.00000    
      3275 MEMB     18       POPE     H16Y     HDA3A    0.590000E-01   1.00800           0   0.00000       0.00000    
      3276 MEMB     18       POPE     H16Z     HDA3A    0.590000E-01   1.00800           0   0.00000       0.00000    
      3277 MEMB     19       POPE     N        ND3P3A    1.62810       13.6070           0  -1.29800      0.895000    
      3278 MEMB     19       POPE     DN       DRUD     -1.97710      0.400000           0   0.00000       0.00000    
      3279 MEMB     19       POPE     HN1      HDP1B    0.340000       1.00800           0   0.00000       0.00000    
      3280 MEMB     19       POPE     HN2      HDP1B    0.340000       1.00800           0   0.00000       0.00000    
      3281 MEMB     19       POPE     HN3      HDP1B    0.340000       1.00800           0   0.00000       0.00000    
      3282 MEMB     19       POPE     C12      CD32A     2.27610       11.6110           0  -1.65600      0.895000    
      3283 MEMB     19       POPE     DC12     DRUD     -2.23310      0.400000           0   0.00000       0.00000    
      3284 MEMB     19       POPE     H12A     HDA2A    0.143000       1.00800           0   0.00000       0.00000    
      3285 MEMB     19       POPE     H12B     HDA2A    0.143000       1.00800           0   0.00000       0.00000    
      3286 MEMB     19       POPE     C11      CD32A     2.42220       11.6110           0  -1.64200      0.862000    
      3287 MEMB     19       POPE     DC11     DRUD     -2.22370      0.400000           0   0.00000       0.00000    
      3288 MEMB     19       POPE     H11A     HDA2A    0.260000E-01   1.00800           0   0.00000       0.00000    
      3289 MEMB     19       POPE     H11B     HDA2A    0.260000E-01   1.00800           0   0.00000       0.00000    
      3290 MEMB     19       POPE     P        PD1A      2.90360       30.5740           0 -0.974000       2.09800    
      3291 MEMB     19       POPE     DP       DRUD     -1.71260      0.400000           0   0.00000       0.00000    
      3292 MEMB     19       POPE     O13      OD2C2B   0.798400       15.5994           0 -0.931000       1.08300    
      3293 MEMB     19       POPE     DO13     DRUD     -1.67440      0.400000           0   0.00000       0.00000    
      3294 MEMB     19       POPE     O14      OD2C2B   0.798400       15.5994           0 -0.931000       1.08300    
      3295 MEMB     19       POPE     DO14     DRUD     -1.67440      0.400000           0   0.00000       0.00000    
      3296 MEMB     19       POPE     O11      OD30B     1.17720       15.5994           0 -0.901000      0.181000    
      3297 MEMB     19       POPE     DO11     DRUD     -1.64720      0.400000           0   0.00000       0.00000    
      3298 MEMB     19       POPE     O12      OD30B     1.17720       15.5994           0 -0.901000      0.181000    
      3299 MEMB     19       POPE     DO12     DRUD     -1.64720      0.400000           0   0.00000       0.00000    
      3300 MEMB     19       POPE     C1       CD32A     2.42220       11.6110           0  -1.64200      0.862000    
      3301 MEMB     19       POPE     DC1      DRUD     -2.22370      0.400000           0   0.00000       0.00000    
      3302 MEMB     19       POPE     HA       HDA2A    0.260000E-01   1.00800           0   0.00000       0.00000    
      3303 MEMB     19       POPE     HB       HDA2A    0.260000E-01   1.00800           0   0.00000       0.00000    
      3304 MEMB     19       POPE     C2       CD31C     2.52830       11.6110           0  -1.79700      0.410000    
      3305 MEMB     19       POPE     DC2      DRUD     -2.32630      0.400000           0   0.00000       0.00000    
      3306 MEMB     19       POPE     HS       HDA1A    0.116000       1.00800           0   0.00000       0.00000    
      3307 MEMB     19       POPE     O21      OD30CL    1.48470       15.5994           0 -0.732000      0.601000    
      3308 MEMB     19       POPE     DO21     DRUD     -1.48470      0.400000           0   0.00000       0.00000    
      3309 MEMB     19       POPE     C21      CD2O3B    2.72820       11.6110           0  -1.37000       1.74700    
      3310 MEMB     19       POPE     DC21     DRUD     -2.03120      0.400000           0   0.00000       0.00000    
      3311 MEMB     19       POPE     O22      OD2C3B    1.64990       15.5994           0 -0.904000      0.565000    
      3312 MEMB     19       POPE     DO22     DRUD     -1.64990      0.400000           0   0.00000       0.00000    
      3313 MEMB     19       POPE     C22      CD32C     2.24380       11.6110           0  -1.99300      0.410000    
      3314 MEMB     19       POPE     DC22     DRUD     -2.44980      0.400000           0   0.00000       0.00000    
      3315 MEMB     19       POPE     H2R      HDA2A    0.690000E-01   1.00800           0   0.00000       0.00000    
      3316 MEMB     19       POPE     H2S      HDA2A    0.690000E-01   1.00800           0   0.00000       0.00000    
      3317 MEMB     19       POPE     LP1A     LPD     -0.349000       0.00000          -1   0.00000       0.00000    
      3318 MEMB     19       POPE     LP1B     LPD     -0.258000       0.00000          -1   0.00000       0.00000    
      3319 MEMB     19       POPE     LPMA     LPD     -0.170000       0.00000          -1   0.00000       0.00000    
      3320 MEMB     19       POPE     LPMB     LPD     -0.170000       0.00000          -1   0.00000       0.00000    
      3321 MEMB     19       POPE     C3       CD32C     2.41230       11.6110           0  -1.79700      0.410000    
      3322 MEMB     19       POPE     DC3      DRUD     -2.32630      0.400000           0   0.00000       0.00000    
      3323 MEMB     19       POPE     HX       HDA2A    0.116000       1.00800           0   0.00000       0.00000    
      3324 MEMB     19       POPE     HY       HDA2A    0.116000       1.00800           0   0.00000       0.00000    
      3325 MEMB     19       POPE     O31      OD30CL    1.48470       15.5994           0 -0.732000      0.601000    
      3326 MEMB     19       POPE     DO31     DRUD     -1.48470      0.400000           0   0.00000       0.00000    
      3327 MEMB     19       POPE     C31      CD2O3B    2.72820       11.6110           0  -1.37000       1.74700    
      3328 MEMB     19       POPE     DC31     DRUD     -2.03120      0.400000           0   0.00000       0.00000    
      3329 MEMB     19       POPE     O32      OD2C3B    1.64990       15.5994           0 -0.904000      0.565000    
      3330 MEMB     19       POPE     DO32     DRUD     -1.64990      0.400000           0   0.00000       0.00000    
      3331 MEMB     19       POPE     C32      CD32C     2.24380       11.6110           0  -1.99300      0.410000    
      3332 MEMB     19       POPE     DC32     DRUD     -2.44980      0.400000           0   0.00000       0.00000    
      3333 MEMB     19       POPE     H2X      HDA2A    0.690000E-01   1.00800           0   0.00000       0.00000    
      3334 MEMB     19       POPE     H2Y      HDA2A    0.690000E-01   1.00800           0   0.00000       0.00000    
      3335 MEMB     19       POPE     LP1C     LPD     -0.349000       0.00000          -1   0.00000       0.00000    
      3336 MEMB     19       POPE     LP1D     LPD     -0.258000       0.00000          -1   0.00000       0.00000    
      3337 MEMB     19       POPE     LPMC     LPD     -0.170000       0.00000          -1   0.00000       0.00000    
      3338 MEMB     19       POPE     LPMD     LPD     -0.170000       0.00000          -1   0.00000       0.00000    
      3339 MEMB     19       POPE     C23      CD32A     2.07980       11.6110           0  -1.66000       1.30000    
      3340 MEMB     19       POPE     DC23     DRUD     -2.23580      0.400000           0   0.00000       0.00000    
      3341 MEMB     19       POPE     H3R      HDA2A    0.780000E-01   1.00800           0   0.00000       0.00000    
      3342 MEMB     19       POPE     H3S      HDA2A    0.780000E-01   1.00800           0   0.00000       0.00000    
      3343 MEMB     19       POPE     C24      CD32A     2.07980       11.6110           0  -1.66000       1.30000    
      3344 MEMB     19       POPE     DC24     DRUD     -2.23580      0.400000           0   0.00000       0.00000    
      3345 MEMB     19       POPE     H4R      HDA2A    0.780000E-01   1.00800           0   0.00000       0.00000    
      3346 MEMB     19       POPE     H4S      HDA2A    0.780000E-01   1.00800           0   0.00000       0.00000    
      3347 MEMB     19       POPE     C25      CD32A     2.07980       11.6110           0  -1.66000       1.30000    
      3348 MEMB     19       POPE     DC25     DRUD     -2.23580      0.400000           0   0.00000       0.00000    
      3349 MEMB     19       POPE     H5R      HDA2A    0.780000E-01   1.00800           0   0.00000       0.00000    
      3350 MEMB     19       POPE     H5S      HDA2A    0.780000E-01   1.00800           0   0.00000       0.00000    
      3351 MEMB     19       POPE     C26      CD32A     2.07980       11.6110           0  -1.66000       1.30000    
      3352 MEMB     19       POPE     DC26     DRUD     -2.23580      0.400000           0   0.00000       0.00000    
      3353 MEMB     19       POPE     H6R      HDA2A    0.780000E-01   1.00800           0   0.00000       0.00000    
      3354 MEMB     19       POPE     H6S      HDA2A    0.780000E-01   1.00800           0   0.00000       0.00000    
      3355 MEMB     19       POPE     C27      CD32A     2.07980       11.6110           0  -1.66000       1.30000    
      3356 MEMB     19       POPE     DC27     DRUD     -2.23580      0.400000           0   0.00000       0.00000    
      3357 MEMB     19       POPE     H7R      HDA2A    0.780000E-01   1.00800           0   0.00000       0.00000    
      3358 MEMB     19       POPE     H7S      HDA2A    0.780000E-01   1.00800           0   0.00000       0.00000    
      3359 MEMB     19       POPE     C28      CD32A     2.07980       11.6110           0  -1.66000       1.30000    
      3360 MEMB     19       POPE     DC28     DRUD     -2.23580      0.400000           0   0.00000       0.00000    
      3361 MEMB     19       POPE     H8R      HDA2A    0.780000E-01   1.00800           0   0.00000       0.00000    
      3362 MEMB     19       POPE     H8S      HDA2A    0.780000E-01   1.00800           0   0.00000       0.00000    
      3363 MEMB     19       POPE     C29      CD2C1A    2.33700       11.6110           0  -1.99000      0.750000    
      3364 MEMB     19       POPE     DC29     DRUD     -2.44800      0.400000           0   0.00000       0.00000    
      3365 MEMB     19       POPE     H91      HD2C1A   0.111000       1.00800           0   0.00000       0.00000    
      3366 MEMB     19       POPE     C210     CD2C1A    2.33700       11.6110           0  -1.99000      0.750000    
      3367 MEMB     19       POPE     DC210    DRUD     -2.44800      0.400000           0   0.00000       0.00000    
      3368 MEMB     19       POPE     H101     HD2C1A   0.111000       1.00800           0   0.00000       0.00000    
      3369 MEMB     19       POPE     C211     CD32A     2.07980       11.6110           0  -1.66000       1.30000    
      3370 MEMB     19       POPE     DC211    DRUD     -2.23580      0.400000           0   0.00000       0.00000    
      3371 MEMB     19       POPE     H11R     HDA2A    0.780000E-01   1.00800           0   0.00000       0.00000    
      3372 MEMB     19       POPE     H11S     HDA2A    0.780000E-01   1.00800           0   0.00000       0.00000    
      3373 MEMB     19       POPE     C212     CD32A     2.07980       11.6110           0  -1.66000       1.30000    
      3374 MEMB     19       POPE     DC212    DRUD     -2.23580      0.400000           0   0.00000       0.00000    
      3375 MEMB     19       POPE     H12R     HDA2A    0.780000E-01   1.00800           0   0.00000       0.00000    
      3376 MEMB     19       POPE     H12S     HDA2A    0.780000E-01   1.00800           0   0.00000       0.00000    
      3377 MEMB     19       POPE     C213     CD32A     2.07980       11.6110           0  -1.66000       1.30000    
      3378 MEMB     19       POPE     DC213    DRUD     -2.23580      0.400000           0   0.00000       0.00000    
      3379 MEMB     19       POPE     H13R     HDA2A    0.780000E-01   1.00800           0   0.00000       0.00000    
      3380 MEMB     19       POPE     H13S     HDA2A    0.780000E-01   1.00800           0   0.00000       0.00000    
      3381 MEMB     19       POPE     C214     CD32A     2.07980       11.6110           0  -1.66000       1.30000    
      3382 MEMB     19       POPE     DC214    DRUD     -2.23580      0.400000           0   0.00000       0.00000    
      3383 MEMB     19       POPE     H14R     HDA2A    0.780000E-01   1.00800           0   0.00000       0.00000    
      3384 MEMB     19       POPE     H14S     HDA2A    0.780000E-01   1.00800           0   0.00000       0.00000    
      3385 MEMB     19       POPE     C215     CD32A     2.07980       11.6110           0  -1.66000       1.30000    
      3386 MEMB     19       POPE     DC215    DRUD     -2.23580      0.400000           0   0.00000       0.00000    
      3387 MEMB     19       POPE     H15R     HDA2A    0.780000E-01   1.00800           0   0.00000       0.00000    
      3388 MEMB     19       POPE     H15S     HDA2A    0.780000E-01   1.00800           0   0.00000       0.00000    
      3389 MEMB     19       POPE     C216     CD32A     2.07980       11.6110           0  -1.66000       1.30000    
      3390 MEMB     19       POPE     DC216    DRUD     -2.23580      0.400000           0   0.00000       0.00000    
      3391 MEMB     19       POPE     H16R     HDA2A    0.780000E-01   1.00800           0   0.00000       0.00000    
      3392 MEMB     19       POPE     H16S     HDA2A    0.780000E-01   1.00800           0   0.00000       0.00000    
      3393 MEMB     19       POPE     C217     CD32A     2.07980       11.6110           0  -1.66000       1.30000    
      3394 MEMB     19       POPE     DC217    DRUD     -2.23580      0.400000           0   0.00000       0.00000    
      3395 MEMB     19       POPE     H17R     HDA2A    0.780000E-01   1.00800           0   0.00000       0.00000    
      3396 MEMB     19       POPE     H17S     HDA2A    0.780000E-01   1.00800           0   0.00000       0.00000    
      3397 MEMB     19       POPE     C218     CD33A     2.30820       11.6110           0  -2.05100       1.30000    
      3398 MEMB     19       POPE     DC218    DRUD     -2.48520      0.400000           0   0.00000       0.00000    
      3399 MEMB     19       POPE     H18R     HDA3A    0.590000E-01   1.00800           0   0.00000       0.00000    
      3400 MEMB     19       POPE     H18S     HDA3A    0.590000E-01   1.00800           0   0.00000       0.00000    
      3401 MEMB     19       POPE     H18T     HDA3A    0.590000E-01   1.00800           0   0.00000       0.00000    
      3402 MEMB     19       POPE     C33      CD32A     2.07980       11.6110           0  -1.66000       1.30000    
      3403 MEMB     19       POPE     DC33     DRUD     -2.23580      0.400000           0   0.00000       0.00000    
      3404 MEMB     19       POPE     H3X      HDA2A    0.780000E-01   1.00800           0   0.00000       0.00000    
      3405 MEMB     19       POPE     H3Y      HDA2A    0.780000E-01   1.00800           0   0.00000       0.00000    
      3406 MEMB     19       POPE     C34      CD32A     2.07980       11.6110           0  -1.66000       1.30000    
      3407 MEMB     19       POPE     DC34     DRUD     -2.23580      0.400000           0   0.00000       0.00000    
      3408 MEMB     19       POPE     H4X      HDA2A    0.780000E-01   1.00800           0   0.00000       0.00000    
      3409 MEMB     19       POPE     H4Y      HDA2A    0.780000E-01   1.00800           0   0.00000       0.00000    
      3410 MEMB     19       POPE     C35      CD32A     2.07980       11.6110           0  -1.66000       1.30000    
      3411 MEMB     19       POPE     DC35     DRUD     -2.23580      0.400000           0   0.00000       0.00000    
      3412 MEMB     19       POPE     H5X      HDA2A    0.780000E-01   1.00800           0   0.00000       0.00000    
      3413 MEMB     19       POPE     H5Y      HDA2A    0.780000E-01   1.00800           0   0.00000       0.00000    
      3414 MEMB     19       POPE     C36      CD32A     2.07980       11.6110           0  -1.66000       1.30000    
      3415 MEMB     19       POPE     DC36     DRUD     -2.23580      0.400000           0   0.00000       0.00000    
      3416 MEMB     19       POPE     H6X      HDA2A    0.780000E-01   1.00800           0   0.00000       0.00000    
      3417 MEMB     19       POPE     H6Y      HDA2A    0.780000E-01   1.00800           0   0.00000       0.00000    
      3418 MEMB     19       POPE     C37      CD32A     2.07980       11.6110           0  -1.66000       1.30000    
      3419 MEMB     19       POPE     DC37     DRUD     -2.23580      0.400000           0   0.00000       0.00000    
      3420 MEMB     19       POPE     H7X      HDA2A    0.780000E-01   1.00800           0   0.00000       0.00000    
      3421 MEMB     19       POPE     H7Y      HDA2A    0.780000E-01   1.00800           0   0.00000       0.00000    
      3422 MEMB     19       POPE     C38      CD32A     2.07980       11.6110           0  -1.66000       1.30000    
      3423 MEMB     19       POPE     DC38     DRUD     -2.23580      0.400000           0   0.00000       0.00000    
      3424 MEMB     19       POPE     H8X      HDA2A    0.780000E-01   1.00800           0   0.00000       0.00000    
      3425 MEMB     19       POPE     H8Y      HDA2A    0.780000E-01   1.00800           0   0.00000       0.00000    
      3426 MEMB     19       POPE     C39      CD32A     2.07980       11.6110           0  -1.66000       1.30000    
      3427 MEMB     19       POPE     DC39     DRUD     -2.23580      0.400000           0   0.00000       0.00000    
      3428 MEMB     19       POPE     H9X      HDA2A    0.780000E-01   1.00800           0   0.00000       0.00000    
      3429 MEMB     19       POPE     H9Y      HDA2A    0.780000E-01   1.00800           0   0.00000       0.00000    
      3430 MEMB     19       POPE     C310     CD32A     2.07980       11.6110           0  -1.66000       1.30000    
      3431 MEMB     19       POPE     DC310    DRUD     -2.23580      0.400000           0   0.00000       0.00000    
      3432 MEMB     19       POPE     H10X     HDA2A    0.780000E-01   1.00800           0   0.00000       0.00000    
      3433 MEMB     19       POPE     H10Y     HDA2A    0.780000E-01   1.00800           0   0.00000       0.00000    
      3434 MEMB     19       POPE     C311     CD32A     2.07980       11.6110           0  -1.66000       1.30000    
      3435 MEMB     19       POPE     DC311    DRUD     -2.23580      0.400000           0   0.00000       0.00000    
      3436 MEMB     19       POPE     H11X     HDA2A    0.780000E-01   1.00800           0   0.00000       0.00000    
      3437 MEMB     19       POPE     H11Y     HDA2A    0.780000E-01   1.00800           0   0.00000       0.00000    
      3438 MEMB     19       POPE     C312     CD32A     2.07980       11.6110           0  -1.66000       1.30000    
      3439 MEMB     19       POPE     DC312    DRUD     -2.23580      0.400000           0   0.00000       0.00000    
      3440 MEMB     19       POPE     H12X     HDA2A    0.780000E-01   1.00800           0   0.00000       0.00000    
      3441 MEMB     19       POPE     H12Y     HDA2A    0.780000E-01   1.00800           0   0.00000       0.00000    
      3442 MEMB     19       POPE     C313     CD32A     2.07980       11.6110           0  -1.66000       1.30000    
      3443 MEMB     19       POPE     DC313    DRUD     -2.23580      0.400000           0   0.00000       0.00000    
      3444 MEMB     19       POPE     H13X     HDA2A    0.780000E-01   1.00800           0   0.00000       0.00000    
      3445 MEMB     19       POPE     H13Y     HDA2A    0.780000E-01   1.00800           0   0.00000       0.00000    
      3446 MEMB     19       POPE     C314     CD32A     2.07980       11.6110           0  -1.66000       1.30000    
      3447 MEMB     19       POPE     DC314    DRUD     -2.23580      0.400000           0   0.00000       0.00000    
      3448 MEMB     19       POPE     H14X     HDA2A    0.780000E-01   1.00800           0   0.00000       0.00000    
      3449 MEMB     19       POPE     H14Y     HDA2A    0.780000E-01   1.00800           0   0.00000       0.00000    
      3450 MEMB     19       POPE     C315     CD32A     2.07980       11.6110           0  -1.66000       1.30000    
      3451 MEMB     19       POPE     DC315    DRUD     -2.23580      0.400000           0   0.00000       0.00000    
      3452 MEMB     19       POPE     H15X     HDA2A    0.780000E-01   1.00800           0   0.00000       0.00000    
      3453 MEMB     19       POPE     H15Y     HDA2A    0.780000E-01   1.00800           0   0.00000       0.00000    
      3454 MEMB     19       POPE     C316     CD33A     2.30820       11.6110           0  -2.05100       1.30000    
      3455 MEMB     19       POPE     DC316    DRUD     -2.48520      0.400000           0   0.00000       0.00000    
      3456 MEMB     19       POPE     H16X     HDA3A    0.590000E-01   1.00800           0   0.00000       0.00000    
      3457 MEMB     19       POPE     H16Y     HDA3A    0.590000E-01   1.00800           0   0.00000       0.00000    
      3458 MEMB     19       POPE     H16Z     HDA3A    0.590000E-01   1.00800           0   0.00000       0.00000    
      3459 MEMB     20       POPE     N        ND3P3A    1.62810       13.6070           0  -1.29800      0.895000    
      3460 MEMB     20       POPE     DN       DRUD     -1.97710      0.400000           0   0.00000       0.00000    
      3461 MEMB     20       POPE     HN1      HDP1B    0.340000       1.00800           0   0.00000       0.00000    
      3462 MEMB     20       POPE     HN2      HDP1B    0.340000       1.00800           0   0.00000       0.00000    
      3463 MEMB     20       POPE     HN3      HDP1B    0.340000       1.00800           0   0.00000       0.00000    
      3464 MEMB     20       POPE     C12      CD32A     2.27610       11.6110           0  -1.65600      0.895000    
      3465 MEMB     20       POPE     DC12     DRUD     -2.23310      0.400000           0   0.00000       0.00000    
      3466 MEMB     20       POPE     H12A     HDA2A    0.143000       1.00800           0   0.00000       0.00000    
      3467 MEMB     20       POPE     H12B     HDA2A    0.143000       1.00800           0   0.00000       0.00000    
      3468 MEMB     20       POPE     C11      CD32A     2.42220       11.6110           0  -1.64200      0.862000    
      3469 MEMB     20       POPE     DC11     DRUD     -2.22370      0.400000           0   0.00000       0.00000    
      3470 MEMB     20       POPE     H11A     HDA2A    0.260000E-01   1.00800           0   0.00000       0.00000    
      3471 MEMB     20       POPE     H11B     HDA2A    0.260000E-01   1.00800           0   0.00000       0.00000    
      3472 MEMB     20       POPE     P        PD1A      2.90360       30.5740           0 -0.974000       2.09800    
      3473 MEMB     20       POPE     DP       DRUD     -1.71260      0.400000           0   0.00000       0.00000    
      3474 MEMB     20       POPE     O13      OD2C2B   0.798400       15.5994           0 -0.931000       1.08300    
      3475 MEMB     20       POPE     DO13     DRUD     -1.67440      0.400000           0   0.00000       0.00000    
      3476 MEMB     20       POPE     O14      OD2C2B   0.798400       15.5994           0 -0.931000       1.08300    
      3477 MEMB     20       POPE     DO14     DRUD     -1.67440      0.400000           0   0.00000       0.00000    
      3478 MEMB     20       POPE     O11      OD30B     1.17720       15.5994           0 -0.901000      0.181000    
      3479 MEMB     20       POPE     DO11     DRUD     -1.64720      0.400000           0   0.00000       0.00000    
      3480 MEMB     20       POPE     O12      OD30B     1.17720       15.5994           0 -0.901000      0.181000    
      3481 MEMB     20       POPE     DO12     DRUD     -1.64720      0.400000           0   0.00000       0.00000    
      3482 MEMB     20       POPE     C1       CD32A     2.42220       11.6110           0  -1.64200      0.862000    
      3483 MEMB     20       POPE     DC1      DRUD     -2.22370      0.400000           0   0.00000       0.00000    
      3484 MEMB     20       POPE     HA       HDA2A    0.260000E-01   1.00800           0   0.00000       0.00000    
      3485 MEMB     20       POPE     HB       HDA2A    0.260000E-01   1.00800           0   0.00000       0.00000    
      3486 MEMB     20       POPE     C2       CD31C     2.52830       11.6110           0  -1.79700      0.410000    
      3487 MEMB     20       POPE     DC2      DRUD     -2.32630      0.400000           0   0.00000       0.00000    
      3488 MEMB     20       POPE     HS       HDA1A    0.116000       1.00800           0   0.00000       0.00000    
      3489 MEMB     20       POPE     O21      OD30CL    1.48470       15.5994           0 -0.732000      0.601000    
      3490 MEMB     20       POPE     DO21     DRUD     -1.48470      0.400000           0   0.00000       0.00000    
      3491 MEMB     20       POPE     C21      CD2O3B    2.72820       11.6110           0  -1.37000       1.74700    
      3492 MEMB     20       POPE     DC21     DRUD     -2.03120      0.400000           0   0.00000       0.00000    
      3493 MEMB     20       POPE     O22      OD2C3B    1.64990       15.5994           0 -0.904000      0.565000    
      3494 MEMB     20       POPE     DO22     DRUD     -1.64990      0.400000           0   0.00000       0.00000    
      3495 MEMB     20       POPE     C22      CD32C     2.24380       11.6110           0  -1.99300      0.410000    
      3496 MEMB     20       POPE     DC22     DRUD     -2.44980      0.400000           0   0.00000       0.00000    
      3497 MEMB     20       POPE     H2R      HDA2A    0.690000E-01   1.00800           0   0.00000       0.00000    
      3498 MEMB     20       POPE     H2S      HDA2A    0.690000E-01   1.00800           0   0.00000       0.00000    
      3499 MEMB     20       POPE     LP1A     LPD     -0.349000       0.00000          -1   0.00000       0.00000    
      3500 MEMB     20       POPE     LP1B     LPD     -0.258000       0.00000          -1   0.00000       0.00000    
      3501 MEMB     20       POPE     LPMA     LPD     -0.170000       0.00000          -1   0.00000       0.00000    
      3502 MEMB     20       POPE     LPMB     LPD     -0.170000       0.00000          -1   0.00000       0.00000    
      3503 MEMB     20       POPE     C3       CD32C     2.41230       11.6110           0  -1.79700      0.410000    
      3504 MEMB     20       POPE     DC3      DRUD     -2.32630      0.400000           0   0.00000       0.00000    
      3505 MEMB     20       POPE     HX       HDA2A    0.116000       1.00800           0   0.00000       0.00000    
      3506 MEMB     20       POPE     HY       HDA2A    0.116000       1.00800           0   0.00000       0.00000    
      3507 MEMB     20       POPE     O31      OD30CL    1.48470       15.5994           0 -0.732000      0.601000    
      3508 MEMB     20       POPE     DO31     DRUD     -1.48470      0.400000           0   0.00000       0.00000    
      3509 MEMB     20       POPE     C31      CD2O3B    2.72820       11.6110           0  -1.37000       1.74700    
      3510 MEMB     20       POPE     DC31     DRUD     -2.03120      0.400000           0   0.00000       0.00000    
      3511 MEMB     20       POPE     O32      OD2C3B    1.64990       15.5994           0 -0.904000      0.565000    
      3512 MEMB     20       POPE     DO32     DRUD     -1.64990      0.400000           0   0.00000       0.00000    
      3513 MEMB     20       POPE     C32      CD32C     2.24380       11.6110           0  -1.99300      0.410000    
      3514 MEMB     20       POPE     DC32     DRUD     -2.44980      0.400000           0   0.00000       0.00000    
      3515 MEMB     20       POPE     H2X      HDA2A    0.690000E-01   1.00800           0   0.00000       0.00000    
      3516 MEMB     20       POPE     H2Y      HDA2A    0.690000E-01   1.00800           0   0.00000       0.00000    
      3517 MEMB     20       POPE     LP1C     LPD     -0.349000       0.00000          -1   0.00000       0.00000    
      3518 MEMB     20       POPE     LP1D     LPD     -0.258000       0.00000          -1   0.00000       0.00000    
      3519 MEMB     20       POPE     LPMC     LPD     -0.170000       0.00000          -1   0.00000       0.00000    
      3520 MEMB     20       POPE     LPMD     LPD     -0.170000       0.00000          -1   0.00000       0.00000    
      3521 MEMB     20       POPE     C23      CD32A     2.07980       11.6110           0  -1.66000       1.30000    
      3522 MEMB     20       POPE     DC23     DRUD     -2.23580      0.400000           0   0.00000       0.00000    
      3523 MEMB     20       POPE     H3R      HDA2A    0.780000E-01   1.00800           0   0.00000       0.00000    
      3524 MEMB     20       POPE     H3S      HDA2A    0.780000E-01   1.00800           0   0.00000       0.00000    
      3525 MEMB     20       POPE     C24      CD32A     2.07980       11.6110           0  -1.66000       1.30000    
      3526 MEMB     20       POPE     DC24     DRUD     -2.23580      0.400000           0   0.00000       0.00000    
      3527 MEMB     20       POPE     H4R      HDA2A    0.780000E-01   1.00800           0   0.00000       0.00000    
      3528 MEMB     20       POPE     H4S      HDA2A    0.780000E-01   1.00800           0   0.00000       0.00000    
      3529 MEMB     20       POPE     C25      CD32A     2.07980       11.6110           0  -1.66000       1.30000    
      3530 MEMB     20       POPE     DC25     DRUD     -2.23580      0.400000           0   0.00000       0.00000    
      3531 MEMB     20       POPE     H5R      HDA2A    0.780000E-01   1.00800           0   0.00000       0.00000    
      3532 MEMB     20       POPE     H5S      HDA2A    0.780000E-01   1.00800           0   0.00000       0.00000    
      3533 MEMB     20       POPE     C26      CD32A     2.07980       11.6110           0  -1.66000       1.30000    
      3534 MEMB     20       POPE     DC26     DRUD     -2.23580      0.400000           0   0.00000       0.00000    
      3535 MEMB     20       POPE     H6R      HDA2A    0.780000E-01   1.00800           0   0.00000       0.00000    
      3536 MEMB     20       POPE     H6S      HDA2A    0.780000E-01   1.00800           0   0.00000       0.00000    
      3537 MEMB     20       POPE     C27      CD32A     2.07980       11.6110           0  -1.66000       1.30000    
      3538 MEMB     20       POPE     DC27     DRUD     -2.23580      0.400000           0   0.00000       0.00000    
      3539 MEMB     20       POPE     H7R      HDA2A    0.780000E-01   1.00800           0   0.00000       0.00000    
      3540 MEMB     20       POPE     H7S      HDA2A    0.780000E-01   1.00800           0   0.00000       0.00000    
      3541 MEMB     20       POPE     C28      CD32A     2.07980       11.6110           0  -1.66000       1.30000    
      3542 MEMB     20       POPE     DC28     DRUD     -2.23580      0.400000           0   0.00000       0.00000    
      3543 MEMB     20       POPE     H8R      HDA2A    0.780000E-01   1.00800           0   0.00000       0.00000    
      3544 MEMB     20       POPE     H8S      HDA2A    0.780000E-01   1.00800           0   0.00000       0.00000    
      3545 MEMB     20       POPE     C29      CD2C1A    2.33700       11.6110           0  -1.99000      0.750000    
      3546 MEMB     20       POPE     DC29     DRUD     -2.44800      0.400000           0   0.00000       0.00000    
      3547 MEMB     20       POPE     H91      HD2C1A   0.111000       1.00800           0   0.00000       0.00000    
      3548 MEMB     20       POPE     C210     CD2C1A    2.33700       11.6110           0  -1.99000      0.750000    
      3549 MEMB     20       POPE     DC210    DRUD     -2.44800      0.400000           0   0.00000       0.00000    
      3550 MEMB     20       POPE     H101     HD2C1A   0.111000       1.00800           0   0.00000       0.00000    
      3551 MEMB     20       POPE     C211     CD32A     2.07980       11.6110           0  -1.66000       1.30000    
      3552 MEMB     20       POPE     DC211    DRUD     -2.23580      0.400000           0   0.00000       0.00000    
      3553 MEMB     20       POPE     H11R     HDA2A    0.780000E-01   1.00800           0   0.00000       0.00000    
      3554 MEMB     20       POPE     H11S     HDA2A    0.780000E-01   1.00800           0   0.00000       0.00000    
      3555 MEMB     20       POPE     C212     CD32A     2.07980       11.6110           0  -1.66000       1.30000    
      3556 MEMB     20       POPE     DC212    DRUD     -2.23580      0.400000           0   0.00000       0.00000    
      3557 MEMB     20       POPE     H12R     HDA2A    0.780000E-01   1.00800           0   0.00000       0.00000    
      3558 MEMB     20       POPE     H12S     HDA2A    0.780000E-01   1.00800           0   0.00000       0.00000    
      3559 MEMB     20       POPE     C213     CD32A     2.07980       11.6110           0  -1.66000       1.30000    
      3560 MEMB     20       POPE     DC213    DRUD     -2.23580      0.400000           0   0.00000       0.00000    
      3561 MEMB     20       POPE     H13R     HDA2A    0.780000E-01   1.00800           0   0.00000       0.00000    
      3562 MEMB     20       POPE     H13S     HDA2A    0.780000E-01   1.00800           0   0.00000       0.00000    
      3563 MEMB     20       POPE     C214     CD32A     2.07980       11.6110           0  -1.66000       1.30000    
      3564 MEMB     20       POPE     DC214    DRUD     -2.23580      0.400000           0   0.00000       0.00000    
      3565 MEMB     20       POPE     H14R     HDA2A    0.780000E-01   1.00800           0   0.00000       0.00000    
      3566 MEMB     20       POPE     H14S     HDA2A    0.780000E-01   1.00800           0   0.00000       0.00000    
      3567 MEMB     20       POPE     C215     CD32A     2.07980       11.6110           0  -1.66000       1.30000    
      3568 MEMB     20       POPE     DC215    DRUD     -2.23580      0.400000           0   0.00000       0.00000    
      3569 MEMB     20       POPE     H15R     HDA2A    0.780000E-01   1.00800           0   0.00000       0.00000    
      3570 MEMB     20       POPE     H15S     HDA2A    0.780000E-01   1.00800           0   0.00000       0.00000    
      3571 MEMB     20       POPE     C216     CD32A     2.07980       11.6110           0  -1.66000       1.30000    
      3572 MEMB     20       POPE     DC216    DRUD     -2.23580      0.400000           0   0.00000       0.00000    
      3573 MEMB     20       POPE     H16R     HDA2A    0.780000E-01   1.00800           0   0.00000       0.00000    
      3574 MEMB     20       POPE     H16S     HDA2A    0.780000E-01   1.00800           0   0.00000       0.00000    
      3575 MEMB     20       POPE     C217     CD32A     2.07980       11.6110           0  -1.66000       1.30000    
      3576 MEMB     20       POPE     DC217    DRUD     -2.23580      0.400000           0   0.00000       0.00000    
      3577 MEMB     20       POPE     H17R     HDA2A    0.780000E-01   1.00800           0   0.00000       0.00000    
      3578 MEMB     20       POPE     H17S     HDA2A    0.780000E-01   1.00800           0   0.00000       0.00000    
      3579 MEMB     20       POPE     C218     CD33A     2.30820       11.6110           0  -2.05100       1.30000    
      3580 MEMB     20       POPE     DC218    DRUD     -2.48520      0.400000           0   0.00000       0.00000    
      3581 MEMB     20       POPE     H18R     HDA3A    0.590000E-01   1.00800           0   0.00000       0.00000    
      3582 MEMB     20       POPE     H18S     HDA3A    0.590000E-01   1.00800           0   0.00000       0.00000    
      3583 MEMB     20       POPE     H18T     HDA3A    0.590000E-01   1.00800           0   0.00000       0.00000    
      3584 MEMB     20       POPE     C33      CD32A     2.07980       11.6110           0  -1.66000       1.30000    
      3585 MEMB     20       POPE     DC33     DRUD     -2.23580      0.400000           0   0.00000       0.00000    
      3586 MEMB     20       POPE     H3X      HDA2A    0.780000E-01   1.00800           0   0.00000       0.00000    
      3587 MEMB     20       POPE     H3Y      HDA2A    0.780000E-01   1.00800           0   0.00000       0.00000    
      3588 MEMB     20       POPE     C34      CD32A     2.07980       11.6110           0  -1.66000       1.30000    
      3589 MEMB     20       POPE     DC34     DRUD     -2.23580      0.400000           0   0.00000       0.00000    
      3590 MEMB     20       POPE     H4X      HDA2A    0.780000E-01   1.00800           0   0.00000       0.00000    
      3591 MEMB     20       POPE     H4Y      HDA2A    0.780000E-01   1.00800           0   0.00000       0.00000    
      3592 MEMB     20       POPE     C35      CD32A     2.07980       11.6110           0  -1.66000       1.30000    
      3593 MEMB     20       POPE     DC35     DRUD     -2.23580      0.400000           0   0.00000       0.00000    
      3594 MEMB     20       POPE     H5X      HDA2A    0.780000E-01   1.00800           0   0.00000       0.00000    
      3595 MEMB     20       POPE     H5Y      HDA2A    0.780000E-01   1.00800           0   0.00000       0.00000    
      3596 MEMB     20       POPE     C36      CD32A     2.07980       11.6110           0  -1.66000       1.30000    
      3597 MEMB     20       POPE     DC36     DRUD     -2.23580      0.400000           0   0.00000       0.00000    
      3598 MEMB     20       POPE     H6X      HDA2A    0.780000E-01   1.00800           0   0.00000       0.00000    
      3599 MEMB     20       POPE     H6Y      HDA2A    0.780000E-01   1.00800           0   0.00000       0.00000    
      3600 MEMB     20       POPE     C37      CD32A     2.07980       11.6110           0  -1.66000       1.30000    
      3601 MEMB     20       POPE     DC37     DRUD     -2.23580      0.400000           0   0.00000       0.00000    
      3602 MEMB     20       POPE     H7X      HDA2A    0.780000E-01   1.00800           0   0.00000       0.00000    
      3603 MEMB     20       POPE     H7Y      HDA2A    0.780000E-01   1.00800           0   0.00000       0.00000    
      3604 MEMB     20       POPE     C38      CD32A     2.07980       11.6110           0  -1.66000       1.30000    
      3605 MEMB     20       POPE     DC38     DRUD     -2.23580      0.400000           0   0.00000       0.00000    
      3606 MEMB     20       POPE     H8X      HDA2A    0.780000E-01   1.00800           0   0.00000       0.00000    
      3607 MEMB     20       POPE     H8Y      HDA2A    0.780000E-01   1.00800           0   0.00000       0.00000    
      3608 MEMB     20       POPE     C39      CD32A     2.07980       11.6110           0  -1.66000       1.30000    
      3609 MEMB     20       POPE     DC39     DRUD     -2.23580      0.400000           0   0.00000       0.00000    
      3610 MEMB     20       POPE     H9X      HDA2A    0.780000E-01   1.00800           0   0.00000       0.00000    
      3611 MEMB     20       POPE     H9Y      HDA2A    0.780000E-01   1.00800           0   0.00000       0.00000    
      3612 MEMB     20       POPE     C310     CD32A     2.07980       11.6110           0  -1.66000       1.30000    
      3613 MEMB     20       POPE     DC310    DRUD     -2.23580      0.400000           0   0.00000       0.00000    
      3614 MEMB     20       POPE     H10X     HDA2A    0.780000E-01   1.00800           0   0.00000       0.00000    
      3615 MEMB     20       POPE     H10Y     HDA2A    0.780000E-01   1.00800           0   0.00000       0.00000    
      3616 MEMB     20       POPE     C311     CD32A     2.07980       11.6110           0  -1.66000       1.30000    
      3617 MEMB     20       POPE     DC311    DRUD     -2.23580      0.400000           0   0.00000       0.00000    
      3618 MEMB     20       POPE     H11X     HDA2A    0.780000E-01   1.00800           0   0.00000       0.00000    
      3619 MEMB     20       POPE     H11Y     HDA2A    0.780000E-01   1.00800           0   0.00000       0.00000    
      3620 MEMB     20       POPE     C312     CD32A     2.07980       11.6110           0  -1.66000       1.30000    
      3621 MEMB     20       POPE     DC312    DRUD     -2.23580      0.400000           0   0.00000       0.00000    
      3622 MEMB     20       POPE     H12X     HDA2A    0.780000E-01   1.00800           0   0.00000       0.00000    
      3623 MEMB     20       POPE     H12Y     HDA2A    0.780000E-01   1.00800           0   0.00000       0.00000    
      3624 MEMB     20       POPE     C313     CD32A     2.07980       11.6110           0  -1.66000       1.30000    
      3625 MEMB     20       POPE     DC313    DRUD     -2.23580      0.400000           0   0.00000       0.00000    
      3626 MEMB     20       POPE     H13X     HDA2A    0.780000E-01   1.00800           0   0.00000       0.00000    
      3627 MEMB     20       POPE     H13Y     HDA2A    0.780000E-01   1.00800           0   0.00000       0.00000    
      3628 MEMB     20       POPE     C314     CD32A     2.07980       11.6110           0  -1.66000       1.30000    
      3629 MEMB     20       POPE     DC314    DRUD     -2.23580      0.400000           0   0.00000       0.00000    
      3630 MEMB     20       POPE     H14X     HDA2A    0.780000E-01   1.00800           0   0.00000       0.00000    
      3631 MEMB     20       POPE     H14Y     HDA2A    0.780000E-01   1.00800           0   0.00000       0.00000    
      3632 MEMB     20       POPE     C315     CD32A     2.07980       11.6110           0  -1.66000       1.30000    
      3633 MEMB     20       POPE     DC315    DRUD     -2.23580      0.400000           0   0.00000       0.00000    
      3634 MEMB     20       POPE     H15X     HDA2A    0.780000E-01   1.00800           0   0.00000       0.00000    
      3635 MEMB     20       POPE     H15Y     HDA2A    0.780000E-01   1.00800           0   0.00000       0.00000    
      3636 MEMB     20       POPE     C316     CD33A     2.30820       11.6110           0  -2.05100       1.30000    
      3637 MEMB     20       POPE     DC316    DRUD     -2.48520      0.400000           0   0.00000       0.00000    
      3638 MEMB     20       POPE     H16X     HDA3A    0.590000E-01   1.00800           0   0.00000       0.00000    
      3639 MEMB     20       POPE     H16Y     HDA3A    0.590000E-01   1.00800           0   0.00000       0.00000    
      3640 MEMB     20       POPE     H16Z     HDA3A    0.590000E-01   1.00800           0   0.00000       0.00000    
      3641 MEMB     21       POPE     N        ND3P3A    1.62810       13.6070           0  -1.29800      0.895000    
      3642 MEMB     21       POPE     DN       DRUD     -1.97710      0.400000           0   0.00000       0.00000    
      3643 MEMB     21       POPE     HN1      HDP1B    0.340000       1.00800           0   0.00000       0.00000    
      3644 MEMB     21       POPE     HN2      HDP1B    0.340000       1.00800           0   0.00000       0.00000    
      3645 MEMB     21       POPE     HN3      HDP1B    0.340000       1.00800           0   0.00000       0.00000    
      3646 MEMB     21       POPE     C12      CD32A     2.27610       11.6110           0  -1.65600      0.895000    
      3647 MEMB     21       POPE     DC12     DRUD     -2.23310      0.400000           0   0.00000       0.00000    
      3648 MEMB     21       POPE     H12A     HDA2A    0.143000       1.00800           0   0.00000       0.00000    
      3649 MEMB     21       POPE     H12B     HDA2A    0.143000       1.00800           0   0.00000       0.00000    
      3650 MEMB     21       POPE     C11      CD32A     2.42220       11.6110           0  -1.64200      0.862000    
      3651 MEMB     21       POPE     DC11     DRUD     -2.22370      0.400000           0   0.00000       0.00000    
      3652 MEMB     21       POPE     H11A     HDA2A    0.260000E-01   1.00800           0   0.00000       0.00000    
      3653 MEMB     21       POPE     H11B     HDA2A    0.260000E-01   1.00800           0   0.00000       0.00000    
      3654 MEMB     21       POPE     P        PD1A      2.90360       30.5740           0 -0.974000       2.09800    
      3655 MEMB     21       POPE     DP       DRUD     -1.71260      0.400000           0   0.00000       0.00000    
      3656 MEMB     21       POPE     O13      OD2C2B   0.798400       15.5994           0 -0.931000       1.08300    
      3657 MEMB     21       POPE     DO13     DRUD     -1.67440      0.400000           0   0.00000       0.00000    
      3658 MEMB     21       POPE     O14      OD2C2B   0.798400       15.5994           0 -0.931000       1.08300    
      3659 MEMB     21       POPE     DO14     DRUD     -1.67440      0.400000           0   0.00000       0.00000    
      3660 MEMB     21       POPE     O11      OD30B     1.17720       15.5994           0 -0.901000      0.181000    
      3661 MEMB     21       POPE     DO11     DRUD     -1.64720      0.400000           0   0.00000       0.00000    
      3662 MEMB     21       POPE     O12      OD30B     1.17720       15.5994           0 -0.901000      0.181000    
      3663 MEMB     21       POPE     DO12     DRUD     -1.64720      0.400000           0   0.00000       0.00000    
      3664 MEMB     21       POPE     C1       CD32A     2.42220       11.6110           0  -1.64200      0.862000    
      3665 MEMB     21       POPE     DC1      DRUD     -2.22370      0.400000           0   0.00000       0.00000    
      3666 MEMB     21       POPE     HA       HDA2A    0.260000E-01   1.00800           0   0.00000       0.00000    
      3667 MEMB     21       POPE     HB       HDA2A    0.260000E-01   1.00800           0   0.00000       0.00000    
      3668 MEMB     21       POPE     C2       CD31C     2.52830       11.6110           0  -1.79700      0.410000    
      3669 MEMB     21       POPE     DC2      DRUD     -2.32630      0.400000           0   0.00000       0.00000    
      3670 MEMB     21       POPE     HS       HDA1A    0.116000       1.00800           0   0.00000       0.00000    
      3671 MEMB     21       POPE     O21      OD30CL    1.48470       15.5994           0 -0.732000      0.601000    
      3672 MEMB     21       POPE     DO21     DRUD     -1.48470      0.400000           0   0.00000       0.00000    
      3673 MEMB     21       POPE     C21      CD2O3B    2.72820       11.6110           0  -1.37000       1.74700    
      3674 MEMB     21       POPE     DC21     DRUD     -2.03120      0.400000           0   0.00000       0.00000    
      3675 MEMB     21       POPE     O22      OD2C3B    1.64990       15.5994           0 -0.904000      0.565000    
      3676 MEMB     21       POPE     DO22     DRUD     -1.64990      0.400000           0   0.00000       0.00000    
      3677 MEMB     21       POPE     C22      CD32C     2.24380       11.6110           0  -1.99300      0.410000    
      3678 MEMB     21       POPE     DC22     DRUD     -2.44980      0.400000           0   0.00000       0.00000    
      3679 MEMB     21       POPE     H2R      HDA2A    0.690000E-01   1.00800           0   0.00000       0.00000    
      3680 MEMB     21       POPE     H2S      HDA2A    0.690000E-01   1.00800           0   0.00000       0.00000    
      3681 MEMB     21       POPE     LP1A     LPD     -0.349000       0.00000          -1   0.00000       0.00000    
      3682 MEMB     21       POPE     LP1B     LPD     -0.258000       0.00000          -1   0.00000       0.00000    
      3683 MEMB     21       POPE     LPMA     LPD     -0.170000       0.00000          -1   0.00000       0.00000    
      3684 MEMB     21       POPE     LPMB     LPD     -0.170000       0.00000          -1   0.00000       0.00000    
      3685 MEMB     21       POPE     C3       CD32C     2.41230       11.6110           0  -1.79700      0.410000    
      3686 MEMB     21       POPE     DC3      DRUD     -2.32630      0.400000           0   0.00000       0.00000    
      3687 MEMB     21       POPE     HX       HDA2A    0.116000       1.00800           0   0.00000       0.00000    
      3688 MEMB     21       POPE     HY       HDA2A    0.116000       1.00800           0   0.00000       0.00000    
      3689 MEMB     21       POPE     O31      OD30CL    1.48470       15.5994           0 -0.732000      0.601000    
      3690 MEMB     21       POPE     DO31     DRUD     -1.48470      0.400000           0   0.00000       0.00000    
      3691 MEMB     21       POPE     C31      CD2O3B    2.72820       11.6110           0  -1.37000       1.74700    
      3692 MEMB     21       POPE     DC31     DRUD     -2.03120      0.400000           0   0.00000       0.00000    
      3693 MEMB     21       POPE     O32      OD2C3B    1.64990       15.5994           0 -0.904000      0.565000    
      3694 MEMB     21       POPE     DO32     DRUD     -1.64990      0.400000           0   0.00000       0.00000    
      3695 MEMB     21       POPE     C32      CD32C     2.24380       11.6110           0  -1.99300      0.410000    
      3696 MEMB     21       POPE     DC32     DRUD     -2.44980      0.400000           0   0.00000       0.00000    
      3697 MEMB     21       POPE     H2X      HDA2A    0.690000E-01   1.00800           0   0.00000       0.00000    
      3698 MEMB     21       POPE     H2Y      HDA2A    0.690000E-01   1.00800           0   0.00000       0.00000    
      3699 MEMB     21       POPE     LP1C     LPD     -0.349000       0.00000          -1   0.00000       0.00000    
      3700 MEMB     21       POPE     LP1D     LPD     -0.258000       0.00000          -1   0.00000       0.00000    
      3701 MEMB     21       POPE     LPMC     LPD     -0.170000       0.00000          -1   0.00000       0.00000    
      3702 MEMB     21       POPE     LPMD     LPD     -0.170000       0.00000          -1   0.00000       0.00000    
      3703 MEMB     21       POPE     C23      CD32A     2.07980       11.6110           0  -1.66000       1.30000    
      3704 MEMB     21       POPE     DC23     DRUD     -2.23580      0.400000           0   0.00000       0.00000    
      3705 MEMB     21       POPE     H3R      HDA2A    0.780000E-01   1.00800           0   0.00000       0.00000    
      3706 MEMB     21       POPE     H3S      HDA2A    0.780000E-01   1.00800           0   0.00000       0.00000    
      3707 MEMB     21       POPE     C24      CD32A     2.07980       11.6110           0  -1.66000       1.30000    
      3708 MEMB     21       POPE     DC24     DRUD     -2.23580      0.400000           0   0.00000       0.00000    
      3709 MEMB     21       POPE     H4R      HDA2A    0.780000E-01   1.00800           0   0.00000       0.00000    
      3710 MEMB     21       POPE     H4S      HDA2A    0.780000E-01   1.00800           0   0.00000       0.00000    
      3711 MEMB     21       POPE     C25      CD32A     2.07980       11.6110           0  -1.66000       1.30000    
      3712 MEMB     21       POPE     DC25     DRUD     -2.23580      0.400000           0   0.00000       0.00000    
      3713 MEMB     21       POPE     H5R      HDA2A    0.780000E-01   1.00800           0   0.00000       0.00000    
      3714 MEMB     21       POPE     H5S      HDA2A    0.780000E-01   1.00800           0   0.00000       0.00000    
      3715 MEMB     21       POPE     C26      CD32A     2.07980       11.6110           0  -1.66000       1.30000    
      3716 MEMB     21       POPE     DC26     DRUD     -2.23580      0.400000           0   0.00000       0.00000    
      3717 MEMB     21       POPE     H6R      HDA2A    0.780000E-01   1.00800           0   0.00000       0.00000    
      3718 MEMB     21       POPE     H6S      HDA2A    0.780000E-01   1.00800           0   0.00000       0.00000    
      3719 MEMB     21       POPE     C27      CD32A     2.07980       11.6110           0  -1.66000       1.30000    
      3720 MEMB     21       POPE     DC27     DRUD     -2.23580      0.400000           0   0.00000       0.00000    
      3721 MEMB     21       POPE     H7R      HDA2A    0.780000E-01   1.00800           0   0.00000       0.00000    
      3722 MEMB     21       POPE     H7S      HDA2A    0.780000E-01   1.00800           0   0.00000       0.00000    
      3723 MEMB     21       POPE     C28      CD32A     2.07980       11.6110           0  -1.66000       1.30000    
      3724 MEMB     21       POPE     DC28     DRUD     -2.23580      0.400000           0   0.00000       0.00000    
      3725 MEMB     21       POPE     H8R      HDA2A    0.780000E-01   1.00800           0   0.00000       0.00000    
      3726 MEMB     21       POPE     H8S      HDA2A    0.780000E-01   1.00800           0   0.00000       0.00000    
      3727 MEMB     21       POPE     C29      CD2C1A    2.33700       11.6110           0  -1.99000      0.750000    
      3728 MEMB     21       POPE     DC29     DRUD     -2.44800      0.400000           0   0.00000       0.00000    
      3729 MEMB     21       POPE     H91      HD2C1A   0.111000       1.00800           0   0.00000       0.00000    
      3730 MEMB     21       POPE     C210     CD2C1A    2.33700       11.6110           0  -1.99000      0.750000    
      3731 MEMB     21       POPE     DC210    DRUD     -2.44800      0.400000           0   0.00000       0.00000    
      3732 MEMB     21       POPE     H101     HD2C1A   0.111000       1.00800           0   0.00000       0.00000    
      3733 MEMB     21       POPE     C211     CD32A     2.07980       11.6110           0  -1.66000       1.30000    
      3734 MEMB     21       POPE     DC211    DRUD     -2.23580      0.400000           0   0.00000       0.00000    
      3735 MEMB     21       POPE     H11R     HDA2A    0.780000E-01   1.00800           0   0.00000       0.00000    
      3736 MEMB     21       POPE     H11S     HDA2A    0.780000E-01   1.00800           0   0.00000       0.00000    
      3737 MEMB     21       POPE     C212     CD32A     2.07980       11.6110           0  -1.66000       1.30000    
      3738 MEMB     21       POPE     DC212    DRUD     -2.23580      0.400000           0   0.00000       0.00000    
      3739 MEMB     21       POPE     H12R     HDA2A    0.780000E-01   1.00800           0   0.00000       0.00000    
      3740 MEMB     21       POPE     H12S     HDA2A    0.780000E-01   1.00800           0   0.00000       0.00000    
      3741 MEMB     21       POPE     C213     CD32A     2.07980       11.6110           0  -1.66000       1.30000    
      3742 MEMB     21       POPE     DC213    DRUD     -2.23580      0.400000           0   0.00000       0.00000    
      3743 MEMB     21       POPE     H13R     HDA2A    0.780000E-01   1.00800           0   0.00000       0.00000    
      3744 MEMB     21       POPE     H13S     HDA2A    0.780000E-01   1.00800           0   0.00000       0.00000    
      3745 MEMB     21       POPE     C214     CD32A     2.07980       11.6110           0  -1.66000       1.30000    
      3746 MEMB     21       POPE     DC214    DRUD     -2.23580      0.400000           0   0.00000       0.00000    
      3747 MEMB     21       POPE     H14R     HDA2A    0.780000E-01   1.00800           0   0.00000       0.00000    
      3748 MEMB     21       POPE     H14S     HDA2A    0.780000E-01   1.00800           0   0.00000       0.00000    
      3749 MEMB     21       POPE     C215     CD32A     2.07980       11.6110           0  -1.66000       1.30000    
      3750 MEMB     21       POPE     DC215    DRUD     -2.23580      0.400000           0   0.00000       0.00000    
      3751 MEMB     21       POPE     H15R     HDA2A    0.780000E-01   1.00800           0   0.00000       0.00000    
      3752 MEMB     21       POPE     H15S     HDA2A    0.780000E-01   1.00800           0   0.00000       0.00000    
      3753 MEMB     21       POPE     C216     CD32A     2.07980       11.6110           0  -1.66000       1.30000    
      3754 MEMB     21       POPE     DC216    DRUD     -2.23580      0.400000           0   0.00000       0.00000    
      3755 MEMB     21       POPE     H16R     HDA2A    0.780000E-01   1.00800           0   0.00000       0.00000    
      3756 MEMB     21       POPE     H16S     HDA2A    0.780000E-01   1.00800           0   0.00000       0.00000    
      3757 MEMB     21       POPE     C217     CD32A     2.07980       11.6110           0  -1.66000       1.30000    
      3758 MEMB     21       POPE     DC217    DRUD     -2.23580      0.400000           0   0.00000       0.00000    
      3759 MEMB     21       POPE     H17R     HDA2A    0.780000E-01   1.00800           0   0.00000       0.00000    
      3760 MEMB     21       POPE     H17S     HDA2A    0.780000E-01   1.00800           0   0.00000       0.00000    
      3761 MEMB     21       POPE     C218     CD33A     2.30820       11.6110           0  -2.05100       1.30000    
      3762 MEMB     21       POPE     DC218    DRUD     -2.48520      0.400000           0   0.00000       0.00000    
      3763 MEMB     21       POPE     H18R     HDA3A    0.590000E-01   1.00800           0   0.00000       0.00000    
      3764 MEMB     21       POPE     H18S     HDA3A    0.590000E-01   1.00800           0   0.00000       0.00000    
      3765 MEMB     21       POPE     H18T     HDA3A    0.590000E-01   1.00800           0   0.00000       0.00000    
      3766 MEMB     21       POPE     C33      CD32A     2.07980       11.6110           0  -1.66000       1.30000    
      3767 MEMB     21       POPE     DC33     DRUD     -2.23580      0.400000           0   0.00000       0.00000    
      3768 MEMB     21       POPE     H3X      HDA2A    0.780000E-01   1.00800           0   0.00000       0.00000    
      3769 MEMB     21       POPE     H3Y      HDA2A    0.780000E-01   1.00800           0   0.00000       0.00000    
      3770 MEMB     21       POPE     C34      CD32A     2.07980       11.6110           0  -1.66000       1.30000    
      3771 MEMB     21       POPE     DC34     DRUD     -2.23580      0.400000           0   0.00000       0.00000    
      3772 MEMB     21       POPE     H4X      HDA2A    0.780000E-01   1.00800           0   0.00000       0.00000    
      3773 MEMB     21       POPE     H4Y      HDA2A    0.780000E-01   1.00800           0   0.00000       0.00000    
      3774 MEMB     21       POPE     C35      CD32A     2.07980       11.6110           0  -1.66000       1.30000    
      3775 MEMB     21       POPE     DC35     DRUD     -2.23580      0.400000           0   0.00000       0.00000    
      3776 MEMB     21       POPE     H5X      HDA2A    0.780000E-01   1.00800           0   0.00000       0.00000    
      3777 MEMB     21       POPE     H5Y      HDA2A    0.780000E-01   1.00800           0   0.00000       0.00000    
      3778 MEMB     21       POPE     C36      CD32A     2.07980       11.6110           0  -1.66000       1.30000    
      3779 MEMB     21       POPE     DC36     DRUD     -2.23580      0.400000           0   0.00000       0.00000    
      3780 MEMB     21       POPE     H6X      HDA2A    0.780000E-01   1.00800           0   0.00000       0.00000    
      3781 MEMB     21       POPE     H6Y      HDA2A    0.780000E-01   1.00800           0   0.00000       0.00000    
      3782 MEMB     21       POPE     C37      CD32A     2.07980       11.6110           0  -1.66000       1.30000    
      3783 MEMB     21       POPE     DC37     DRUD     -2.23580      0.400000           0   0.00000       0.00000    
      3784 MEMB     21       POPE     H7X      HDA2A    0.780000E-01   1.00800           0   0.00000       0.00000    
      3785 MEMB     21       POPE     H7Y      HDA2A    0.780000E-01   1.00800           0   0.00000       0.00000    
      3786 MEMB     21       POPE     C38      CD32A     2.07980       11.6110           0  -1.66000       1.30000    
      3787 MEMB     21       POPE     DC38     DRUD     -2.23580      0.400000           0   0.00000       0.00000    
      3788 MEMB     21       POPE     H8X      HDA2A    0.780000E-01   1.00800           0   0.00000       0.00000    
      3789 MEMB     21       POPE     H8Y      HDA2A    0.780000E-01   1.00800           0   0.00000       0.00000    
      3790 MEMB     21       POPE     C39      CD32A     2.07980       11.6110           0  -1.66000       1.30000    
      3791 MEMB     21       POPE     DC39     DRUD     -2.23580      0.400000           0   0.00000       0.00000    
      3792 MEMB     21       POPE     H9X      HDA2A    0.780000E-01   1.00800           0   0.00000       0.00000    
      3793 MEMB     21       POPE     H9Y      HDA2A    0.780000E-01   1.00800           0   0.00000       0.00000    
      3794 MEMB     21       POPE     C310     CD32A     2.07980       11.6110           0  -1.66000       1.30000    
      3795 MEMB     21       POPE     DC310    DRUD     -2.23580      0.400000           0   0.00000       0.00000    
      3796 MEMB     21       POPE     H10X     HDA2A    0.780000E-01   1.00800           0   0.00000       0.00000    
      3797 MEMB     21       POPE     H10Y     HDA2A    0.780000E-01   1.00800           0   0.00000       0.00000    
      3798 MEMB     21       POPE     C311     CD32A     2.07980       11.6110           0  -1.66000       1.30000    
      3799 MEMB     21       POPE     DC311    DRUD     -2.23580      0.400000           0   0.00000       0.00000    
      3800 MEMB     21       POPE     H11X     HDA2A    0.780000E-01   1.00800           0   0.00000       0.00000    
      3801 MEMB     21       POPE     H11Y     HDA2A    0.780000E-01   1.00800           0   0.00000       0.00000    
      3802 MEMB     21       POPE     C312     CD32A     2.07980       11.6110           0  -1.66000       1.30000    
      3803 MEMB     21       POPE     DC312    DRUD     -2.23580      0.400000           0   0.00000       0.00000    
      3804 MEMB     21       POPE     H12X     HDA2A    0.780000E-01   1.00800           0   0.00000       0.00000    
      3805 MEMB     21       POPE     H12Y     HDA2A    0.780000E-01   1.00800           0   0.00000       0.00000    
      3806 MEMB     21       POPE     C313     CD32A     2.07980       11.6110           0  -1.66000       1.30000    
      3807 MEMB     21       POPE     DC313    DRUD     -2.23580      0.400000           0   0.00000       0.00000    
      3808 MEMB     21       POPE     H13X     HDA2A    0.780000E-01   1.00800           0   0.00000       0.00000    
      3809 MEMB     21       POPE     H13Y     HDA2A    0.780000E-01   1.00800           0   0.00000       0.00000    
      3810 MEMB     21       POPE     C314     CD32A     2.07980       11.6110           0  -1.66000       1.30000    
      3811 MEMB     21       POPE     DC314    DRUD     -2.23580      0.400000           0   0.00000       0.00000    
      3812 MEMB     21       POPE     H14X     HDA2A    0.780000E-01   1.00800           0   0.00000       0.00000    
      3813 MEMB     21       POPE     H14Y     HDA2A    0.780000E-01   1.00800           0   0.00000       0.00000    
      3814 MEMB     21       POPE     C315     CD32A     2.07980       11.6110           0  -1.66000       1.30000    
      3815 MEMB     21       POPE     DC315    DRUD     -2.23580      0.400000           0   0.00000       0.00000    
      3816 MEMB     21       POPE     H15X     HDA2A    0.780000E-01   1.00800           0   0.00000       0.00000    
      3817 MEMB     21       POPE     H15Y     HDA2A    0.780000E-01   1.00800           0   0.00000       0.00000    
      3818 MEMB     21       POPE     C316     CD33A     2.30820       11.6110           0  -2.05100       1.30000    
      3819 MEMB     21       POPE     DC316    DRUD     -2.48520      0.400000           0   0.00000       0.00000    
      3820 MEMB     21       POPE     H16X     HDA3A    0.590000E-01   1.00800           0   0.00000       0.00000    
      3821 MEMB     21       POPE     H16Y     HDA3A    0.590000E-01   1.00800           0   0.00000       0.00000    
      3822 MEMB     21       POPE     H16Z     HDA3A    0.590000E-01   1.00800           0   0.00000       0.00000    
      3823 MEMB     22       POPE     N        ND3P3A    1.62810       13.6070           0  -1.29800      0.895000    
      3824 MEMB     22       POPE     DN       DRUD     -1.97710      0.400000           0   0.00000       0.00000    
      3825 MEMB     22       POPE     HN1      HDP1B    0.340000       1.00800           0   0.00000       0.00000    
      3826 MEMB     22       POPE     HN2      HDP1B    0.340000       1.00800           0   0.00000       0.00000    
      3827 MEMB     22       POPE     HN3      HDP1B    0.340000       1.00800           0   0.00000       0.00000    
      3828 MEMB     22       POPE     C12      CD32A     2.27610       11.6110           0  -1.65600      0.895000    
      3829 MEMB     22       POPE     DC12     DRUD     -2.23310      0.400000           0   0.00000       0.00000    
      3830 MEMB     22       POPE     H12A     HDA2A    0.143000       1.00800           0   0.00000       0.00000    
      3831 MEMB     22       POPE     H12B     HDA2A    0.143000       1.00800           0   0.00000       0.00000    
      3832 MEMB     22       POPE     C11      CD32A     2.42220       11.6110           0  -1.64200      0.862000    
      3833 MEMB     22       POPE     DC11     DRUD     -2.22370      0.400000           0   0.00000       0.00000    
      3834 MEMB     22       POPE     H11A     HDA2A    0.260000E-01   1.00800           0   0.00000       0.00000    
      3835 MEMB     22       POPE     H11B     HDA2A    0.260000E-01   1.00800           0   0.00000       0.00000    
      3836 MEMB     22       POPE     P        PD1A      2.90360       30.5740           0 -0.974000       2.09800    
      3837 MEMB     22       POPE     DP       DRUD     -1.71260      0.400000           0   0.00000       0.00000    
      3838 MEMB     22       POPE     O13      OD2C2B   0.798400       15.5994           0 -0.931000       1.08300    
      3839 MEMB     22       POPE     DO13     DRUD     -1.67440      0.400000           0   0.00000       0.00000    
      3840 MEMB     22       POPE     O14      OD2C2B   0.798400       15.5994           0 -0.931000       1.08300    
      3841 MEMB     22       POPE     DO14     DRUD     -1.67440      0.400000           0   0.00000       0.00000    
      3842 MEMB     22       POPE     O11      OD30B     1.17720       15.5994           0 -0.901000      0.181000    
      3843 MEMB     22       POPE     DO11     DRUD     -1.64720      0.400000           0   0.00000       0.00000    
      3844 MEMB     22       POPE     O12      OD30B     1.17720       15.5994           0 -0.901000      0.181000    
      3845 MEMB     22       POPE     DO12     DRUD     -1.64720      0.400000           0   0.00000       0.00000    
      3846 MEMB     22       POPE     C1       CD32A     2.42220       11.6110           0  -1.64200      0.862000    
      3847 MEMB     22       POPE     DC1      DRUD     -2.22370      0.400000           0   0.00000       0.00000    
      3848 MEMB     22       POPE     HA       HDA2A    0.260000E-01   1.00800           0   0.00000       0.00000    
      3849 MEMB     22       POPE     HB       HDA2A    0.260000E-01   1.00800           0   0.00000       0.00000    
      3850 MEMB     22       POPE     C2       CD31C     2.52830       11.6110           0  -1.79700      0.410000    
      3851 MEMB     22       POPE     DC2      DRUD     -2.32630      0.400000           0   0.00000       0.00000    
      3852 MEMB     22       POPE     HS       HDA1A    0.116000       1.00800           0   0.00000       0.00000    
      3853 MEMB     22       POPE     O21      OD30CL    1.48470       15.5994           0 -0.732000      0.601000    
      3854 MEMB     22       POPE     DO21     DRUD     -1.48470      0.400000           0   0.00000       0.00000    
      3855 MEMB     22       POPE     C21      CD2O3B    2.72820       11.6110           0  -1.37000       1.74700    
      3856 MEMB     22       POPE     DC21     DRUD     -2.03120      0.400000           0   0.00000       0.00000    
      3857 MEMB     22       POPE     O22      OD2C3B    1.64990       15.5994           0 -0.904000      0.565000    
      3858 MEMB     22       POPE     DO22     DRUD     -1.64990      0.400000           0   0.00000       0.00000    
      3859 MEMB     22       POPE     C22      CD32C     2.24380       11.6110           0  -1.99300      0.410000    
      3860 MEMB     22       POPE     DC22     DRUD     -2.44980      0.400000           0   0.00000       0.00000    
      3861 MEMB     22       POPE     H2R      HDA2A    0.690000E-01   1.00800           0   0.00000       0.00000    
      3862 MEMB     22       POPE     H2S      HDA2A    0.690000E-01   1.00800           0   0.00000       0.00000    
      3863 MEMB     22       POPE     LP1A     LPD     -0.349000       0.00000          -1   0.00000       0.00000    
      3864 MEMB     22       POPE     LP1B     LPD     -0.258000       0.00000          -1   0.00000       0.00000    
      3865 MEMB     22       POPE     LPMA     LPD     -0.170000       0.00000          -1   0.00000       0.00000    
      3866 MEMB     22       POPE     LPMB     LPD     -0.170000       0.00000          -1   0.00000       0.00000    
      3867 MEMB     22       POPE     C3       CD32C     2.41230       11.6110           0  -1.79700      0.410000    
      3868 MEMB     22       POPE     DC3      DRUD     -2.32630      0.400000           0   0.00000       0.00000    
      3869 MEMB     22       POPE     HX       HDA2A    0.116000       1.00800           0   0.00000       0.00000    
      3870 MEMB     22       POPE     HY       HDA2A    0.116000       1.00800           0   0.00000       0.00000    
      3871 MEMB     22       POPE     O31      OD30CL    1.48470       15.5994           0 -0.732000      0.601000    
      3872 MEMB     22       POPE     DO31     DRUD     -1.48470      0.400000           0   0.00000       0.00000    
      3873 MEMB     22       POPE     C31      CD2O3B    2.72820       11.6110           0  -1.37000       1.74700    
      3874 MEMB     22       POPE     DC31     DRUD     -2.03120      0.400000           0   0.00000       0.00000    
      3875 MEMB     22       POPE     O32      OD2C3B    1.64990       15.5994           0 -0.904000      0.565000    
      3876 MEMB     22       POPE     DO32     DRUD     -1.64990      0.400000           0   0.00000       0.00000    
      3877 MEMB     22       POPE     C32      CD32C     2.24380       11.6110           0  -1.99300      0.410000    
      3878 MEMB     22       POPE     DC32     DRUD     -2.44980      0.400000           0   0.00000       0.00000    
      3879 MEMB     22       POPE     H2X      HDA2A    0.690000E-01   1.00800           0   0.00000       0.00000    
      3880 MEMB     22       POPE     H2Y      HDA2A    0.690000E-01   1.00800           0   0.00000       0.00000    
      3881 MEMB     22       POPE     LP1C     LPD     -0.349000       0.00000          -1   0.00000       0.00000    
      3882 MEMB     22       POPE     LP1D     LPD     -0.258000       0.00000          -1   0.00000       0.00000    
      3883 MEMB     22       POPE     LPMC     LPD     -0.170000       0.00000          -1   0.00000       0.00000    
      3884 MEMB     22       POPE     LPMD     LPD     -0.170000       0.00000          -1   0.00000       0.00000    
      3885 MEMB     22       POPE     C23      CD32A     2.07980       11.6110           0  -1.66000       1.30000    
      3886 MEMB     22       POPE     DC23     DRUD     -2.23580      0.400000           0   0.00000       0.00000    
      3887 MEMB     22       POPE     H3R      HDA2A    0.780000E-01   1.00800           0   0.00000       0.00000    
      3888 MEMB     22       POPE     H3S      HDA2A    0.780000E-01   1.00800           0   0.00000       0.00000    
      3889 MEMB     22       POPE     C24      CD32A     2.07980       11.6110           0  -1.66000       1.30000    
      3890 MEMB     22       POPE     DC24     DRUD     -2.23580      0.400000           0   0.00000       0.00000    
      3891 MEMB     22       POPE     H4R      HDA2A    0.780000E-01   1.00800           0   0.00000       0.00000    
      3892 MEMB     22       POPE     H4S      HDA2A    0.780000E-01   1.00800           0   0.00000       0.00000    
      3893 MEMB     22       POPE     C25      CD32A     2.07980       11.6110           0  -1.66000       1.30000    
      3894 MEMB     22       POPE     DC25     DRUD     -2.23580      0.400000           0   0.00000       0.00000    
      3895 MEMB     22       POPE     H5R      HDA2A    0.780000E-01   1.00800           0   0.00000       0.00000    
      3896 MEMB     22       POPE     H5S      HDA2A    0.780000E-01   1.00800           0   0.00000       0.00000    
      3897 MEMB     22       POPE     C26      CD32A     2.07980       11.6110           0  -1.66000       1.30000    
      3898 MEMB     22       POPE     DC26     DRUD     -2.23580      0.400000           0   0.00000       0.00000    
      3899 MEMB     22       POPE     H6R      HDA2A    0.780000E-01   1.00800           0   0.00000       0.00000    
      3900 MEMB     22       POPE     H6S      HDA2A    0.780000E-01   1.00800           0   0.00000       0.00000    
      3901 MEMB     22       POPE     C27      CD32A     2.07980       11.6110           0  -1.66000       1.30000    
      3902 MEMB     22       POPE     DC27     DRUD     -2.23580      0.400000           0   0.00000       0.00000    
      3903 MEMB     22       POPE     H7R      HDA2A    0.780000E-01   1.00800           0   0.00000       0.00000    
      3904 MEMB     22       POPE     H7S      HDA2A    0.780000E-01   1.00800           0   0.00000       0.00000    
      3905 MEMB     22       POPE     C28      CD32A     2.07980       11.6110           0  -1.66000       1.30000    
      3906 MEMB     22       POPE     DC28     DRUD     -2.23580      0.400000           0   0.00000       0.00000    
      3907 MEMB     22       POPE     H8R      HDA2A    0.780000E-01   1.00800           0   0.00000       0.00000    
      3908 MEMB     22       POPE     H8S      HDA2A    0.780000E-01   1.00800           0   0.00000       0.00000    
      3909 MEMB     22       POPE     C29      CD2C1A    2.33700       11.6110           0  -1.99000      0.750000    
      3910 MEMB     22       POPE     DC29     DRUD     -2.44800      0.400000           0   0.00000       0.00000    
      3911 MEMB     22       POPE     H91      HD2C1A   0.111000       1.00800           0   0.00000       0.00000    
      3912 MEMB     22       POPE     C210     CD2C1A    2.33700       11.6110           0  -1.99000      0.750000    
      3913 MEMB     22       POPE     DC210    DRUD     -2.44800      0.400000           0   0.00000       0.00000    
      3914 MEMB     22       POPE     H101     HD2C1A   0.111000       1.00800           0   0.00000       0.00000    
      3915 MEMB     22       POPE     C211     CD32A     2.07980       11.6110           0  -1.66000       1.30000    
      3916 MEMB     22       POPE     DC211    DRUD     -2.23580      0.400000           0   0.00000       0.00000    
      3917 MEMB     22       POPE     H11R     HDA2A    0.780000E-01   1.00800           0   0.00000       0.00000    
      3918 MEMB     22       POPE     H11S     HDA2A    0.780000E-01   1.00800           0   0.00000       0.00000    
      3919 MEMB     22       POPE     C212     CD32A     2.07980       11.6110           0  -1.66000       1.30000    
      3920 MEMB     22       POPE     DC212    DRUD     -2.23580      0.400000           0   0.00000       0.00000    
      3921 MEMB     22       POPE     H12R     HDA2A    0.780000E-01   1.00800           0   0.00000       0.00000    
      3922 MEMB     22       POPE     H12S     HDA2A    0.780000E-01   1.00800           0   0.00000       0.00000    
      3923 MEMB     22       POPE     C213     CD32A     2.07980       11.6110           0  -1.66000       1.30000    
      3924 MEMB     22       POPE     DC213    DRUD     -2.23580      0.400000           0   0.00000       0.00000    
      3925 MEMB     22       POPE     H13R     HDA2A    0.780000E-01   1.00800           0   0.00000       0.00000    
      3926 MEMB     22       POPE     H13S     HDA2A    0.780000E-01   1.00800           0   0.00000       0.00000    
      3927 MEMB     22       POPE     C214     CD32A     2.07980       11.6110           0  -1.66000       1.30000    
      3928 MEMB     22       POPE     DC214    DRUD     -2.23580      0.400000           0   0.00000       0.00000    
      3929 MEMB     22       POPE     H14R     HDA2A    0.780000E-01   1.00800           0   0.00000       0.00000    
      3930 MEMB     22       POPE     H14S     HDA2A    0.780000E-01   1.00800           0   0.00000       0.00000    
      3931 MEMB     22       POPE     C215     CD32A     2.07980       11.6110           0  -1.66000       1.30000    
      3932 MEMB     22       POPE     DC215    DRUD     -2.23580      0.400000           0   0.00000       0.00000    
      3933 MEMB     22       POPE     H15R     HDA2A    0.780000E-01   1.00800           0   0.00000       0.00000    
      3934 MEMB     22       POPE     H15S     HDA2A    0.780000E-01   1.00800           0   0.00000       0.00000    
      3935 MEMB     22       POPE     C216     CD32A     2.07980       11.6110           0  -1.66000       1.30000    
      3936 MEMB     22       POPE     DC216    DRUD     -2.23580      0.400000           0   0.00000       0.00000    
      3937 MEMB     22       POPE     H16R     HDA2A    0.780000E-01   1.00800           0   0.00000       0.00000    
      3938 MEMB     22       POPE     H16S     HDA2A    0.780000E-01   1.00800           0   0.00000       0.00000    
      3939 MEMB     22       POPE     C217     CD32A     2.07980       11.6110           0  -1.66000       1.30000    
      3940 MEMB     22       POPE     DC217    DRUD     -2.23580      0.400000           0   0.00000       0.00000    
      3941 MEMB     22       POPE     H17R     HDA2A    0.780000E-01   1.00800           0   0.00000       0.00000    
      3942 MEMB     22       POPE     H17S     HDA2A    0.780000E-01   1.00800           0   0.00000       0.00000    
      3943 MEMB     22       POPE     C218     CD33A     2.30820       11.6110           0  -2.05100       1.30000    
      3944 MEMB     22       POPE     DC218    DRUD     -2.48520      0.400000           0   0.00000       0.00000    
      3945 MEMB     22       POPE     H18R     HDA3A    0.590000E-01   1.00800           0   0.00000       0.00000    
      3946 MEMB     22       POPE     H18S     HDA3A    0.590000E-01   1.00800           0   0.00000       0.00000    
      3947 MEMB     22       POPE     H18T     HDA3A    0.590000E-01   1.00800           0   0.00000       0.00000    
      3948 MEMB     22       POPE     C33      CD32A     2.07980       11.6110           0  -1.66000       1.30000    
      3949 MEMB     22       POPE     DC33     DRUD     -2.23580      0.400000           0   0.00000       0.00000    
      3950 MEMB     22       POPE     H3X      HDA2A    0.780000E-01   1.00800           0   0.00000       0.00000    
      3951 MEMB     22       POPE     H3Y      HDA2A    0.780000E-01   1.00800           0   0.00000       0.00000    
      3952 MEMB     22       POPE     C34      CD32A     2.07980       11.6110           0  -1.66000       1.30000    
      3953 MEMB     22       POPE     DC34     DRUD     -2.23580      0.400000           0   0.00000       0.00000    
      3954 MEMB     22       POPE     H4X      HDA2A    0.780000E-01   1.00800           0   0.00000       0.00000    
      3955 MEMB     22       POPE     H4Y      HDA2A    0.780000E-01   1.00800           0   0.00000       0.00000    
      3956 MEMB     22       POPE     C35      CD32A     2.07980       11.6110           0  -1.66000       1.30000    
      3957 MEMB     22       POPE     DC35     DRUD     -2.23580      0.400000           0   0.00000       0.00000    
      3958 MEMB     22       POPE     H5X      HDA2A    0.780000E-01   1.00800           0   0.00000       0.00000    
      3959 MEMB     22       POPE     H5Y      HDA2A    0.780000E-01   1.00800           0   0.00000       0.00000    
      3960 MEMB     22       POPE     C36      CD32A     2.07980       11.6110           0  -1.66000       1.30000    
      3961 MEMB     22       POPE     DC36     DRUD     -2.23580      0.400000           0   0.00000       0.00000    
      3962 MEMB     22       POPE     H6X      HDA2A    0.780000E-01   1.00800           0   0.00000       0.00000    
      3963 MEMB     22       POPE     H6Y      HDA2A    0.780000E-01   1.00800           0   0.00000       0.00000    
      3964 MEMB     22       POPE     C37      CD32A     2.07980       11.6110           0  -1.66000       1.30000    
      3965 MEMB     22       POPE     DC37     DRUD     -2.23580      0.400000           0   0.00000       0.00000    
      3966 MEMB     22       POPE     H7X      HDA2A    0.780000E-01   1.00800           0   0.00000       0.00000    
      3967 MEMB     22       POPE     H7Y      HDA2A    0.780000E-01   1.00800           0   0.00000       0.00000    
      3968 MEMB     22       POPE     C38      CD32A     2.07980       11.6110           0  -1.66000       1.30000    
      3969 MEMB     22       POPE     DC38     DRUD     -2.23580      0.400000           0   0.00000       0.00000    
      3970 MEMB     22       POPE     H8X      HDA2A    0.780000E-01   1.00800           0   0.00000       0.00000    
      3971 MEMB     22       POPE     H8Y      HDA2A    0.780000E-01   1.00800           0   0.00000       0.00000    
      3972 MEMB     22       POPE     C39      CD32A     2.07980       11.6110           0  -1.66000       1.30000    
      3973 MEMB     22       POPE     DC39     DRUD     -2.23580      0.400000           0   0.00000       0.00000    
      3974 MEMB     22       POPE     H9X      HDA2A    0.780000E-01   1.00800           0   0.00000       0.00000    
      3975 MEMB     22       POPE     H9Y      HDA2A    0.780000E-01   1.00800           0   0.00000       0.00000    
      3976 MEMB     22       POPE     C310     CD32A     2.07980       11.6110           0  -1.66000       1.30000    
      3977 MEMB     22       POPE     DC310    DRUD     -2.23580      0.400000           0   0.00000       0.00000    
      3978 MEMB     22       POPE     H10X     HDA2A    0.780000E-01   1.00800           0   0.00000       0.00000    
      3979 MEMB     22       POPE     H10Y     HDA2A    0.780000E-01   1.00800           0   0.00000       0.00000    
      3980 MEMB     22       POPE     C311     CD32A     2.07980       11.6110           0  -1.66000       1.30000    
      3981 MEMB     22       POPE     DC311    DRUD     -2.23580      0.400000           0   0.00000       0.00000    
      3982 MEMB     22       POPE     H11X     HDA2A    0.780000E-01   1.00800           0   0.00000       0.00000    
      3983 MEMB     22       POPE     H11Y     HDA2A    0.780000E-01   1.00800           0   0.00000       0.00000    
      3984 MEMB     22       POPE     C312     CD32A     2.07980       11.6110           0  -1.66000       1.30000    
      3985 MEMB     22       POPE     DC312    DRUD     -2.23580      0.400000           0   0.00000       0.00000    
      3986 MEMB     22       POPE     H12X     HDA2A    0.780000E-01   1.00800           0   0.00000       0.00000    
      3987 MEMB     22       POPE     H12Y     HDA2A    0.780000E-01   1.00800           0   0.00000       0.00000    
      3988 MEMB     22       POPE     C313     CD32A     2.07980       11.6110           0  -1.66000       1.30000    
      3989 MEMB     22       POPE     DC313    DRUD     -2.23580      0.400000           0   0.00000       0.00000    
      3990 MEMB     22       POPE     H13X     HDA2A    0.780000E-01   1.00800           0   0.00000       0.00000    
      3991 MEMB     22       POPE     H13Y     HDA2A    0.780000E-01   1.00800           0   0.00000       0.00000    
      3992 MEMB     22       POPE     C314     CD32A     2.07980       11.6110           0  -1.66000       1.30000    
      3993 MEMB     22       POPE     DC314    DRUD     -2.23580      0.400000           0   0.00000       0.00000    
      3994 MEMB     22       POPE     H14X     HDA2A    0.780000E-01   1.00800           0   0.00000       0.00000    
      3995 MEMB     22       POPE     H14Y     HDA2A    0.780000E-01   1.00800           0   0.00000       0.00000    
      3996 MEMB     22       POPE     C315     CD32A     2.07980       11.6110           0  -1.66000       1.30000    
      3997 MEMB     22       POPE     DC315    DRUD     -2.23580      0.400000           0   0.00000       0.00000    
      3998 MEMB     22       POPE     H15X     HDA2A    0.780000E-01   1.00800           0   0.00000       0.00000    
      3999 MEMB     22       POPE     H15Y     HDA2A    0.780000E-01   1.00800           0   0.00000       0.00000    
      4000 MEMB     22       POPE     C316     CD33A     2.30820       11.6110           0  -2.05100       1.30000    
      4001 MEMB     22       POPE     DC316    DRUD     -2.48520      0.400000           0   0.00000       0.00000    
      4002 MEMB     22       POPE     H16X     HDA3A    0.590000E-01   1.00800           0   0.00000       0.00000    
      4003 MEMB     22       POPE     H16Y     HDA3A    0.590000E-01   1.00800           0   0.00000       0.00000    
      4004 MEMB     22       POPE     H16Z     HDA3A    0.590000E-01   1.00800           0   0.00000       0.00000    
      4005 MEMB     23       POPE     N        ND3P3A    1.62810       13.6070           0  -1.29800      0.895000    
      4006 MEMB     23       POPE     DN       DRUD     -1.97710      0.400000           0   0.00000       0.00000    
      4007 MEMB     23       POPE     HN1      HDP1B    0.340000       1.00800           0   0.00000       0.00000    
      4008 MEMB     23       POPE     HN2      HDP1B    0.340000       1.00800           0   0.00000       0.00000    
      4009 MEMB     23       POPE     HN3      HDP1B    0.340000       1.00800           0   0.00000       0.00000    
      4010 MEMB     23       POPE     C12      CD32A     2.27610       11.6110           0  -1.65600      0.895000    
      4011 MEMB     23       POPE     DC12     DRUD     -2.23310      0.400000           0   0.00000       0.00000    
      4012 MEMB     23       POPE     H12A     HDA2A    0.143000       1.00800           0   0.00000       0.00000    
      4013 MEMB     23       POPE     H12B     HDA2A    0.143000       1.00800           0   0.00000       0.00000    
      4014 MEMB     23       POPE     C11      CD32A     2.42220       11.6110           0  -1.64200      0.862000    
      4015 MEMB     23       POPE     DC11     DRUD     -2.22370      0.400000           0   0.00000       0.00000    
      4016 MEMB     23       POPE     H11A     HDA2A    0.260000E-01   1.00800           0   0.00000       0.00000    
      4017 MEMB     23       POPE     H11B     HDA2A    0.260000E-01   1.00800           0   0.00000       0.00000    
      4018 MEMB     23       POPE     P        PD1A      2.90360       30.5740           0 -0.974000       2.09800    
      4019 MEMB     23       POPE     DP       DRUD     -1.71260      0.400000           0   0.00000       0.00000    
      4020 MEMB     23       POPE     O13      OD2C2B   0.798400       15.5994           0 -0.931000       1.08300    
      4021 MEMB     23       POPE     DO13     DRUD     -1.67440      0.400000           0   0.00000       0.00000    
      4022 MEMB     23       POPE     O14      OD2C2B   0.798400       15.5994           0 -0.931000       1.08300    
      4023 MEMB     23       POPE     DO14     DRUD     -1.67440      0.400000           0   0.00000       0.00000    
      4024 MEMB     23       POPE     O11      OD30B     1.17720       15.5994           0 -0.901000      0.181000    
      4025 MEMB     23       POPE     DO11     DRUD     -1.64720      0.400000           0   0.00000       0.00000    
      4026 MEMB     23       POPE     O12      OD30B     1.17720       15.5994           0 -0.901000      0.181000    
      4027 MEMB     23       POPE     DO12     DRUD     -1.64720      0.400000           0   0.00000       0.00000    
      4028 MEMB     23       POPE     C1       CD32A     2.42220       11.6110           0  -1.64200      0.862000    
      4029 MEMB     23       POPE     DC1      DRUD     -2.22370      0.400000           0   0.00000       0.00000    
      4030 MEMB     23       POPE     HA       HDA2A    0.260000E-01   1.00800           0   0.00000       0.00000    
      4031 MEMB     23       POPE     HB       HDA2A    0.260000E-01   1.00800           0   0.00000       0.00000    
      4032 MEMB     23       POPE     C2       CD31C     2.52830       11.6110           0  -1.79700      0.410000    
      4033 MEMB     23       POPE     DC2      DRUD     -2.32630      0.400000           0   0.00000       0.00000    
      4034 MEMB     23       POPE     HS       HDA1A    0.116000       1.00800           0   0.00000       0.00000    
      4035 MEMB     23       POPE     O21      OD30CL    1.48470       15.5994           0 -0.732000      0.601000    
      4036 MEMB     23       POPE     DO21     DRUD     -1.48470      0.400000           0   0.00000       0.00000    
      4037 MEMB     23       POPE     C21      CD2O3B    2.72820       11.6110           0  -1.37000       1.74700    
      4038 MEMB     23       POPE     DC21     DRUD     -2.03120      0.400000           0   0.00000       0.00000    
      4039 MEMB     23       POPE     O22      OD2C3B    1.64990       15.5994           0 -0.904000      0.565000    
      4040 MEMB     23       POPE     DO22     DRUD     -1.64990      0.400000           0   0.00000       0.00000    
      4041 MEMB     23       POPE     C22      CD32C     2.24380       11.6110           0  -1.99300      0.410000    
      4042 MEMB     23       POPE     DC22     DRUD     -2.44980      0.400000           0   0.00000       0.00000    
      4043 MEMB     23       POPE     H2R      HDA2A    0.690000E-01   1.00800           0   0.00000       0.00000    
      4044 MEMB     23       POPE     H2S      HDA2A    0.690000E-01   1.00800           0   0.00000       0.00000    
      4045 MEMB     23       POPE     LP1A     LPD     -0.349000       0.00000          -1   0.00000       0.00000    
      4046 MEMB     23       POPE     LP1B     LPD     -0.258000       0.00000          -1   0.00000       0.00000    
      4047 MEMB     23       POPE     LPMA     LPD     -0.170000       0.00000          -1   0.00000       0.00000    
      4048 MEMB     23       POPE     LPMB     LPD     -0.170000       0.00000          -1   0.00000       0.00000    
      4049 MEMB     23       POPE     C3       CD32C     2.41230       11.6110           0  -1.79700      0.410000    
      4050 MEMB     23       POPE     DC3      DRUD     -2.32630      0.400000           0   0.00000       0.00000    
      4051 MEMB     23       POPE     HX       HDA2A    0.116000       1.00800           0   0.00000       0.00000    
      4052 MEMB     23       POPE     HY       HDA2A    0.116000       1.00800           0   0.00000       0.00000    
      4053 MEMB     23       POPE     O31      OD30CL    1.48470       15.5994           0 -0.732000      0.601000    
      4054 MEMB     23       POPE     DO31     DRUD     -1.48470      0.400000           0   0.00000       0.00000    
      4055 MEMB     23       POPE     C31      CD2O3B    2.72820       11.6110           0  -1.37000       1.74700    
      4056 MEMB     23       POPE     DC31     DRUD     -2.03120      0.400000           0   0.00000       0.00000    
      4057 MEMB     23       POPE     O32      OD2C3B    1.64990       15.5994           0 -0.904000      0.565000    
      4058 MEMB     23       POPE     DO32     DRUD     -1.64990      0.400000           0   0.00000       0.00000    
      4059 MEMB     23       POPE     C32      CD32C     2.24380       11.6110           0  -1.99300      0.410000    
      4060 MEMB     23       POPE     DC32     DRUD     -2.44980      0.400000           0   0.00000       0.00000    
      4061 MEMB     23       POPE     H2X      HDA2A    0.690000E-01   1.00800           0   0.00000       0.00000    
      4062 MEMB     23       POPE     H2Y      HDA2A    0.690000E-01   1.00800           0   0.00000       0.00000    
      4063 MEMB     23       POPE     LP1C     LPD     -0.349000       0.00000          -1   0.00000       0.00000    
      4064 MEMB     23       POPE     LP1D     LPD     -0.258000       0.00000          -1   0.00000       0.00000    
      4065 MEMB     23       POPE     LPMC     LPD     -0.170000       0.00000          -1   0.00000       0.00000    
      4066 MEMB     23       POPE     LPMD     LPD     -0.170000       0.00000          -1   0.00000       0.00000    
      4067 MEMB     23       POPE     C23      CD32A     2.07980       11.6110           0  -1.66000       1.30000    
      4068 MEMB     23       POPE     DC23     DRUD     -2.23580      0.400000           0   0.00000       0.00000    
      4069 MEMB     23       POPE     H3R      HDA2A    0.780000E-01   1.00800           0   0.00000       0.00000    
      4070 MEMB     23       POPE     H3S      HDA2A    0.780000E-01   1.00800           0   0.00000       0.00000    
      4071 MEMB     23       POPE     C24      CD32A     2.07980       11.6110           0  -1.66000       1.30000    
      4072 MEMB     23       POPE     DC24     DRUD     -2.23580      0.400000           0   0.00000       0.00000    
      4073 MEMB     23       POPE     H4R      HDA2A    0.780000E-01   1.00800           0   0.00000       0.00000    
      4074 MEMB     23       POPE     H4S      HDA2A    0.780000E-01   1.00800           0   0.00000       0.00000    
      4075 MEMB     23       POPE     C25      CD32A     2.07980       11.6110           0  -1.66000       1.30000    
      4076 MEMB     23       POPE     DC25     DRUD     -2.23580      0.400000           0   0.00000       0.00000    
      4077 MEMB     23       POPE     H5R      HDA2A    0.780000E-01   1.00800           0   0.00000       0.00000    
      4078 MEMB     23       POPE     H5S      HDA2A    0.780000E-01   1.00800           0   0.00000       0.00000    
      4079 MEMB     23       POPE     C26      CD32A     2.07980       11.6110           0  -1.66000       1.30000    
      4080 MEMB     23       POPE     DC26     DRUD     -2.23580      0.400000           0   0.00000       0.00000    
      4081 MEMB     23       POPE     H6R      HDA2A    0.780000E-01   1.00800           0   0.00000       0.00000    
      4082 MEMB     23       POPE     H6S      HDA2A    0.780000E-01   1.00800           0   0.00000       0.00000    
      4083 MEMB     23       POPE     C27      CD32A     2.07980       11.6110           0  -1.66000       1.30000    
      4084 MEMB     23       POPE     DC27     DRUD     -2.23580      0.400000           0   0.00000       0.00000    
      4085 MEMB     23       POPE     H7R      HDA2A    0.780000E-01   1.00800           0   0.00000       0.00000    
      4086 MEMB     23       POPE     H7S      HDA2A    0.780000E-01   1.00800           0   0.00000       0.00000    
      4087 MEMB     23       POPE     C28      CD32A     2.07980       11.6110           0  -1.66000       1.30000    
      4088 MEMB     23       POPE     DC28     DRUD     -2.23580      0.400000           0   0.00000       0.00000    
      4089 MEMB     23       POPE     H8R      HDA2A    0.780000E-01   1.00800           0   0.00000       0.00000    
      4090 MEMB     23       POPE     H8S      HDA2A    0.780000E-01   1.00800           0   0.00000       0.00000    
      4091 MEMB     23       POPE     C29      CD2C1A    2.33700       11.6110           0  -1.99000      0.750000    
      4092 MEMB     23       POPE     DC29     DRUD     -2.44800      0.400000           0   0.00000       0.00000    
      4093 MEMB     23       POPE     H91      HD2C1A   0.111000       1.00800           0   0.00000       0.00000    
      4094 MEMB     23       POPE     C210     CD2C1A    2.33700       11.6110           0  -1.99000      0.750000    
      4095 MEMB     23       POPE     DC210    DRUD     -2.44800      0.400000           0   0.00000       0.00000    
      4096 MEMB     23       POPE     H101     HD2C1A   0.111000       1.00800           0   0.00000       0.00000    
      4097 MEMB     23       POPE     C211     CD32A     2.07980       11.6110           0  -1.66000       1.30000    
      4098 MEMB     23       POPE     DC211    DRUD     -2.23580      0.400000           0   0.00000       0.00000    
      4099 MEMB     23       POPE     H11R     HDA2A    0.780000E-01   1.00800           0   0.00000       0.00000    
      4100 MEMB     23       POPE     H11S     HDA2A    0.780000E-01   1.00800           0   0.00000       0.00000    
      4101 MEMB     23       POPE     C212     CD32A     2.07980       11.6110           0  -1.66000       1.30000    
      4102 MEMB     23       POPE     DC212    DRUD     -2.23580      0.400000           0   0.00000       0.00000    
      4103 MEMB     23       POPE     H12R     HDA2A    0.780000E-01   1.00800           0   0.00000       0.00000    
      4104 MEMB     23       POPE     H12S     HDA2A    0.780000E-01   1.00800           0   0.00000       0.00000    
      4105 MEMB     23       POPE     C213     CD32A     2.07980       11.6110           0  -1.66000       1.30000    
      4106 MEMB     23       POPE     DC213    DRUD     -2.23580      0.400000           0   0.00000       0.00000    
      4107 MEMB     23       POPE     H13R     HDA2A    0.780000E-01   1.00800           0   0.00000       0.00000    
      4108 MEMB     23       POPE     H13S     HDA2A    0.780000E-01   1.00800           0   0.00000       0.00000    
      4109 MEMB     23       POPE     C214     CD32A     2.07980       11.6110           0  -1.66000       1.30000    
      4110 MEMB     23       POPE     DC214    DRUD     -2.23580      0.400000           0   0.00000       0.00000    
      4111 MEMB     23       POPE     H14R     HDA2A    0.780000E-01   1.00800           0   0.00000       0.00000    
      4112 MEMB     23       POPE     H14S     HDA2A    0.780000E-01   1.00800           0   0.00000       0.00000    
      4113 MEMB     23       POPE     C215     CD32A     2.07980       11.6110           0  -1.66000       1.30000    
      4114 MEMB     23       POPE     DC215    DRUD     -2.23580      0.400000           0   0.00000       0.00000    
      4115 MEMB     23       POPE     H15R     HDA2A    0.780000E-01   1.00800           0   0.00000       0.00000    
      4116 MEMB     23       POPE     H15S     HDA2A    0.780000E-01   1.00800           0   0.00000       0.00000    
      4117 MEMB     23       POPE     C216     CD32A     2.07980       11.6110           0  -1.66000       1.30000    
      4118 MEMB     23       POPE     DC216    DRUD     -2.23580      0.400000           0   0.00000       0.00000    
      4119 MEMB     23       POPE     H16R     HDA2A    0.780000E-01   1.00800           0   0.00000       0.00000    
      4120 MEMB     23       POPE     H16S     HDA2A    0.780000E-01   1.00800           0   0.00000       0.00000    
      4121 MEMB     23       POPE     C217     CD32A     2.07980       11.6110           0  -1.66000       1.30000    
      4122 MEMB     23       POPE     DC217    DRUD     -2.23580      0.400000           0   0.00000       0.00000    
      4123 MEMB     23       POPE     H17R     HDA2A    0.780000E-01   1.00800           0   0.00000       0.00000    
      4124 MEMB     23       POPE     H17S     HDA2A    0.780000E-01   1.00800           0   0.00000       0.00000    
      4125 MEMB     23       POPE     C218     CD33A     2.30820       11.6110           0  -2.05100       1.30000    
      4126 MEMB     23       POPE     DC218    DRUD     -2.48520      0.400000           0   0.00000       0.00000    
      4127 MEMB     23       POPE     H18R     HDA3A    0.590000E-01   1.00800           0   0.00000       0.00000    
      4128 MEMB     23       POPE     H18S     HDA3A    0.590000E-01   1.00800           0   0.00000       0.00000    
      4129 MEMB     23       POPE     H18T     HDA3A    0.590000E-01   1.00800           0   0.00000       0.00000    
      4130 MEMB     23       POPE     C33      CD32A     2.07980       11.6110           0  -1.66000       1.30000    
      4131 MEMB     23       POPE     DC33     DRUD     -2.23580      0.400000           0   0.00000       0.00000    
      4132 MEMB     23       POPE     H3X      HDA2A    0.780000E-01   1.00800           0   0.00000       0.00000    
      4133 MEMB     23       POPE     H3Y      HDA2A    0.780000E-01   1.00800           0   0.00000       0.00000    
      4134 MEMB     23       POPE     C34      CD32A     2.07980       11.6110           0  -1.66000       1.30000    
      4135 MEMB     23       POPE     DC34     DRUD     -2.23580      0.400000           0   0.00000       0.00000    
      4136 MEMB     23       POPE     H4X      HDA2A    0.780000E-01   1.00800           0   0.00000       0.00000    
      4137 MEMB     23       POPE     H4Y      HDA2A    0.780000E-01   1.00800           0   0.00000       0.00000    
      4138 MEMB     23       POPE     C35      CD32A     2.07980       11.6110           0  -1.66000       1.30000    
      4139 MEMB     23       POPE     DC35     DRUD     -2.23580      0.400000           0   0.00000       0.00000    
      4140 MEMB     23       POPE     H5X      HDA2A    0.780000E-01   1.00800           0   0.00000       0.00000    
      4141 MEMB     23       POPE     H5Y      HDA2A    0.780000E-01   1.00800           0   0.00000       0.00000    
      4142 MEMB     23       POPE     C36      CD32A     2.07980       11.6110           0  -1.66000       1.30000    
      4143 MEMB     23       POPE     DC36     DRUD     -2.23580      0.400000           0   0.00000       0.00000    
      4144 MEMB     23       POPE     H6X      HDA2A    0.780000E-01   1.00800           0   0.00000       0.00000    
      4145 MEMB     23       POPE     H6Y      HDA2A    0.780000E-01   1.00800           0   0.00000       0.00000    
      4146 MEMB     23       POPE     C37      CD32A     2.07980       11.6110           0  -1.66000       1.30000    
      4147 MEMB     23       POPE     DC37     DRUD     -2.23580      0.400000           0   0.00000       0.00000    
      4148 MEMB     23       POPE     H7X      HDA2A    0.780000E-01   1.00800           0   0.00000       0.00000    
      4149 MEMB     23       POPE     H7Y      HDA2A    0.780000E-01   1.00800           0   0.00000       0.00000    
      4150 MEMB     23       POPE     C38      CD32A     2.07980       11.6110           0  -1.66000       1.30000    
      4151 MEMB     23       POPE     DC38     DRUD     -2.23580      0.400000           0   0.00000       0.00000    
      4152 MEMB     23       POPE     H8X      HDA2A    0.780000E-01   1.00800           0   0.00000       0.00000    
      4153 MEMB     23       POPE     H8Y      HDA2A    0.780000E-01   1.00800           0   0.00000       0.00000    
      4154 MEMB     23       POPE     C39      CD32A     2.07980       11.6110           0  -1.66000       1.30000    
      4155 MEMB     23       POPE     DC39     DRUD     -2.23580      0.400000           0   0.00000       0.00000    
      4156 MEMB     23       POPE     H9X      HDA2A    0.780000E-01   1.00800           0   0.00000       0.00000    
      4157 MEMB     23       POPE     H9Y      HDA2A    0.780000E-01   1.00800           0   0.00000       0.00000    
      4158 MEMB     23       POPE     C310     CD32A     2.07980       11.6110           0  -1.66000       1.30000    
      4159 MEMB     23       POPE     DC310    DRUD     -2.23580      0.400000           0   0.00000       0.00000    
      4160 MEMB     23       POPE     H10X     HDA2A    0.780000E-01   1.00800           0   0.00000       0.00000    
      4161 MEMB     23       POPE     H10Y     HDA2A    0.780000E-01   1.00800           0   0.00000       0.00000    
      4162 MEMB     23       POPE     C311     CD32A     2.07980       11.6110           0  -1.66000       1.30000    
      4163 MEMB     23       POPE     DC311    DRUD     -2.23580      0.400000           0   0.00000       0.00000    
      4164 MEMB     23       POPE     H11X     HDA2A    0.780000E-01   1.00800           0   0.00000       0.00000    
      4165 MEMB     23       POPE     H11Y     HDA2A    0.780000E-01   1.00800           0   0.00000       0.00000    
      4166 MEMB     23       POPE     C312     CD32A     2.07980       11.6110           0  -1.66000       1.30000    
      4167 MEMB     23       POPE     DC312    DRUD     -2.23580      0.400000           0   0.00000       0.00000    
      4168 MEMB     23       POPE     H12X     HDA2A    0.780000E-01   1.00800           0   0.00000       0.00000    
      4169 MEMB     23       POPE     H12Y     HDA2A    0.780000E-01   1.00800           0   0.00000       0.00000    
      4170 MEMB     23       POPE     C313     CD32A     2.07980       11.6110           0  -1.66000       1.30000    
      4171 MEMB     23       POPE     DC313    DRUD     -2.23580      0.400000           0   0.00000       0.00000    
      4172 MEMB     23       POPE     H13X     HDA2A    0.780000E-01   1.00800           0   0.00000       0.00000    
      4173 MEMB     23       POPE     H13Y     HDA2A    0.780000E-01   1.00800           0   0.00000       0.00000    
      4174 MEMB     23       POPE     C314     CD32A     2.07980       11.6110           0  -1.66000       1.30000    
      4175 MEMB     23       POPE     DC314    DRUD     -2.23580      0.400000           0   0.00000       0.00000    
      4176 MEMB     23       POPE     H14X     HDA2A    0.780000E-01   1.00800           0   0.00000       0.00000    
      4177 MEMB     23       POPE     H14Y     HDA2A    0.780000E-01   1.00800           0   0.00000       0.00000    
      4178 MEMB     23       POPE     C315     CD32A     2.07980       11.6110           0  -1.66000       1.30000    
      4179 MEMB     23       POPE     DC315    DRUD     -2.23580      0.400000           0   0.00000       0.00000    
      4180 MEMB     23       POPE     H15X     HDA2A    0.780000E-01   1.00800           0   0.00000       0.00000    
      4181 MEMB     23       POPE     H15Y     HDA2A    0.780000E-01   1.00800           0   0.00000       0.00000    
      4182 MEMB     23       POPE     C316     CD33A     2.30820       11.6110           0  -2.05100       1.30000    
      4183 MEMB     23       POPE     DC316    DRUD     -2.48520      0.400000           0   0.00000       0.00000    
      4184 MEMB     23       POPE     H16X     HDA3A    0.590000E-01   1.00800           0   0.00000       0.00000    
      4185 MEMB     23       POPE     H16Y     HDA3A    0.590000E-01   1.00800           0   0.00000       0.00000    
      4186 MEMB     23       POPE     H16Z     HDA3A    0.590000E-01   1.00800           0   0.00000       0.00000    
      4187 MEMB     24       POPE     N        ND3P3A    1.62810       13.6070           0  -1.29800      0.895000    
      4188 MEMB     24       POPE     DN       DRUD     -1.97710      0.400000           0   0.00000       0.00000    
      4189 MEMB     24       POPE     HN1      HDP1B    0.340000       1.00800           0   0.00000       0.00000    
      4190 MEMB     24       POPE     HN2      HDP1B    0.340000       1.00800           0   0.00000       0.00000    
      4191 MEMB     24       POPE     HN3      HDP1B    0.340000       1.00800           0   0.00000       0.00000    
      4192 MEMB     24       POPE     C12      CD32A     2.27610       11.6110           0  -1.65600      0.895000    
      4193 MEMB     24       POPE     DC12     DRUD     -2.23310      0.400000           0   0.00000       0.00000    
      4194 MEMB     24       POPE     H12A     HDA2A    0.143000       1.00800           0   0.00000       0.00000    
      4195 MEMB     24       POPE     H12B     HDA2A    0.143000       1.00800           0   0.00000       0.00000    
      4196 MEMB     24       POPE     C11      CD32A     2.42220       11.6110           0  -1.64200      0.862000    
      4197 MEMB     24       POPE     DC11     DRUD     -2.22370      0.400000           0   0.00000       0.00000    
      4198 MEMB     24       POPE     H11A     HDA2A    0.260000E-01   1.00800           0   0.00000       0.00000    
      4199 MEMB     24       POPE     H11B     HDA2A    0.260000E-01   1.00800           0   0.00000       0.00000    
      4200 MEMB     24       POPE     P        PD1A      2.90360       30.5740           0 -0.974000       2.09800    
      4201 MEMB     24       POPE     DP       DRUD     -1.71260      0.400000           0   0.00000       0.00000    
      4202 MEMB     24       POPE     O13      OD2C2B   0.798400       15.5994           0 -0.931000       1.08300    
      4203 MEMB     24       POPE     DO13     DRUD     -1.67440      0.400000           0   0.00000       0.00000    
      4204 MEMB     24       POPE     O14      OD2C2B   0.798400       15.5994           0 -0.931000       1.08300    
      4205 MEMB     24       POPE     DO14     DRUD     -1.67440      0.400000           0   0.00000       0.00000    
      4206 MEMB     24       POPE     O11      OD30B     1.17720       15.5994           0 -0.901000      0.181000    
      4207 MEMB     24       POPE     DO11     DRUD     -1.64720      0.400000           0   0.00000       0.00000    
      4208 MEMB     24       POPE     O12      OD30B     1.17720       15.5994           0 -0.901000      0.181000    
      4209 MEMB     24       POPE     DO12     DRUD     -1.64720      0.400000           0   0.00000       0.00000    
      4210 MEMB     24       POPE     C1       CD32A     2.42220       11.6110           0  -1.64200      0.862000    
      4211 MEMB     24       POPE     DC1      DRUD     -2.22370      0.400000           0   0.00000       0.00000    
      4212 MEMB     24       POPE     HA       HDA2A    0.260000E-01   1.00800           0   0.00000       0.00000    
      4213 MEMB     24       POPE     HB       HDA2A    0.260000E-01   1.00800           0   0.00000       0.00000    
      4214 MEMB     24       POPE     C2       CD31C     2.52830       11.6110           0  -1.79700      0.410000    
      4215 MEMB     24       POPE     DC2      DRUD     -2.32630      0.400000           0   0.00000       0.00000    
      4216 MEMB     24       POPE     HS       HDA1A    0.116000       1.00800           0   0.00000       0.00000    
      4217 MEMB     24       POPE     O21      OD30CL    1.48470       15.5994           0 -0.732000      0.601000    
      4218 MEMB     24       POPE     DO21     DRUD     -1.48470      0.400000           0   0.00000       0.00000    
      4219 MEMB     24       POPE     C21      CD2O3B    2.72820       11.6110           0  -1.37000       1.74700    
      4220 MEMB     24       POPE     DC21     DRUD     -2.03120      0.400000           0   0.00000       0.00000    
      4221 MEMB     24       POPE     O22      OD2C3B    1.64990       15.5994           0 -0.904000      0.565000    
      4222 MEMB     24       POPE     DO22     DRUD     -1.64990      0.400000           0   0.00000       0.00000    
      4223 MEMB     24       POPE     C22      CD32C     2.24380       11.6110           0  -1.99300      0.410000    
      4224 MEMB     24       POPE     DC22     DRUD     -2.44980      0.400000           0   0.00000       0.00000    
      4225 MEMB     24       POPE     H2R      HDA2A    0.690000E-01   1.00800           0   0.00000       0.00000    
      4226 MEMB     24       POPE     H2S      HDA2A    0.690000E-01   1.00800           0   0.00000       0.00000    
      4227 MEMB     24       POPE     LP1A     LPD     -0.349000       0.00000          -1   0.00000       0.00000    
      4228 MEMB     24       POPE     LP1B     LPD     -0.258000       0.00000          -1   0.00000       0.00000    
      4229 MEMB     24       POPE     LPMA     LPD     -0.170000       0.00000          -1   0.00000       0.00000    
      4230 MEMB     24       POPE     LPMB     LPD     -0.170000       0.00000          -1   0.00000       0.00000    
      4231 MEMB     24       POPE     C3       CD32C     2.41230       11.6110           0  -1.79700      0.410000    
      4232 MEMB     24       POPE     DC3      DRUD     -2.32630      0.400000           0   0.00000       0.00000    
      4233 MEMB     24       POPE     HX       HDA2A    0.116000       1.00800           0   0.00000       0.00000    
      4234 MEMB     24       POPE     HY       HDA2A    0.116000       1.00800           0   0.00000       0.00000    
      4235 MEMB     24       POPE     O31      OD30CL    1.48470       15.5994           0 -0.732000      0.601000    
      4236 MEMB     24       POPE     DO31     DRUD     -1.48470      0.400000           0   0.00000       0.00000    
      4237 MEMB     24       POPE     C31      CD2O3B    2.72820       11.6110           0  -1.37000       1.74700    
      4238 MEMB     24       POPE     DC31     DRUD     -2.03120      0.400000           0   0.00000       0.00000    
      4239 MEMB     24       POPE     O32      OD2C3B    1.64990       15.5994           0 -0.904000      0.565000    
      4240 MEMB     24       POPE     DO32     DRUD     -1.64990      0.400000           0   0.00000       0.00000    
      4241 MEMB     24       POPE     C32      CD32C     2.24380       11.6110           0  -1.99300      0.410000    
      4242 MEMB     24       POPE     DC32     DRUD     -2.44980      0.400000           0   0.00000       0.00000    
      4243 MEMB     24       POPE     H2X      HDA2A    0.690000E-01   1.00800           0   0.00000       0.00000    
      4244 MEMB     24       POPE     H2Y      HDA2A    0.690000E-01   1.00800           0   0.00000       0.00000    
      4245 MEMB     24       POPE     LP1C     LPD     -0.349000       0.00000          -1   0.00000       0.00000    
      4246 MEMB     24       POPE     LP1D     LPD     -0.258000       0.00000          -1   0.00000       0.00000    
      4247 MEMB     24       POPE     LPMC     LPD     -0.170000       0.00000          -1   0.00000       0.00000    
      4248 MEMB     24       POPE     LPMD     LPD     -0.170000       0.00000          -1   0.00000       0.00000    
      4249 MEMB     24       POPE     C23      CD32A     2.07980       11.6110           0  -1.66000       1.30000    
      4250 MEMB     24       POPE     DC23     DRUD     -2.23580      0.400000           0   0.00000       0.00000    
      4251 MEMB     24       POPE     H3R      HDA2A    0.780000E-01   1.00800           0   0.00000       0.00000    
      4252 MEMB     24       POPE     H3S      HDA2A    0.780000E-01   1.00800           0   0.00000       0.00000    
      4253 MEMB     24       POPE     C24      CD32A     2.07980       11.6110           0  -1.66000       1.30000    
      4254 MEMB     24       POPE     DC24     DRUD     -2.23580      0.400000           0   0.00000       0.00000    
      4255 MEMB     24       POPE     H4R      HDA2A    0.780000E-01   1.00800           0   0.00000       0.00000    
      4256 MEMB     24       POPE     H4S      HDA2A    0.780000E-01   1.00800           0   0.00000       0.00000    
      4257 MEMB     24       POPE     C25      CD32A     2.07980       11.6110           0  -1.66000       1.30000    
      4258 MEMB     24       POPE     DC25     DRUD     -2.23580      0.400000           0   0.00000       0.00000    
      4259 MEMB     24       POPE     H5R      HDA2A    0.780000E-01   1.00800           0   0.00000       0.00000    
      4260 MEMB     24       POPE     H5S      HDA2A    0.780000E-01   1.00800           0   0.00000       0.00000    
      4261 MEMB     24       POPE     C26      CD32A     2.07980       11.6110           0  -1.66000       1.30000    
      4262 MEMB     24       POPE     DC26     DRUD     -2.23580      0.400000           0   0.00000       0.00000    
      4263 MEMB     24       POPE     H6R      HDA2A    0.780000E-01   1.00800           0   0.00000       0.00000    
      4264 MEMB     24       POPE     H6S      HDA2A    0.780000E-01   1.00800           0   0.00000       0.00000    
      4265 MEMB     24       POPE     C27      CD32A     2.07980       11.6110           0  -1.66000       1.30000    
      4266 MEMB     24       POPE     DC27     DRUD     -2.23580      0.400000           0   0.00000       0.00000    
      4267 MEMB     24       POPE     H7R      HDA2A    0.780000E-01   1.00800           0   0.00000       0.00000    
      4268 MEMB     24       POPE     H7S      HDA2A    0.780000E-01   1.00800           0   0.00000       0.00000    
      4269 MEMB     24       POPE     C28      CD32A     2.07980       11.6110           0  -1.66000       1.30000    
      4270 MEMB     24       POPE     DC28     DRUD     -2.23580      0.400000           0   0.00000       0.00000    
      4271 MEMB     24       POPE     H8R      HDA2A    0.780000E-01   1.00800           0   0.00000       0.00000    
      4272 MEMB     24       POPE     H8S      HDA2A    0.780000E-01   1.00800           0   0.00000       0.00000    
      4273 MEMB     24       POPE     C29      CD2C1A    2.33700       11.6110           0  -1.99000      0.750000    
      4274 MEMB     24       POPE     DC29     DRUD     -2.44800      0.400000           0   0.00000       0.00000    
      4275 MEMB     24       POPE     H91      HD2C1A   0.111000       1.00800           0   0.00000       0.00000    
      4276 MEMB     24       POPE     C210     CD2C1A    2.33700       11.6110           0  -1.99000      0.750000    
      4277 MEMB     24       POPE     DC210    DRUD     -2.44800      0.400000           0   0.00000       0.00000    
      4278 MEMB     24       POPE     H101     HD2C1A   0.111000       1.00800           0   0.00000       0.00000    
      4279 MEMB     24       POPE     C211     CD32A     2.07980       11.6110           0  -1.66000       1.30000    
      4280 MEMB     24       POPE     DC211    DRUD     -2.23580      0.400000           0   0.00000       0.00000    
      4281 MEMB     24       POPE     H11R     HDA2A    0.780000E-01   1.00800           0   0.00000       0.00000    
      4282 MEMB     24       POPE     H11S     HDA2A    0.780000E-01   1.00800           0   0.00000       0.00000    
      4283 MEMB     24       POPE     C212     CD32A     2.07980       11.6110           0  -1.66000       1.30000    
      4284 MEMB     24       POPE     DC212    DRUD     -2.23580      0.400000           0   0.00000       0.00000    
      4285 MEMB     24       POPE     H12R     HDA2A    0.780000E-01   1.00800           0   0.00000       0.00000    
      4286 MEMB     24       POPE     H12S     HDA2A    0.780000E-01   1.00800           0   0.00000       0.00000    
      4287 MEMB     24       POPE     C213     CD32A     2.07980       11.6110           0  -1.66000       1.30000    
      4288 MEMB     24       POPE     DC213    DRUD     -2.23580      0.400000           0   0.00000       0.00000    
      4289 MEMB     24       POPE     H13R     HDA2A    0.780000E-01   1.00800           0   0.00000       0.00000    
      4290 MEMB     24       POPE     H13S     HDA2A    0.780000E-01   1.00800           0   0.00000       0.00000    
      4291 MEMB     24       POPE     C214     CD32A     2.07980       11.6110           0  -1.66000       1.30000    
      4292 MEMB     24       POPE     DC214    DRUD     -2.23580      0.400000           0   0.00000       0.00000    
      4293 MEMB     24       POPE     H14R     HDA2A    0.780000E-01   1.00800           0   0.00000       0.00000    
      4294 MEMB     24       POPE     H14S     HDA2A    0.780000E-01   1.00800           0   0.00000       0.00000    
      4295 MEMB     24       POPE     C215     CD32A     2.07980       11.6110           0  -1.66000       1.30000    
      4296 MEMB     24       POPE     DC215    DRUD     -2.23580      0.400000           0   0.00000       0.00000    
      4297 MEMB     24       POPE     H15R     HDA2A    0.780000E-01   1.00800           0   0.00000       0.00000    
      4298 MEMB     24       POPE     H15S     HDA2A    0.780000E-01   1.00800           0   0.00000       0.00000    
      4299 MEMB     24       POPE     C216     CD32A     2.07980       11.6110           0  -1.66000       1.30000    
      4300 MEMB     24       POPE     DC216    DRUD     -2.23580      0.400000           0   0.00000       0.00000    
      4301 MEMB     24       POPE     H16R     HDA2A    0.780000E-01   1.00800           0   0.00000       0.00000    
      4302 MEMB     24       POPE     H16S     HDA2A    0.780000E-01   1.00800           0   0.00000       0.00000    
      4303 MEMB     24       POPE     C217     CD32A     2.07980       11.6110           0  -1.66000       1.30000    
      4304 MEMB     24       POPE     DC217    DRUD     -2.23580      0.400000           0   0.00000       0.00000    
      4305 MEMB     24       POPE     H17R     HDA2A    0.780000E-01   1.00800           0   0.00000       0.00000    
      4306 MEMB     24       POPE     H17S     HDA2A    0.780000E-01   1.00800           0   0.00000       0.00000    
      4307 MEMB     24       POPE     C218     CD33A     2.30820       11.6110           0  -2.05100       1.30000    
      4308 MEMB     24       POPE     DC218    DRUD     -2.48520      0.400000           0   0.00000       0.00000    
      4309 MEMB     24       POPE     H18R     HDA3A    0.590000E-01   1.00800           0   0.00000       0.00000    
      4310 MEMB     24       POPE     H18S     HDA3A    0.590000E-01   1.00800           0   0.00000       0.00000    
      4311 MEMB     24       POPE     H18T     HDA3A    0.590000E-01   1.00800           0   0.00000       0.00000    
      4312 MEMB     24       POPE     C33      CD32A     2.07980       11.6110           0  -1.66000       1.30000    
      4313 MEMB     24       POPE     DC33     DRUD     -2.23580      0.400000           0   0.00000       0.00000    
      4314 MEMB     24       POPE     H3X      HDA2A    0.780000E-01   1.00800           0   0.00000       0.00000    
      4315 MEMB     24       POPE     H3Y      HDA2A    0.780000E-01   1.00800           0   0.00000       0.00000    
      4316 MEMB     24       POPE     C34      CD32A     2.07980       11.6110           0  -1.66000       1.30000    
      4317 MEMB     24       POPE     DC34     DRUD     -2.23580      0.400000           0   0.00000       0.00000    
      4318 MEMB     24       POPE     H4X      HDA2A    0.780000E-01   1.00800           0   0.00000       0.00000    
      4319 MEMB     24       POPE     H4Y      HDA2A    0.780000E-01   1.00800           0   0.00000       0.00000    
      4320 MEMB     24       POPE     C35      CD32A     2.07980       11.6110           0  -1.66000       1.30000    
      4321 MEMB     24       POPE     DC35     DRUD     -2.23580      0.400000           0   0.00000       0.00000    
      4322 MEMB     24       POPE     H5X      HDA2A    0.780000E-01   1.00800           0   0.00000       0.00000    
      4323 MEMB     24       POPE     H5Y      HDA2A    0.780000E-01   1.00800           0   0.00000       0.00000    
      4324 MEMB     24       POPE     C36      CD32A     2.07980       11.6110           0  -1.66000       1.30000    
      4325 MEMB     24       POPE     DC36     DRUD     -2.23580      0.400000           0   0.00000       0.00000    
      4326 MEMB     24       POPE     H6X      HDA2A    0.780000E-01   1.00800           0   0.00000       0.00000    
      4327 MEMB     24       POPE     H6Y      HDA2A    0.780000E-01   1.00800           0   0.00000       0.00000    
      4328 MEMB     24       POPE     C37      CD32A     2.07980       11.6110           0  -1.66000       1.30000    
      4329 MEMB     24       POPE     DC37     DRUD     -2.23580      0.400000           0   0.00000       0.00000    
      4330 MEMB     24       POPE     H7X      HDA2A    0.780000E-01   1.00800           0   0.00000       0.00000    
      4331 MEMB     24       POPE     H7Y      HDA2A    0.780000E-01   1.00800           0   0.00000       0.00000    
      4332 MEMB     24       POPE     C38      CD32A     2.07980       11.6110           0  -1.66000       1.30000    
      4333 MEMB     24       POPE     DC38     DRUD     -2.23580      0.400000           0   0.00000       0.00000    
      4334 MEMB     24       POPE     H8X      HDA2A    0.780000E-01   1.00800           0   0.00000       0.00000    
      4335 MEMB     24       POPE     H8Y      HDA2A    0.780000E-01   1.00800           0   0.00000       0.00000    
      4336 MEMB     24       POPE     C39      CD32A     2.07980       11.6110           0  -1.66000       1.30000    
      4337 MEMB     24       POPE     DC39     DRUD     -2.23580      0.400000           0   0.00000       0.00000    
      4338 MEMB     24       POPE     H9X      HDA2A    0.780000E-01   1.00800           0   0.00000       0.00000    
      4339 MEMB     24       POPE     H9Y      HDA2A    0.780000E-01   1.00800           0   0.00000       0.00000    
      4340 MEMB     24       POPE     C310     CD32A     2.07980       11.6110           0  -1.66000       1.30000    
      4341 MEMB     24       POPE     DC310    DRUD     -2.23580      0.400000           0   0.00000       0.00000    
      4342 MEMB     24       POPE     H10X     HDA2A    0.780000E-01   1.00800           0   0.00000       0.00000    
      4343 MEMB     24       POPE     H10Y     HDA2A    0.780000E-01   1.00800           0   0.00000       0.00000    
      4344 MEMB     24       POPE     C311     CD32A     2.07980       11.6110           0  -1.66000       1.30000    
      4345 MEMB     24       POPE     DC311    DRUD     -2.23580      0.400000           0   0.00000       0.00000    
      4346 MEMB     24       POPE     H11X     HDA2A    0.780000E-01   1.00800           0   0.00000       0.00000    
      4347 MEMB     24       POPE     H11Y     HDA2A    0.780000E-01   1.00800           0   0.00000       0.00000    
      4348 MEMB     24       POPE     C312     CD32A     2.07980       11.6110           0  -1.66000       1.30000    
      4349 MEMB     24       POPE     DC312    DRUD     -2.23580      0.400000           0   0.00000       0.00000    
      4350 MEMB     24       POPE     H12X     HDA2A    0.780000E-01   1.00800           0   0.00000       0.00000    
      4351 MEMB     24       POPE     H12Y     HDA2A    0.780000E-01   1.00800           0   0.00000       0.00000    
      4352 MEMB     24       POPE     C313     CD32A     2.07980       11.6110           0  -1.66000       1.30000    
      4353 MEMB     24       POPE     DC313    DRUD     -2.23580      0.400000           0   0.00000       0.00000    
      4354 MEMB     24       POPE     H13X     HDA2A    0.780000E-01   1.00800           0   0.00000       0.00000    
      4355 MEMB     24       POPE     H13Y     HDA2A    0.780000E-01   1.00800           0   0.00000       0.00000    
      4356 MEMB     24       POPE     C314     CD32A     2.07980       11.6110           0  -1.66000       1.30000    
      4357 MEMB     24       POPE     DC314    DRUD     -2.23580      0.400000           0   0.00000       0.00000    
      4358 MEMB     24       POPE     H14X     HDA2A    0.780000E-01   1.00800           0   0.00000       0.00000    
      4359 MEMB     24       POPE     H14Y     HDA2A    0.780000E-01   1.00800           0   0.00000       0.00000    
      4360 MEMB     24       POPE     C315     CD32A     2.07980       11.6110           0  -1.66000       1.30000    
      4361 MEMB     24       POPE     DC315    DRUD     -2.23580      0.400000           0   0.00000       0.00000    
      4362 MEMB     24       POPE     H15X     HDA2A    0.780000E-01   1.00800           0   0.00000       0.00000    
      4363 MEMB     24       POPE     H15Y     HDA2A    0.780000E-01   1.00800           0   0.00000       0.00000    
      4364 MEMB     24       POPE     C316     CD33A     2.30820       11.6110           0  -2.05100       1.30000    
      4365 MEMB     24       POPE     DC316    DRUD     -2.48520      0.400000           0   0.00000       0.00000    
      4366 MEMB     24       POPE     H16X     HDA3A    0.590000E-01   1.00800           0   0.00000       0.00000    
      4367 MEMB     24       POPE     H16Y     HDA3A    0.590000E-01   1.00800           0   0.00000       0.00000    
      4368 MEMB     24       POPE     H16Z     HDA3A    0.590000E-01   1.00800           0   0.00000       0.00000    
      4369 MEMB     25       POPE     N        ND3P3A    1.62810       13.6070           0  -1.29800      0.895000    
      4370 MEMB     25       POPE     DN       DRUD     -1.97710      0.400000           0   0.00000       0.00000    
      4371 MEMB     25       POPE     HN1      HDP1B    0.340000       1.00800           0   0.00000       0.00000    
      4372 MEMB     25       POPE     HN2      HDP1B    0.340000       1.00800           0   0.00000       0.00000    
      4373 MEMB     25       POPE     HN3      HDP1B    0.340000       1.00800           0   0.00000       0.00000    
      4374 MEMB     25       POPE     C12      CD32A     2.27610       11.6110           0  -1.65600      0.895000    
      4375 MEMB     25       POPE     DC12     DRUD     -2.23310      0.400000           0   0.00000       0.00000    
      4376 MEMB     25       POPE     H12A     HDA2A    0.143000       1.00800           0   0.00000       0.00000    
      4377 MEMB     25       POPE     H12B     HDA2A    0.143000       1.00800           0   0.00000       0.00000    
      4378 MEMB     25       POPE     C11      CD32A     2.42220       11.6110           0  -1.64200      0.862000    
      4379 MEMB     25       POPE     DC11     DRUD     -2.22370      0.400000           0   0.00000       0.00000    
      4380 MEMB     25       POPE     H11A     HDA2A    0.260000E-01   1.00800           0   0.00000       0.00000    
      4381 MEMB     25       POPE     H11B     HDA2A    0.260000E-01   1.00800           0   0.00000       0.00000    
      4382 MEMB     25       POPE     P        PD1A      2.90360       30.5740           0 -0.974000       2.09800    
      4383 MEMB     25       POPE     DP       DRUD     -1.71260      0.400000           0   0.00000       0.00000    
      4384 MEMB     25       POPE     O13      OD2C2B   0.798400       15.5994           0 -0.931000       1.08300    
      4385 MEMB     25       POPE     DO13     DRUD     -1.67440      0.400000           0   0.00000       0.00000    
      4386 MEMB     25       POPE     O14      OD2C2B   0.798400       15.5994           0 -0.931000       1.08300    
      4387 MEMB     25       POPE     DO14     DRUD     -1.67440      0.400000           0   0.00000       0.00000    
      4388 MEMB     25       POPE     O11      OD30B     1.17720       15.5994           0 -0.901000      0.181000    
      4389 MEMB     25       POPE     DO11     DRUD     -1.64720      0.400000           0   0.00000       0.00000    
      4390 MEMB     25       POPE     O12      OD30B     1.17720       15.5994           0 -0.901000      0.181000    
      4391 MEMB     25       POPE     DO12     DRUD     -1.64720      0.400000           0   0.00000       0.00000    
      4392 MEMB     25       POPE     C1       CD32A     2.42220       11.6110           0  -1.64200      0.862000    
      4393 MEMB     25       POPE     DC1      DRUD     -2.22370      0.400000           0   0.00000       0.00000    
      4394 MEMB     25       POPE     HA       HDA2A    0.260000E-01   1.00800           0   0.00000       0.00000    
      4395 MEMB     25       POPE     HB       HDA2A    0.260000E-01   1.00800           0   0.00000       0.00000    
      4396 MEMB     25       POPE     C2       CD31C     2.52830       11.6110           0  -1.79700      0.410000    
      4397 MEMB     25       POPE     DC2      DRUD     -2.32630      0.400000           0   0.00000       0.00000    
      4398 MEMB     25       POPE     HS       HDA1A    0.116000       1.00800           0   0.00000       0.00000    
      4399 MEMB     25       POPE     O21      OD30CL    1.48470       15.5994           0 -0.732000      0.601000    
      4400 MEMB     25       POPE     DO21     DRUD     -1.48470      0.400000           0   0.00000       0.00000    
      4401 MEMB     25       POPE     C21      CD2O3B    2.72820       11.6110           0  -1.37000       1.74700    
      4402 MEMB     25       POPE     DC21     DRUD     -2.03120      0.400000           0   0.00000       0.00000    
      4403 MEMB     25       POPE     O22      OD2C3B    1.64990       15.5994           0 -0.904000      0.565000    
      4404 MEMB     25       POPE     DO22     DRUD     -1.64990      0.400000           0   0.00000       0.00000    
      4405 MEMB     25       POPE     C22      CD32C     2.24380       11.6110           0  -1.99300      0.410000    
      4406 MEMB     25       POPE     DC22     DRUD     -2.44980      0.400000           0   0.00000       0.00000    
      4407 MEMB     25       POPE     H2R      HDA2A    0.690000E-01   1.00800           0   0.00000       0.00000    
      4408 MEMB     25       POPE     H2S      HDA2A    0.690000E-01   1.00800           0   0.00000       0.00000    
      4409 MEMB     25       POPE     LP1A     LPD     -0.349000       0.00000          -1   0.00000       0.00000    
      4410 MEMB     25       POPE     LP1B     LPD     -0.258000       0.00000          -1   0.00000       0.00000    
      4411 MEMB     25       POPE     LPMA     LPD     -0.170000       0.00000          -1   0.00000       0.00000    
      4412 MEMB     25       POPE     LPMB     LPD     -0.170000       0.00000          -1   0.00000       0.00000    
      4413 MEMB     25       POPE     C3       CD32C     2.41230       11.6110           0  -1.79700      0.410000    
      4414 MEMB     25       POPE     DC3      DRUD     -2.32630      0.400000           0   0.00000       0.00000    
      4415 MEMB     25       POPE     HX       HDA2A    0.116000       1.00800           0   0.00000       0.00000    
      4416 MEMB     25       POPE     HY       HDA2A    0.116000       1.00800           0   0.00000       0.00000    
      4417 MEMB     25       POPE     O31      OD30CL    1.48470       15.5994           0 -0.732000      0.601000    
      4418 MEMB     25       POPE     DO31     DRUD     -1.48470      0.400000           0   0.00000       0.00000    
      4419 MEMB     25       POPE     C31      CD2O3B    2.72820       11.6110           0  -1.37000       1.74700    
      4420 MEMB     25       POPE     DC31     DRUD     -2.03120      0.400000           0   0.00000       0.00000    
      4421 MEMB     25       POPE     O32      OD2C3B    1.64990       15.5994           0 -0.904000      0.565000    
      4422 MEMB     25       POPE     DO32     DRUD     -1.64990      0.400000           0   0.00000       0.00000    
      4423 MEMB     25       POPE     C32      CD32C     2.24380       11.6110           0  -1.99300      0.410000    
      4424 MEMB     25       POPE     DC32     DRUD     -2.44980      0.400000           0   0.00000       0.00000    
      4425 MEMB     25       POPE     H2X      HDA2A    0.690000E-01   1.00800           0   0.00000       0.00000    
      4426 MEMB     25       POPE     H2Y      HDA2A    0.690000E-01   1.00800           0   0.00000       0.00000    
      4427 MEMB     25       POPE     LP1C     LPD     -0.349000       0.00000          -1   0.00000       0.00000    
      4428 MEMB     25       POPE     LP1D     LPD     -0.258000       0.00000          -1   0.00000       0.00000    
      4429 MEMB     25       POPE     LPMC     LPD     -0.170000       0.00000          -1   0.00000       0.00000    
      4430 MEMB     25       POPE     LPMD     LPD     -0.170000       0.00000          -1   0.00000       0.00000    
      4431 MEMB     25       POPE     C23      CD32A     2.07980       11.6110           0  -1.66000       1.30000    
      4432 MEMB     25       POPE     DC23     DRUD     -2.23580      0.400000           0   0.00000       0.00000    
      4433 MEMB     25       POPE     H3R      HDA2A    0.780000E-01   1.00800           0   0.00000       0.00000    
      4434 MEMB     25       POPE     H3S      HDA2A    0.780000E-01   1.00800           0   0.00000       0.00000    
      4435 MEMB     25       POPE     C24      CD32A     2.07980       11.6110           0  -1.66000       1.30000    
      4436 MEMB     25       POPE     DC24     DRUD     -2.23580      0.400000           0   0.00000       0.00000    
      4437 MEMB     25       POPE     H4R      HDA2A    0.780000E-01   1.00800           0   0.00000       0.00000    
      4438 MEMB     25       POPE     H4S      HDA2A    0.780000E-01   1.00800           0   0.00000       0.00000    
      4439 MEMB     25       POPE     C25      CD32A     2.07980       11.6110           0  -1.66000       1.30000    
      4440 MEMB     25       POPE     DC25     DRUD     -2.23580      0.400000           0   0.00000       0.00000    
      4441 MEMB     25       POPE     H5R      HDA2A    0.780000E-01   1.00800           0   0.00000       0.00000    
      4442 MEMB     25       POPE     H5S      HDA2A    0.780000E-01   1.00800           0   0.00000       0.00000    
      4443 MEMB     25       POPE     C26      CD32A     2.07980       11.6110           0  -1.66000       1.30000    
      4444 MEMB     25       POPE     DC26     DRUD     -2.23580      0.400000           0   0.00000       0.00000    
      4445 MEMB     25       POPE     H6R      HDA2A    0.780000E-01   1.00800           0   0.00000       0.00000    
      4446 MEMB     25       POPE     H6S      HDA2A    0.780000E-01   1.00800           0   0.00000       0.00000    
      4447 MEMB     25       POPE     C27      CD32A     2.07980       11.6110           0  -1.66000       1.30000    
      4448 MEMB     25       POPE     DC27     DRUD     -2.23580      0.400000           0   0.00000       0.00000    
      4449 MEMB     25       POPE     H7R      HDA2A    0.780000E-01   1.00800           0   0.00000       0.00000    
      4450 MEMB     25       POPE     H7S      HDA2A    0.780000E-01   1.00800           0   0.00000       0.00000    
      4451 MEMB     25       POPE     C28      CD32A     2.07980       11.6110           0  -1.66000       1.30000    
      4452 MEMB     25       POPE     DC28     DRUD     -2.23580      0.400000           0   0.00000       0.00000    
      4453 MEMB     25       POPE     H8R      HDA2A    0.780000E-01   1.00800           0   0.00000       0.00000    
      4454 MEMB     25       POPE     H8S      HDA2A    0.780000E-01   1.00800           0   0.00000       0.00000    
      4455 MEMB     25       POPE     C29      CD2C1A    2.33700       11.6110           0  -1.99000      0.750000    
      4456 MEMB     25       POPE     DC29     DRUD     -2.44800      0.400000           0   0.00000       0.00000    
      4457 MEMB     25       POPE     H91      HD2C1A   0.111000       1.00800           0   0.00000       0.00000    
      4458 MEMB     25       POPE     C210     CD2C1A    2.33700       11.6110           0  -1.99000      0.750000    
      4459 MEMB     25       POPE     DC210    DRUD     -2.44800      0.400000           0   0.00000       0.00000    
      4460 MEMB     25       POPE     H101     HD2C1A   0.111000       1.00800           0   0.00000       0.00000    
      4461 MEMB     25       POPE     C211     CD32A     2.07980       11.6110           0  -1.66000       1.30000    
      4462 MEMB     25       POPE     DC211    DRUD     -2.23580      0.400000           0   0.00000       0.00000    
      4463 MEMB     25       POPE     H11R     HDA2A    0.780000E-01   1.00800           0   0.00000       0.00000    
      4464 MEMB     25       POPE     H11S     HDA2A    0.780000E-01   1.00800           0   0.00000       0.00000    
      4465 MEMB     25       POPE     C212     CD32A     2.07980       11.6110           0  -1.66000       1.30000    
      4466 MEMB     25       POPE     DC212    DRUD     -2.23580      0.400000           0   0.00000       0.00000    
      4467 MEMB     25       POPE     H12R     HDA2A    0.780000E-01   1.00800           0   0.00000       0.00000    
      4468 MEMB     25       POPE     H12S     HDA2A    0.780000E-01   1.00800           0   0.00000       0.00000    
      4469 MEMB     25       POPE     C213     CD32A     2.07980       11.6110           0  -1.66000       1.30000    
      4470 MEMB     25       POPE     DC213    DRUD     -2.23580      0.400000           0   0.00000       0.00000    
      4471 MEMB     25       POPE     H13R     HDA2A    0.780000E-01   1.00800           0   0.00000       0.00000    
      4472 MEMB     25       POPE     H13S     HDA2A    0.780000E-01   1.00800           0   0.00000       0.00000    
      4473 MEMB     25       POPE     C214     CD32A     2.07980       11.6110           0  -1.66000       1.30000    
      4474 MEMB     25       POPE     DC214    DRUD     -2.23580      0.400000           0   0.00000       0.00000    
      4475 MEMB     25       POPE     H14R     HDA2A    0.780000E-01   1.00800           0   0.00000       0.00000    
      4476 MEMB     25       POPE     H14S     HDA2A    0.780000E-01   1.00800           0   0.00000       0.00000    
      4477 MEMB     25       POPE     C215     CD32A     2.07980       11.6110           0  -1.66000       1.30000    
      4478 MEMB     25       POPE     DC215    DRUD     -2.23580      0.400000           0   0.00000       0.00000    
      4479 MEMB     25       POPE     H15R     HDA2A    0.780000E-01   1.00800           0   0.00000       0.00000    
      4480 MEMB     25       POPE     H15S     HDA2A    0.780000E-01   1.00800           0   0.00000       0.00000    
      4481 MEMB     25       POPE     C216     CD32A     2.07980       11.6110           0  -1.66000       1.30000    
      4482 MEMB     25       POPE     DC216    DRUD     -2.23580      0.400000           0   0.00000       0.00000    
      4483 MEMB     25       POPE     H16R     HDA2A    0.780000E-01   1.00800           0   0.00000       0.00000    
      4484 MEMB     25       POPE     H16S     HDA2A    0.780000E-01   1.00800           0   0.00000       0.00000    
      4485 MEMB     25       POPE     C217     CD32A     2.07980       11.6110           0  -1.66000       1.30000    
      4486 MEMB     25       POPE     DC217    DRUD     -2.23580      0.400000           0   0.00000       0.00000    
      4487 MEMB     25       POPE     H17R     HDA2A    0.780000E-01   1.00800           0   0.00000       0.00000    
      4488 MEMB     25       POPE     H17S     HDA2A    0.780000E-01   1.00800           0   0.00000       0.00000    
      4489 MEMB     25       POPE     C218     CD33A     2.30820       11.6110           0  -2.05100       1.30000    
      4490 MEMB     25       POPE     DC218    DRUD     -2.48520      0.400000           0   0.00000       0.00000    
      4491 MEMB     25       POPE     H18R     HDA3A    0.590000E-01   1.00800           0   0.00000       0.00000    
      4492 MEMB     25       POPE     H18S     HDA3A    0.590000E-01   1.00800           0   0.00000       0.00000    
      4493 MEMB     25       POPE     H18T     HDA3A    0.590000E-01   1.00800           0   0.00000       0.00000    
      4494 MEMB     25       POPE     C33      CD32A     2.07980       11.6110           0  -1.66000       1.30000    
      4495 MEMB     25       POPE     DC33     DRUD     -2.23580      0.400000           0   0.00000       0.00000    
      4496 MEMB     25       POPE     H3X      HDA2A    0.780000E-01   1.00800           0   0.00000       0.00000    
      4497 MEMB     25       POPE     H3Y      HDA2A    0.780000E-01   1.00800           0   0.00000       0.00000    
      4498 MEMB     25       POPE     C34      CD32A     2.07980       11.6110           0  -1.66000       1.30000    
      4499 MEMB     25       POPE     DC34     DRUD     -2.23580      0.400000           0   0.00000       0.00000    
      4500 MEMB     25       POPE     H4X      HDA2A    0.780000E-01   1.00800           0   0.00000       0.00000    
      4501 MEMB     25       POPE     H4Y      HDA2A    0.780000E-01   1.00800           0   0.00000       0.00000    
      4502 MEMB     25       POPE     C35      CD32A     2.07980       11.6110           0  -1.66000       1.30000    
      4503 MEMB     25       POPE     DC35     DRUD     -2.23580      0.400000           0   0.00000       0.00000    
      4504 MEMB     25       POPE     H5X      HDA2A    0.780000E-01   1.00800           0   0.00000       0.00000    
      4505 MEMB     25       POPE     H5Y      HDA2A    0.780000E-01   1.00800           0   0.00000       0.00000    
      4506 MEMB     25       POPE     C36      CD32A     2.07980       11.6110           0  -1.66000       1.30000    
      4507 MEMB     25       POPE     DC36     DRUD     -2.23580      0.400000           0   0.00000       0.00000    
      4508 MEMB     25       POPE     H6X      HDA2A    0.780000E-01   1.00800           0   0.00000       0.00000    
      4509 MEMB     25       POPE     H6Y      HDA2A    0.780000E-01   1.00800           0   0.00000       0.00000    
      4510 MEMB     25       POPE     C37      CD32A     2.07980       11.6110           0  -1.66000       1.30000    
      4511 MEMB     25       POPE     DC37     DRUD     -2.23580      0.400000           0   0.00000       0.00000    
      4512 MEMB     25       POPE     H7X      HDA2A    0.780000E-01   1.00800           0   0.00000       0.00000    
      4513 MEMB     25       POPE     H7Y      HDA2A    0.780000E-01   1.00800           0   0.00000       0.00000    
      4514 MEMB     25       POPE     C38      CD32A     2.07980       11.6110           0  -1.66000       1.30000    
      4515 MEMB     25       POPE     DC38     DRUD     -2.23580      0.400000           0   0.00000       0.00000    
      4516 MEMB     25       POPE     H8X      HDA2A    0.780000E-01   1.00800           0   0.00000       0.00000    
      4517 MEMB     25       POPE     H8Y      HDA2A    0.780000E-01   1.00800           0   0.00000       0.00000    
      4518 MEMB     25       POPE     C39      CD32A     2.07980       11.6110           0  -1.66000       1.30000    
      4519 MEMB     25       POPE     DC39     DRUD     -2.23580      0.400000           0   0.00000       0.00000    
      4520 MEMB     25       POPE     H9X      HDA2A    0.780000E-01   1.00800           0   0.00000       0.00000    
      4521 MEMB     25       POPE     H9Y      HDA2A    0.780000E-01   1.00800           0   0.00000       0.00000    
      4522 MEMB     25       POPE     C310     CD32A     2.07980       11.6110           0  -1.66000       1.30000    
      4523 MEMB     25       POPE     DC310    DRUD     -2.23580      0.400000           0   0.00000       0.00000    
      4524 MEMB     25       POPE     H10X     HDA2A    0.780000E-01   1.00800           0   0.00000       0.00000    
      4525 MEMB     25       POPE     H10Y     HDA2A    0.780000E-01   1.00800           0   0.00000       0.00000    
      4526 MEMB     25       POPE     C311     CD32A     2.07980       11.6110           0  -1.66000       1.30000    
      4527 MEMB     25       POPE     DC311    DRUD     -2.23580      0.400000           0   0.00000       0.00000    
      4528 MEMB     25       POPE     H11X     HDA2A    0.780000E-01   1.00800           0   0.00000       0.00000    
      4529 MEMB     25       POPE     H11Y     HDA2A    0.780000E-01   1.00800           0   0.00000       0.00000    
      4530 MEMB     25       POPE     C312     CD32A     2.07980       11.6110           0  -1.66000       1.30000    
      4531 MEMB     25       POPE     DC312    DRUD     -2.23580      0.400000           0   0.00000       0.00000    
      4532 MEMB     25       POPE     H12X     HDA2A    0.780000E-01   1.00800           0   0.00000       0.00000    
      4533 MEMB     25       POPE     H12Y     HDA2A    0.780000E-01   1.00800           0   0.00000       0.00000    
      4534 MEMB     25       POPE     C313     CD32A     2.07980       11.6110           0  -1.66000       1.30000    
      4535 MEMB     25       POPE     DC313    DRUD     -2.23580      0.400000           0   0.00000       0.00000    
      4536 MEMB     25       POPE     H13X     HDA2A    0.780000E-01   1.00800           0   0.00000       0.00000    
      4537 MEMB     25       POPE     H13Y     HDA2A    0.780000E-01   1.00800           0   0.00000       0.00000    
      4538 MEMB     25       POPE     C314     CD32A     2.07980       11.6110           0  -1.66000       1.30000    
      4539 MEMB     25       POPE     DC314    DRUD     -2.23580      0.400000           0   0.00000       0.00000    
      4540 MEMB     25       POPE     H14X     HDA2A    0.780000E-01   1.00800           0   0.00000       0.00000    
      4541 MEMB     25       POPE     H14Y     HDA2A    0.780000E-01   1.00800           0   0.00000       0.00000    
      4542 MEMB     25       POPE     C315     CD32A     2.07980       11.6110           0  -1.66000       1.30000    
      4543 MEMB     25       POPE     DC315    DRUD     -2.23580      0.400000           0   0.00000       0.00000    
      4544 MEMB     25       POPE     H15X     HDA2A    0.780000E-01   1.00800           0   0.00000       0.00000    
      4545 MEMB     25       POPE     H15Y     HDA2A    0.780000E-01   1.00800           0   0.00000       0.00000    
      4546 MEMB     25       POPE     C316     CD33A     2.30820       11.6110           0  -2.05100       1.30000    
      4547 MEMB     25       POPE     DC316    DRUD     -2.48520      0.400000           0   0.00000       0.00000    
      4548 MEMB     25       POPE     H16X     HDA3A    0.590000E-01   1.00800           0   0.00000       0.00000    
      4549 MEMB     25       POPE     H16Y     HDA3A    0.590000E-01   1.00800           0   0.00000       0.00000    
      4550 MEMB     25       POPE     H16Z     HDA3A    0.590000E-01   1.00800           0   0.00000       0.00000    
      4551 MEMB     26       POPE     N        ND3P3A    1.62810       13.6070           0  -1.29800      0.895000    
      4552 MEMB     26       POPE     DN       DRUD     -1.97710      0.400000           0   0.00000       0.00000    
      4553 MEMB     26       POPE     HN1      HDP1B    0.340000       1.00800           0   0.00000       0.00000    
      4554 MEMB     26       POPE     HN2      HDP1B    0.340000       1.00800           0   0.00000       0.00000    
      4555 MEMB     26       POPE     HN3      HDP1B    0.340000       1.00800           0   0.00000       0.00000    
      4556 MEMB     26       POPE     C12      CD32A     2.27610       11.6110           0  -1.65600      0.895000    
      4557 MEMB     26       POPE     DC12     DRUD     -2.23310      0.400000           0   0.00000       0.00000    
      4558 MEMB     26       POPE     H12A     HDA2A    0.143000       1.00800           0   0.00000       0.00000    
      4559 MEMB     26       POPE     H12B     HDA2A    0.143000       1.00800           0   0.00000       0.00000    
      4560 MEMB     26       POPE     C11      CD32A     2.42220       11.6110           0  -1.64200      0.862000    
      4561 MEMB     26       POPE     DC11     DRUD     -2.22370      0.400000           0   0.00000       0.00000    
      4562 MEMB     26       POPE     H11A     HDA2A    0.260000E-01   1.00800           0   0.00000       0.00000    
      4563 MEMB     26       POPE     H11B     HDA2A    0.260000E-01   1.00800           0   0.00000       0.00000    
      4564 MEMB     26       POPE     P        PD1A      2.90360       30.5740           0 -0.974000       2.09800    
      4565 MEMB     26       POPE     DP       DRUD     -1.71260      0.400000           0   0.00000       0.00000    
      4566 MEMB     26       POPE     O13      OD2C2B   0.798400       15.5994           0 -0.931000       1.08300    
      4567 MEMB     26       POPE     DO13     DRUD     -1.67440      0.400000           0   0.00000       0.00000    
      4568 MEMB     26       POPE     O14      OD2C2B   0.798400       15.5994           0 -0.931000       1.08300    
      4569 MEMB     26       POPE     DO14     DRUD     -1.67440      0.400000           0   0.00000       0.00000    
      4570 MEMB     26       POPE     O11      OD30B     1.17720       15.5994           0 -0.901000      0.181000    
      4571 MEMB     26       POPE     DO11     DRUD     -1.64720      0.400000           0   0.00000       0.00000    
      4572 MEMB     26       POPE     O12      OD30B     1.17720       15.5994           0 -0.901000      0.181000    
      4573 MEMB     26       POPE     DO12     DRUD     -1.64720      0.400000           0   0.00000       0.00000    
      4574 MEMB     26       POPE     C1       CD32A     2.42220       11.6110           0  -1.64200      0.862000    
      4575 MEMB     26       POPE     DC1      DRUD     -2.22370      0.400000           0   0.00000       0.00000    
      4576 MEMB     26       POPE     HA       HDA2A    0.260000E-01   1.00800           0   0.00000       0.00000    
      4577 MEMB     26       POPE     HB       HDA2A    0.260000E-01   1.00800           0   0.00000       0.00000    
      4578 MEMB     26       POPE     C2       CD31C     2.52830       11.6110           0  -1.79700      0.410000    
      4579 MEMB     26       POPE     DC2      DRUD     -2.32630      0.400000           0   0.00000       0.00000    
      4580 MEMB     26       POPE     HS       HDA1A    0.116000       1.00800           0   0.00000       0.00000    
      4581 MEMB     26       POPE     O21      OD30CL    1.48470       15.5994           0 -0.732000      0.601000    
      4582 MEMB     26       POPE     DO21     DRUD     -1.48470      0.400000           0   0.00000       0.00000    
      4583 MEMB     26       POPE     C21      CD2O3B    2.72820       11.6110           0  -1.37000       1.74700    
      4584 MEMB     26       POPE     DC21     DRUD     -2.03120      0.400000           0   0.00000       0.00000    
      4585 MEMB     26       POPE     O22      OD2C3B    1.64990       15.5994           0 -0.904000      0.565000    
      4586 MEMB     26       POPE     DO22     DRUD     -1.64990      0.400000           0   0.00000       0.00000    
      4587 MEMB     26       POPE     C22      CD32C     2.24380       11.6110           0  -1.99300      0.410000    
      4588 MEMB     26       POPE     DC22     DRUD     -2.44980      0.400000           0   0.00000       0.00000    
      4589 MEMB     26       POPE     H2R      HDA2A    0.690000E-01   1.00800           0   0.00000       0.00000    
      4590 MEMB     26       POPE     H2S      HDA2A    0.690000E-01   1.00800           0   0.00000       0.00000    
      4591 MEMB     26       POPE     LP1A     LPD     -0.349000       0.00000          -1   0.00000       0.00000    
      4592 MEMB     26       POPE     LP1B     LPD     -0.258000       0.00000          -1   0.00000       0.00000    
      4593 MEMB     26       POPE     LPMA     LPD     -0.170000       0.00000          -1   0.00000       0.00000    
      4594 MEMB     26       POPE     LPMB     LPD     -0.170000       0.00000          -1   0.00000       0.00000    
      4595 MEMB     26       POPE     C3       CD32C     2.41230       11.6110           0  -1.79700      0.410000    
      4596 MEMB     26       POPE     DC3      DRUD     -2.32630      0.400000           0   0.00000       0.00000    
      4597 MEMB     26       POPE     HX       HDA2A    0.116000       1.00800           0   0.00000       0.00000    
      4598 MEMB     26       POPE     HY       HDA2A    0.116000       1.00800           0   0.00000       0.00000    
      4599 MEMB     26       POPE     O31      OD30CL    1.48470       15.5994           0 -0.732000      0.601000    
      4600 MEMB     26       POPE     DO31     DRUD     -1.48470      0.400000           0   0.00000       0.00000    
      4601 MEMB     26       POPE     C31      CD2O3B    2.72820       11.6110           0  -1.37000       1.74700    
      4602 MEMB     26       POPE     DC31     DRUD     -2.03120      0.400000           0   0.00000       0.00000    
      4603 MEMB     26       POPE     O32      OD2C3B    1.64990       15.5994           0 -0.904000      0.565000    
      4604 MEMB     26       POPE     DO32     DRUD     -1.64990      0.400000           0   0.00000       0.00000    
      4605 MEMB     26       POPE     C32      CD32C     2.24380       11.6110           0  -1.99300      0.410000    
      4606 MEMB     26       POPE     DC32     DRUD     -2.44980      0.400000           0   0.00000       0.00000    
      4607 MEMB     26       POPE     H2X      HDA2A    0.690000E-01   1.00800           0   0.00000       0.00000    
      4608 MEMB     26       POPE     H2Y      HDA2A    0.690000E-01   1.00800           0   0.00000       0.00000    
      4609 MEMB     26       POPE     LP1C     LPD     -0.349000       0.00000          -1   0.00000       0.00000    
      4610 MEMB     26       POPE     LP1D     LPD     -0.258000       0.00000          -1   0.00000       0.00000    
      4611 MEMB     26       POPE     LPMC     LPD     -0.170000       0.00000          -1   0.00000       0.00000    
      4612 MEMB     26       POPE     LPMD     LPD     -0.170000       0.00000          -1   0.00000       0.00000    
      4613 MEMB     26       POPE     C23      CD32A     2.07980       11.6110           0  -1.66000       1.30000    
      4614 MEMB     26       POPE     DC23     DRUD     -2.23580      0.400000           0   0.00000       0.00000    
      4615 MEMB     26       POPE     H3R      HDA2A    0.780000E-01   1.00800           0   0.00000       0.00000    
      4616 MEMB     26       POPE     H3S      HDA2A    0.780000E-01   1.00800           0   0.00000       0.00000    
      4617 MEMB     26       POPE     C24      CD32A     2.07980       11.6110           0  -1.66000       1.30000    
      4618 MEMB     26       POPE     DC24     DRUD     -2.23580      0.400000           0   0.00000       0.00000    
      4619 MEMB     26       POPE     H4R      HDA2A    0.780000E-01   1.00800           0   0.00000       0.00000    
      4620 MEMB     26       POPE     H4S      HDA2A    0.780000E-01   1.00800           0   0.00000       0.00000    
      4621 MEMB     26       POPE     C25      CD32A     2.07980       11.6110           0  -1.66000       1.30000    
      4622 MEMB     26       POPE     DC25     DRUD     -2.23580      0.400000           0   0.00000       0.00000    
      4623 MEMB     26       POPE     H5R      HDA2A    0.780000E-01   1.00800           0   0.00000       0.00000    
      4624 MEMB     26       POPE     H5S      HDA2A    0.780000E-01   1.00800           0   0.00000       0.00000    
      4625 MEMB     26       POPE     C26      CD32A     2.07980       11.6110           0  -1.66000       1.30000    
      4626 MEMB     26       POPE     DC26     DRUD     -2.23580      0.400000           0   0.00000       0.00000    
      4627 MEMB     26       POPE     H6R      HDA2A    0.780000E-01   1.00800           0   0.00000       0.00000    
      4628 MEMB     26       POPE     H6S      HDA2A    0.780000E-01   1.00800           0   0.00000       0.00000    
      4629 MEMB     26       POPE     C27      CD32A     2.07980       11.6110           0  -1.66000       1.30000    
      4630 MEMB     26       POPE     DC27     DRUD     -2.23580      0.400000           0   0.00000       0.00000    
      4631 MEMB     26       POPE     H7R      HDA2A    0.780000E-01   1.00800           0   0.00000       0.00000    
      4632 MEMB     26       POPE     H7S      HDA2A    0.780000E-01   1.00800           0   0.00000       0.00000    
      4633 MEMB     26       POPE     C28      CD32A     2.07980       11.6110           0  -1.66000       1.30000    
      4634 MEMB     26       POPE     DC28     DRUD     -2.23580      0.400000           0   0.00000       0.00000    
      4635 MEMB     26       POPE     H8R      HDA2A    0.780000E-01   1.00800           0   0.00000       0.00000    
      4636 MEMB     26       POPE     H8S      HDA2A    0.780000E-01   1.00800           0   0.00000       0.00000    
      4637 MEMB     26       POPE     C29      CD2C1A    2.33700       11.6110           0  -1.99000      0.750000    
      4638 MEMB     26       POPE     DC29     DRUD     -2.44800      0.400000           0   0.00000       0.00000    
      4639 MEMB     26       POPE     H91      HD2C1A   0.111000       1.00800           0   0.00000       0.00000    
      4640 MEMB     26       POPE     C210     CD2C1A    2.33700       11.6110           0  -1.99000      0.750000    
      4641 MEMB     26       POPE     DC210    DRUD     -2.44800      0.400000           0   0.00000       0.00000    
      4642 MEMB     26       POPE     H101     HD2C1A   0.111000       1.00800           0   0.00000       0.00000    
      4643 MEMB     26       POPE     C211     CD32A     2.07980       11.6110           0  -1.66000       1.30000    
      4644 MEMB     26       POPE     DC211    DRUD     -2.23580      0.400000           0   0.00000       0.00000    
      4645 MEMB     26       POPE     H11R     HDA2A    0.780000E-01   1.00800           0   0.00000       0.00000    
      4646 MEMB     26       POPE     H11S     HDA2A    0.780000E-01   1.00800           0   0.00000       0.00000    
      4647 MEMB     26       POPE     C212     CD32A     2.07980       11.6110           0  -1.66000       1.30000    
      4648 MEMB     26       POPE     DC212    DRUD     -2.23580      0.400000           0   0.00000       0.00000    
      4649 MEMB     26       POPE     H12R     HDA2A    0.780000E-01   1.00800           0   0.00000       0.00000    
      4650 MEMB     26       POPE     H12S     HDA2A    0.780000E-01   1.00800           0   0.00000       0.00000    
      4651 MEMB     26       POPE     C213     CD32A     2.07980       11.6110           0  -1.66000       1.30000    
      4652 MEMB     26       POPE     DC213    DRUD     -2.23580      0.400000           0   0.00000       0.00000    
      4653 MEMB     26       POPE     H13R     HDA2A    0.780000E-01   1.00800           0   0.00000       0.00000    
      4654 MEMB     26       POPE     H13S     HDA2A    0.780000E-01   1.00800           0   0.00000       0.00000    
      4655 MEMB     26       POPE     C214     CD32A     2.07980       11.6110           0  -1.66000       1.30000    
      4656 MEMB     26       POPE     DC214    DRUD     -2.23580      0.400000           0   0.00000       0.00000    
      4657 MEMB     26       POPE     H14R     HDA2A    0.780000E-01   1.00800           0   0.00000       0.00000    
      4658 MEMB     26       POPE     H14S     HDA2A    0.780000E-01   1.00800           0   0.00000       0.00000    
      4659 MEMB     26       POPE     C215     CD32A     2.07980       11.6110           0  -1.66000       1.30000    
      4660 MEMB     26       POPE     DC215    DRUD     -2.23580      0.400000           0   0.00000       0.00000    
      4661 MEMB     26       POPE     H15R     HDA2A    0.780000E-01   1.00800           0   0.00000       0.00000    
      4662 MEMB     26       POPE     H15S     HDA2A    0.780000E-01   1.00800           0   0.00000       0.00000    
      4663 MEMB     26       POPE     C216     CD32A     2.07980       11.6110           0  -1.66000       1.30000    
      4664 MEMB     26       POPE     DC216    DRUD     -2.23580      0.400000           0   0.00000       0.00000    
      4665 MEMB     26       POPE     H16R     HDA2A    0.780000E-01   1.00800           0   0.00000       0.00000    
      4666 MEMB     26       POPE     H16S     HDA2A    0.780000E-01   1.00800           0   0.00000       0.00000    
      4667 MEMB     26       POPE     C217     CD32A     2.07980       11.6110           0  -1.66000       1.30000    
      4668 MEMB     26       POPE     DC217    DRUD     -2.23580      0.400000           0   0.00000       0.00000    
      4669 MEMB     26       POPE     H17R     HDA2A    0.780000E-01   1.00800           0   0.00000       0.00000    
      4670 MEMB     26       POPE     H17S     HDA2A    0.780000E-01   1.00800           0   0.00000       0.00000    
      4671 MEMB     26       POPE     C218     CD33A     2.30820       11.6110           0  -2.05100       1.30000    
      4672 MEMB     26       POPE     DC218    DRUD     -2.48520      0.400000           0   0.00000       0.00000    
      4673 MEMB     26       POPE     H18R     HDA3A    0.590000E-01   1.00800           0   0.00000       0.00000    
      4674 MEMB     26       POPE     H18S     HDA3A    0.590000E-01   1.00800           0   0.00000       0.00000    
      4675 MEMB     26       POPE     H18T     HDA3A    0.590000E-01   1.00800           0   0.00000       0.00000    
      4676 MEMB     26       POPE     C33      CD32A     2.07980       11.6110           0  -1.66000       1.30000    
      4677 MEMB     26       POPE     DC33     DRUD     -2.23580      0.400000           0   0.00000       0.00000    
      4678 MEMB     26       POPE     H3X      HDA2A    0.780000E-01   1.00800           0   0.00000       0.00000    
      4679 MEMB     26       POPE     H3Y      HDA2A    0.780000E-01   1.00800           0   0.00000       0.00000    
      4680 MEMB     26       POPE     C34      CD32A     2.07980       11.6110           0  -1.66000       1.30000    
      4681 MEMB     26       POPE     DC34     DRUD     -2.23580      0.400000           0   0.00000       0.00000    
      4682 MEMB     26       POPE     H4X      HDA2A    0.780000E-01   1.00800           0   0.00000       0.00000    
      4683 MEMB     26       POPE     H4Y      HDA2A    0.780000E-01   1.00800           0   0.00000       0.00000    
      4684 MEMB     26       POPE     C35      CD32A     2.07980       11.6110           0  -1.66000       1.30000    
      4685 MEMB     26       POPE     DC35     DRUD     -2.23580      0.400000           0   0.00000       0.00000    
      4686 MEMB     26       POPE     H5X      HDA2A    0.780000E-01   1.00800           0   0.00000       0.00000    
      4687 MEMB     26       POPE     H5Y      HDA2A    0.780000E-01   1.00800           0   0.00000       0.00000    
      4688 MEMB     26       POPE     C36      CD32A     2.07980       11.6110           0  -1.66000       1.30000    
      4689 MEMB     26       POPE     DC36     DRUD     -2.23580      0.400000           0   0.00000       0.00000    
      4690 MEMB     26       POPE     H6X      HDA2A    0.780000E-01   1.00800           0   0.00000       0.00000    
      4691 MEMB     26       POPE     H6Y      HDA2A    0.780000E-01   1.00800           0   0.00000       0.00000    
      4692 MEMB     26       POPE     C37      CD32A     2.07980       11.6110           0  -1.66000       1.30000    
      4693 MEMB     26       POPE     DC37     DRUD     -2.23580      0.400000           0   0.00000       0.00000    
      4694 MEMB     26       POPE     H7X      HDA2A    0.780000E-01   1.00800           0   0.00000       0.00000    
      4695 MEMB     26       POPE     H7Y      HDA2A    0.780000E-01   1.00800           0   0.00000       0.00000    
      4696 MEMB     26       POPE     C38      CD32A     2.07980       11.6110           0  -1.66000       1.30000    
      4697 MEMB     26       POPE     DC38     DRUD     -2.23580      0.400000           0   0.00000       0.00000    
      4698 MEMB     26       POPE     H8X      HDA2A    0.780000E-01   1.00800           0   0.00000       0.00000    
      4699 MEMB     26       POPE     H8Y      HDA2A    0.780000E-01   1.00800           0   0.00000       0.00000    
      4700 MEMB     26       POPE     C39      CD32A     2.07980       11.6110           0  -1.66000       1.30000    
      4701 MEMB     26       POPE     DC39     DRUD     -2.23580      0.400000           0   0.00000       0.00000    
      4702 MEMB     26       POPE     H9X      HDA2A    0.780000E-01   1.00800           0   0.00000       0.00000    
      4703 MEMB     26       POPE     H9Y      HDA2A    0.780000E-01   1.00800           0   0.00000       0.00000    
      4704 MEMB     26       POPE     C310     CD32A     2.07980       11.6110           0  -1.66000       1.30000    
      4705 MEMB     26       POPE     DC310    DRUD     -2.23580      0.400000           0   0.00000       0.00000    
      4706 MEMB     26       POPE     H10X     HDA2A    0.780000E-01   1.00800           0   0.00000       0.00000    
      4707 MEMB     26       POPE     H10Y     HDA2A    0.780000E-01   1.00800           0   0.00000       0.00000    
      4708 MEMB     26       POPE     C311     CD32A     2.07980       11.6110           0  -1.66000       1.30000    
      4709 MEMB     26       POPE     DC311    DRUD     -2.23580      0.400000           0   0.00000       0.00000    
      4710 MEMB     26       POPE     H11X     HDA2A    0.780000E-01   1.00800           0   0.00000       0.00000    
      4711 MEMB     26       POPE     H11Y     HDA2A    0.780000E-01   1.00800           0   0.00000       0.00000    
      4712 MEMB     26       POPE     C312     CD32A     2.07980       11.6110           0  -1.66000       1.30000    
      4713 MEMB     26       POPE     DC312    DRUD     -2.23580      0.400000           0   0.00000       0.00000    
      4714 MEMB     26       POPE     H12X     HDA2A    0.780000E-01   1.00800           0   0.00000       0.00000    
      4715 MEMB     26       POPE     H12Y     HDA2A    0.780000E-01   1.00800           0   0.00000       0.00000    
      4716 MEMB     26       POPE     C313     CD32A     2.07980       11.6110           0  -1.66000       1.30000    
      4717 MEMB     26       POPE     DC313    DRUD     -2.23580      0.400000           0   0.00000       0.00000    
      4718 MEMB     26       POPE     H13X     HDA2A    0.780000E-01   1.00800           0   0.00000       0.00000    
      4719 MEMB     26       POPE     H13Y     HDA2A    0.780000E-01   1.00800           0   0.00000       0.00000    
      4720 MEMB     26       POPE     C314     CD32A     2.07980       11.6110           0  -1.66000       1.30000    
      4721 MEMB     26       POPE     DC314    DRUD     -2.23580      0.400000           0   0.00000       0.00000    
      4722 MEMB     26       POPE     H14X     HDA2A    0.780000E-01   1.00800           0   0.00000       0.00000    
      4723 MEMB     26       POPE     H14Y     HDA2A    0.780000E-01   1.00800           0   0.00000       0.00000    
      4724 MEMB     26       POPE     C315     CD32A     2.07980       11.6110           0  -1.66000       1.30000    
      4725 MEMB     26       POPE     DC315    DRUD     -2.23580      0.400000           0   0.00000       0.00000    
      4726 MEMB     26       POPE     H15X     HDA2A    0.780000E-01   1.00800           0   0.00000       0.00000    
      4727 MEMB     26       POPE     H15Y     HDA2A    0.780000E-01   1.00800           0   0.00000       0.00000    
      4728 MEMB     26       POPE     C316     CD33A     2.30820       11.6110           0  -2.05100       1.30000    
      4729 MEMB     26       POPE     DC316    DRUD     -2.48520      0.400000           0   0.00000       0.00000    
      4730 MEMB     26       POPE     H16X     HDA3A    0.590000E-01   1.00800           0   0.00000       0.00000    
      4731 MEMB     26       POPE     H16Y     HDA3A    0.590000E-01   1.00800           0   0.00000       0.00000    
      4732 MEMB     26       POPE     H16Z     HDA3A    0.590000E-01   1.00800           0   0.00000       0.00000    
      4733 MEMB     27       POPE     N        ND3P3A    1.62810       13.6070           0  -1.29800      0.895000    
      4734 MEMB     27       POPE     DN       DRUD     -1.97710      0.400000           0   0.00000       0.00000    
      4735 MEMB     27       POPE     HN1      HDP1B    0.340000       1.00800           0   0.00000       0.00000    
      4736 MEMB     27       POPE     HN2      HDP1B    0.340000       1.00800           0   0.00000       0.00000    
      4737 MEMB     27       POPE     HN3      HDP1B    0.340000       1.00800           0   0.00000       0.00000    
      4738 MEMB     27       POPE     C12      CD32A     2.27610       11.6110           0  -1.65600      0.895000    
      4739 MEMB     27       POPE     DC12     DRUD     -2.23310      0.400000           0   0.00000       0.00000    
      4740 MEMB     27       POPE     H12A     HDA2A    0.143000       1.00800           0   0.00000       0.00000    
      4741 MEMB     27       POPE     H12B     HDA2A    0.143000       1.00800           0   0.00000       0.00000    
      4742 MEMB     27       POPE     C11      CD32A     2.42220       11.6110           0  -1.64200      0.862000    
      4743 MEMB     27       POPE     DC11     DRUD     -2.22370      0.400000           0   0.00000       0.00000    
      4744 MEMB     27       POPE     H11A     HDA2A    0.260000E-01   1.00800           0   0.00000       0.00000    
      4745 MEMB     27       POPE     H11B     HDA2A    0.260000E-01   1.00800           0   0.00000       0.00000    
      4746 MEMB     27       POPE     P        PD1A      2.90360       30.5740           0 -0.974000       2.09800    
      4747 MEMB     27       POPE     DP       DRUD     -1.71260      0.400000           0   0.00000       0.00000    
      4748 MEMB     27       POPE     O13      OD2C2B   0.798400       15.5994           0 -0.931000       1.08300    
      4749 MEMB     27       POPE     DO13     DRUD     -1.67440      0.400000           0   0.00000       0.00000    
      4750 MEMB     27       POPE     O14      OD2C2B   0.798400       15.5994           0 -0.931000       1.08300    
      4751 MEMB     27       POPE     DO14     DRUD     -1.67440      0.400000           0   0.00000       0.00000    
      4752 MEMB     27       POPE     O11      OD30B     1.17720       15.5994           0 -0.901000      0.181000    
      4753 MEMB     27       POPE     DO11     DRUD     -1.64720      0.400000           0   0.00000       0.00000    
      4754 MEMB     27       POPE     O12      OD30B     1.17720       15.5994           0 -0.901000      0.181000    
      4755 MEMB     27       POPE     DO12     DRUD     -1.64720      0.400000           0   0.00000       0.00000    
      4756 MEMB     27       POPE     C1       CD32A     2.42220       11.6110           0  -1.64200      0.862000    
      4757 MEMB     27       POPE     DC1      DRUD     -2.22370      0.400000           0   0.00000       0.00000    
      4758 MEMB     27       POPE     HA       HDA2A    0.260000E-01   1.00800           0   0.00000       0.00000    
      4759 MEMB     27       POPE     HB       HDA2A    0.260000E-01   1.00800           0   0.00000       0.00000    
      4760 MEMB     27       POPE     C2       CD31C     2.52830       11.6110           0  -1.79700      0.410000    
      4761 MEMB     27       POPE     DC2      DRUD     -2.32630      0.400000           0   0.00000       0.00000    
      4762 MEMB     27       POPE     HS       HDA1A    0.116000       1.00800           0   0.00000       0.00000    
      4763 MEMB     27       POPE     O21      OD30CL    1.48470       15.5994           0 -0.732000      0.601000    
      4764 MEMB     27       POPE     DO21     DRUD     -1.48470      0.400000           0   0.00000       0.00000    
      4765 MEMB     27       POPE     C21      CD2O3B    2.72820       11.6110           0  -1.37000       1.74700    
      4766 MEMB     27       POPE     DC21     DRUD     -2.03120      0.400000           0   0.00000       0.00000    
      4767 MEMB     27       POPE     O22      OD2C3B    1.64990       15.5994           0 -0.904000      0.565000    
      4768 MEMB     27       POPE     DO22     DRUD     -1.64990      0.400000           0   0.00000       0.00000    
      4769 MEMB     27       POPE     C22      CD32C     2.24380       11.6110           0  -1.99300      0.410000    
      4770 MEMB     27       POPE     DC22     DRUD     -2.44980      0.400000           0   0.00000       0.00000    
      4771 MEMB     27       POPE     H2R      HDA2A    0.690000E-01   1.00800           0   0.00000       0.00000    
      4772 MEMB     27       POPE     H2S      HDA2A    0.690000E-01   1.00800           0   0.00000       0.00000    
      4773 MEMB     27       POPE     LP1A     LPD     -0.349000       0.00000          -1   0.00000       0.00000    
      4774 MEMB     27       POPE     LP1B     LPD     -0.258000       0.00000          -1   0.00000       0.00000    
      4775 MEMB     27       POPE     LPMA     LPD     -0.170000       0.00000          -1   0.00000       0.00000    
      4776 MEMB     27       POPE     LPMB     LPD     -0.170000       0.00000          -1   0.00000       0.00000    
      4777 MEMB     27       POPE     C3       CD32C     2.41230       11.6110           0  -1.79700      0.410000    
      4778 MEMB     27       POPE     DC3      DRUD     -2.32630      0.400000           0   0.00000       0.00000    
      4779 MEMB     27       POPE     HX       HDA2A    0.116000       1.00800           0   0.00000       0.00000    
      4780 MEMB     27       POPE     HY       HDA2A    0.116000       1.00800           0   0.00000       0.00000    
      4781 MEMB     27       POPE     O31      OD30CL    1.48470       15.5994           0 -0.732000      0.601000    
      4782 MEMB     27       POPE     DO31     DRUD     -1.48470      0.400000           0   0.00000       0.00000    
      4783 MEMB     27       POPE     C31      CD2O3B    2.72820       11.6110           0  -1.37000       1.74700    
      4784 MEMB     27       POPE     DC31     DRUD     -2.03120      0.400000           0   0.00000       0.00000    
      4785 MEMB     27       POPE     O32      OD2C3B    1.64990       15.5994           0 -0.904000      0.565000    
      4786 MEMB     27       POPE     DO32     DRUD     -1.64990      0.400000           0   0.00000       0.00000    
      4787 MEMB     27       POPE     C32      CD32C     2.24380       11.6110           0  -1.99300      0.410000    
      4788 MEMB     27       POPE     DC32     DRUD     -2.44980      0.400000           0   0.00000       0.00000    
      4789 MEMB     27       POPE     H2X      HDA2A    0.690000E-01   1.00800           0   0.00000       0.00000    
      4790 MEMB     27       POPE     H2Y      HDA2A    0.690000E-01   1.00800           0   0.00000       0.00000    
      4791 MEMB     27       POPE     LP1C     LPD     -0.349000       0.00000          -1   0.00000       0.00000    
      4792 MEMB     27       POPE     LP1D     LPD     -0.258000       0.00000          -1   0.00000       0.00000    
      4793 MEMB     27       POPE     LPMC     LPD     -0.170000       0.00000          -1   0.00000       0.00000    
      4794 MEMB     27       POPE     LPMD     LPD     -0.170000       0.00000          -1   0.00000       0.00000    
      4795 MEMB     27       POPE     C23      CD32A     2.07980       11.6110           0  -1.66000       1.30000    
      4796 MEMB     27       POPE     DC23     DRUD     -2.23580      0.400000           0   0.00000       0.00000    
      4797 MEMB     27       POPE     H3R      HDA2A    0.780000E-01   1.00800           0   0.00000       0.00000    
      4798 MEMB     27       POPE     H3S      HDA2A    0.780000E-01   1.00800           0   0.00000       0.00000    
      4799 MEMB     27       POPE     C24      CD32A     2.07980       11.6110           0  -1.66000       1.30000    
      4800 MEMB     27       POPE     DC24     DRUD     -2.23580      0.400000           0   0.00000       0.00000    
      4801 MEMB     27       POPE     H4R      HDA2A    0.780000E-01   1.00800           0   0.00000       0.00000    
      4802 MEMB     27       POPE     H4S      HDA2A    0.780000E-01   1.00800           0   0.00000       0.00000    
      4803 MEMB     27       POPE     C25      CD32A     2.07980       11.6110           0  -1.66000       1.30000    
      4804 MEMB     27       POPE     DC25     DRUD     -2.23580      0.400000           0   0.00000       0.00000    
      4805 MEMB     27       POPE     H5R      HDA2A    0.780000E-01   1.00800           0   0.00000       0.00000    
      4806 MEMB     27       POPE     H5S      HDA2A    0.780000E-01   1.00800           0   0.00000       0.00000    
      4807 MEMB     27       POPE     C26      CD32A     2.07980       11.6110           0  -1.66000       1.30000    
      4808 MEMB     27       POPE     DC26     DRUD     -2.23580      0.400000           0   0.00000       0.00000    
      4809 MEMB     27       POPE     H6R      HDA2A    0.780000E-01   1.00800           0   0.00000       0.00000    
      4810 MEMB     27       POPE     H6S      HDA2A    0.780000E-01   1.00800           0   0.00000       0.00000    
      4811 MEMB     27       POPE     C27      CD32A     2.07980       11.6110           0  -1.66000       1.30000    
      4812 MEMB     27       POPE     DC27     DRUD     -2.23580      0.400000           0   0.00000       0.00000    
      4813 MEMB     27       POPE     H7R      HDA2A    0.780000E-01   1.00800           0   0.00000       0.00000    
      4814 MEMB     27       POPE     H7S      HDA2A    0.780000E-01   1.00800           0   0.00000       0.00000    
      4815 MEMB     27       POPE     C28      CD32A     2.07980       11.6110           0  -1.66000       1.30000    
      4816 MEMB     27       POPE     DC28     DRUD     -2.23580      0.400000           0   0.00000       0.00000    
      4817 MEMB     27       POPE     H8R      HDA2A    0.780000E-01   1.00800           0   0.00000       0.00000    
      4818 MEMB     27       POPE     H8S      HDA2A    0.780000E-01   1.00800           0   0.00000       0.00000    
      4819 MEMB     27       POPE     C29      CD2C1A    2.33700       11.6110           0  -1.99000      0.750000    
      4820 MEMB     27       POPE     DC29     DRUD     -2.44800      0.400000           0   0.00000       0.00000    
      4821 MEMB     27       POPE     H91      HD2C1A   0.111000       1.00800           0   0.00000       0.00000    
      4822 MEMB     27       POPE     C210     CD2C1A    2.33700       11.6110           0  -1.99000      0.750000    
      4823 MEMB     27       POPE     DC210    DRUD     -2.44800      0.400000           0   0.00000       0.00000    
      4824 MEMB     27       POPE     H101     HD2C1A   0.111000       1.00800           0   0.00000       0.00000    
      4825 MEMB     27       POPE     C211     CD32A     2.07980       11.6110           0  -1.66000       1.30000    
      4826 MEMB     27       POPE     DC211    DRUD     -2.23580      0.400000           0   0.00000       0.00000    
      4827 MEMB     27       POPE     H11R     HDA2A    0.780000E-01   1.00800           0   0.00000       0.00000    
      4828 MEMB     27       POPE     H11S     HDA2A    0.780000E-01   1.00800           0   0.00000       0.00000    
      4829 MEMB     27       POPE     C212     CD32A     2.07980       11.6110           0  -1.66000       1.30000    
      4830 MEMB     27       POPE     DC212    DRUD     -2.23580      0.400000           0   0.00000       0.00000    
      4831 MEMB     27       POPE     H12R     HDA2A    0.780000E-01   1.00800           0   0.00000       0.00000    
      4832 MEMB     27       POPE     H12S     HDA2A    0.780000E-01   1.00800           0   0.00000       0.00000    
      4833 MEMB     27       POPE     C213     CD32A     2.07980       11.6110           0  -1.66000       1.30000    
      4834 MEMB     27       POPE     DC213    DRUD     -2.23580      0.400000           0   0.00000       0.00000    
      4835 MEMB     27       POPE     H13R     HDA2A    0.780000E-01   1.00800           0   0.00000       0.00000    
      4836 MEMB     27       POPE     H13S     HDA2A    0.780000E-01   1.00800           0   0.00000       0.00000    
      4837 MEMB     27       POPE     C214     CD32A     2.07980       11.6110           0  -1.66000       1.30000    
      4838 MEMB     27       POPE     DC214    DRUD     -2.23580      0.400000           0   0.00000       0.00000    
      4839 MEMB     27       POPE     H14R     HDA2A    0.780000E-01   1.00800           0   0.00000       0.00000    
      4840 MEMB     27       POPE     H14S     HDA2A    0.780000E-01   1.00800           0   0.00000       0.00000    
      4841 MEMB     27       POPE     C215     CD32A     2.07980       11.6110           0  -1.66000       1.30000    
      4842 MEMB     27       POPE     DC215    DRUD     -2.23580      0.400000           0   0.00000       0.00000    
      4843 MEMB     27       POPE     H15R     HDA2A    0.780000E-01   1.00800           0   0.00000       0.00000    
      4844 MEMB     27       POPE     H15S     HDA2A    0.780000E-01   1.00800           0   0.00000       0.00000    
      4845 MEMB     27       POPE     C216     CD32A     2.07980       11.6110           0  -1.66000       1.30000    
      4846 MEMB     27       POPE     DC216    DRUD     -2.23580      0.400000           0   0.00000       0.00000    
      4847 MEMB     27       POPE     H16R     HDA2A    0.780000E-01   1.00800           0   0.00000       0.00000    
      4848 MEMB     27       POPE     H16S     HDA2A    0.780000E-01   1.00800           0   0.00000       0.00000    
      4849 MEMB     27       POPE     C217     CD32A     2.07980       11.6110           0  -1.66000       1.30000    
      4850 MEMB     27       POPE     DC217    DRUD     -2.23580      0.400000           0   0.00000       0.00000    
      4851 MEMB     27       POPE     H17R     HDA2A    0.780000E-01   1.00800           0   0.00000       0.00000    
      4852 MEMB     27       POPE     H17S     HDA2A    0.780000E-01   1.00800           0   0.00000       0.00000    
      4853 MEMB     27       POPE     C218     CD33A     2.30820       11.6110           0  -2.05100       1.30000    
      4854 MEMB     27       POPE     DC218    DRUD     -2.48520      0.400000           0   0.00000       0.00000    
      4855 MEMB     27       POPE     H18R     HDA3A    0.590000E-01   1.00800           0   0.00000       0.00000    
      4856 MEMB     27       POPE     H18S     HDA3A    0.590000E-01   1.00800           0   0.00000       0.00000    
      4857 MEMB     27       POPE     H18T     HDA3A    0.590000E-01   1.00800           0   0.00000       0.00000    
      4858 MEMB     27       POPE     C33      CD32A     2.07980       11.6110           0  -1.66000       1.30000    
      4859 MEMB     27       POPE     DC33     DRUD     -2.23580      0.400000           0   0.00000       0.00000    
      4860 MEMB     27       POPE     H3X      HDA2A    0.780000E-01   1.00800           0   0.00000       0.00000    
      4861 MEMB     27       POPE     H3Y      HDA2A    0.780000E-01   1.00800           0   0.00000       0.00000    
      4862 MEMB     27       POPE     C34      CD32A     2.07980       11.6110           0  -1.66000       1.30000    
      4863 MEMB     27       POPE     DC34     DRUD     -2.23580      0.400000           0   0.00000       0.00000    
      4864 MEMB     27       POPE     H4X      HDA2A    0.780000E-01   1.00800           0   0.00000       0.00000    
      4865 MEMB     27       POPE     H4Y      HDA2A    0.780000E-01   1.00800           0   0.00000       0.00000    
      4866 MEMB     27       POPE     C35      CD32A     2.07980       11.6110           0  -1.66000       1.30000    
      4867 MEMB     27       POPE     DC35     DRUD     -2.23580      0.400000           0   0.00000       0.00000    
      4868 MEMB     27       POPE     H5X      HDA2A    0.780000E-01   1.00800           0   0.00000       0.00000    
      4869 MEMB     27       POPE     H5Y      HDA2A    0.780000E-01   1.00800           0   0.00000       0.00000    
      4870 MEMB     27       POPE     C36      CD32A     2.07980       11.6110           0  -1.66000       1.30000    
      4871 MEMB     27       POPE     DC36     DRUD     -2.23580      0.400000           0   0.00000       0.00000    
      4872 MEMB     27       POPE     H6X      HDA2A    0.780000E-01   1.00800           0   0.00000       0.00000    
      4873 MEMB     27       POPE     H6Y      HDA2A    0.780000E-01   1.00800           0   0.00000       0.00000    
      4874 MEMB     27       POPE     C37      CD32A     2.07980       11.6110           0  -1.66000       1.30000    
      4875 MEMB     27       POPE     DC37     DRUD     -2.23580      0.400000           0   0.00000       0.00000    
      4876 MEMB     27       POPE     H7X      HDA2A    0.780000E-01   1.00800           0   0.00000       0.00000    
      4877 MEMB     27       POPE     H7Y      HDA2A    0.780000E-01   1.00800           0   0.00000       0.00000    
      4878 MEMB     27       POPE     C38      CD32A     2.07980       11.6110           0  -1.66000       1.30000    
      4879 MEMB     27       POPE     DC38     DRUD     -2.23580      0.400000           0   0.00000       0.00000    
      4880 MEMB     27       POPE     H8X      HDA2A    0.780000E-01   1.00800           0   0.00000       0.00000    
      4881 MEMB     27       POPE     H8Y      HDA2A    0.780000E-01   1.00800           0   0.00000       0.00000    
      4882 MEMB     27       POPE     C39      CD32A     2.07980       11.6110           0  -1.66000       1.30000    
      4883 MEMB     27       POPE     DC39     DRUD     -2.23580      0.400000           0   0.00000       0.00000    
      4884 MEMB     27       POPE     H9X      HDA2A    0.780000E-01   1.00800           0   0.00000       0.00000    
      4885 MEMB     27       POPE     H9Y      HDA2A    0.780000E-01   1.00800           0   0.00000       0.00000    
      4886 MEMB     27       POPE     C310     CD32A     2.07980       11.6110           0  -1.66000       1.30000    
      4887 MEMB     27       POPE     DC310    DRUD     -2.23580      0.400000           0   0.00000       0.00000    
      4888 MEMB     27       POPE     H10X     HDA2A    0.780000E-01   1.00800           0   0.00000       0.00000    
      4889 MEMB     27       POPE     H10Y     HDA2A    0.780000E-01   1.00800           0   0.00000       0.00000    
      4890 MEMB     27       POPE     C311     CD32A     2.07980       11.6110           0  -1.66000       1.30000    
      4891 MEMB     27       POPE     DC311    DRUD     -2.23580      0.400000           0   0.00000       0.00000    
      4892 MEMB     27       POPE     H11X     HDA2A    0.780000E-01   1.00800           0   0.00000       0.00000    
      4893 MEMB     27       POPE     H11Y     HDA2A    0.780000E-01   1.00800           0   0.00000       0.00000    
      4894 MEMB     27       POPE     C312     CD32A     2.07980       11.6110           0  -1.66000       1.30000    
      4895 MEMB     27       POPE     DC312    DRUD     -2.23580      0.400000           0   0.00000       0.00000    
      4896 MEMB     27       POPE     H12X     HDA2A    0.780000E-01   1.00800           0   0.00000       0.00000    
      4897 MEMB     27       POPE     H12Y     HDA2A    0.780000E-01   1.00800           0   0.00000       0.00000    
      4898 MEMB     27       POPE     C313     CD32A     2.07980       11.6110           0  -1.66000       1.30000    
      4899 MEMB     27       POPE     DC313    DRUD     -2.23580      0.400000           0   0.00000       0.00000    
      4900 MEMB     27       POPE     H13X     HDA2A    0.780000E-01   1.00800           0   0.00000       0.00000    
      4901 MEMB     27       POPE     H13Y     HDA2A    0.780000E-01   1.00800           0   0.00000       0.00000    
      4902 MEMB     27       POPE     C314     CD32A     2.07980       11.6110           0  -1.66000       1.30000    
      4903 MEMB     27       POPE     DC314    DRUD     -2.23580      0.400000           0   0.00000       0.00000    
      4904 MEMB     27       POPE     H14X     HDA2A    0.780000E-01   1.00800           0   0.00000       0.00000    
      4905 MEMB     27       POPE     H14Y     HDA2A    0.780000E-01   1.00800           0   0.00000       0.00000    
      4906 MEMB     27       POPE     C315     CD32A     2.07980       11.6110           0  -1.66000       1.30000    
      4907 MEMB     27       POPE     DC315    DRUD     -2.23580      0.400000           0   0.00000       0.00000    
      4908 MEMB     27       POPE     H15X     HDA2A    0.780000E-01   1.00800           0   0.00000       0.00000    
      4909 MEMB     27       POPE     H15Y     HDA2A    0.780000E-01   1.00800           0   0.00000       0.00000    
      4910 MEMB     27       POPE     C316     CD33A     2.30820       11.6110           0  -2.05100       1.30000    
      4911 MEMB     27       POPE     DC316    DRUD     -2.48520      0.400000           0   0.00000       0.00000    
      4912 MEMB     27       POPE     H16X     HDA3A    0.590000E-01   1.00800           0   0.00000       0.00000    
      4913 MEMB     27       POPE     H16Y     HDA3A    0.590000E-01   1.00800           0   0.00000       0.00000    
      4914 MEMB     27       POPE     H16Z     HDA3A    0.590000E-01   1.00800           0   0.00000       0.00000    
      4915 MEMB     28       POPE     N        ND3P3A    1.62810       13.6070           0  -1.29800      0.895000    
      4916 MEMB     28       POPE     DN       DRUD     -1.97710      0.400000           0   0.00000       0.00000    
      4917 MEMB     28       POPE     HN1      HDP1B    0.340000       1.00800           0   0.00000       0.00000    
      4918 MEMB     28       POPE     HN2      HDP1B    0.340000       1.00800           0   0.00000       0.00000    
      4919 MEMB     28       POPE     HN3      HDP1B    0.340000       1.00800           0   0.00000       0.00000    
      4920 MEMB     28       POPE     C12      CD32A     2.27610       11.6110           0  -1.65600      0.895000    
      4921 MEMB     28       POPE     DC12     DRUD     -2.23310      0.400000           0   0.00000       0.00000    
      4922 MEMB     28       POPE     H12A     HDA2A    0.143000       1.00800           0   0.00000       0.00000    
      4923 MEMB     28       POPE     H12B     HDA2A    0.143000       1.00800           0   0.00000       0.00000    
      4924 MEMB     28       POPE     C11      CD32A     2.42220       11.6110           0  -1.64200      0.862000    
      4925 MEMB     28       POPE     DC11     DRUD     -2.22370      0.400000           0   0.00000       0.00000    
      4926 MEMB     28       POPE     H11A     HDA2A    0.260000E-01   1.00800           0   0.00000       0.00000    
      4927 MEMB     28       POPE     H11B     HDA2A    0.260000E-01   1.00800           0   0.00000       0.00000    
      4928 MEMB     28       POPE     P        PD1A      2.90360       30.5740           0 -0.974000       2.09800    
      4929 MEMB     28       POPE     DP       DRUD     -1.71260      0.400000           0   0.00000       0.00000    
      4930 MEMB     28       POPE     O13      OD2C2B   0.798400       15.5994           0 -0.931000       1.08300    
      4931 MEMB     28       POPE     DO13     DRUD     -1.67440      0.400000           0   0.00000       0.00000    
      4932 MEMB     28       POPE     O14      OD2C2B   0.798400       15.5994           0 -0.931000       1.08300    
      4933 MEMB     28       POPE     DO14     DRUD     -1.67440      0.400000           0   0.00000       0.00000    
      4934 MEMB     28       POPE     O11      OD30B     1.17720       15.5994           0 -0.901000      0.181000    
      4935 MEMB     28       POPE     DO11     DRUD     -1.64720      0.400000           0   0.00000       0.00000    
      4936 MEMB     28       POPE     O12      OD30B     1.17720       15.5994           0 -0.901000      0.181000    
      4937 MEMB     28       POPE     DO12     DRUD     -1.64720      0.400000           0   0.00000       0.00000    
      4938 MEMB     28       POPE     C1       CD32A     2.42220       11.6110           0  -1.64200      0.862000    
      4939 MEMB     28       POPE     DC1      DRUD     -2.22370      0.400000           0   0.00000       0.00000    
      4940 MEMB     28       POPE     HA       HDA2A    0.260000E-01   1.00800           0   0.00000       0.00000    
      4941 MEMB     28       POPE     HB       HDA2A    0.260000E-01   1.00800           0   0.00000       0.00000    
      4942 MEMB     28       POPE     C2       CD31C     2.52830       11.6110           0  -1.79700      0.410000    
      4943 MEMB     28       POPE     DC2      DRUD     -2.32630      0.400000           0   0.00000       0.00000    
      4944 MEMB     28       POPE     HS       HDA1A    0.116000       1.00800           0   0.00000       0.00000    
      4945 MEMB     28       POPE     O21      OD30CL    1.48470       15.5994           0 -0.732000      0.601000    
      4946 MEMB     28       POPE     DO21     DRUD     -1.48470      0.400000           0   0.00000       0.00000    
      4947 MEMB     28       POPE     C21      CD2O3B    2.72820       11.6110           0  -1.37000       1.74700    
      4948 MEMB     28       POPE     DC21     DRUD     -2.03120      0.400000           0   0.00000       0.00000    
      4949 MEMB     28       POPE     O22      OD2C3B    1.64990       15.5994           0 -0.904000      0.565000    
      4950 MEMB     28       POPE     DO22     DRUD     -1.64990      0.400000           0   0.00000       0.00000    
      4951 MEMB     28       POPE     C22      CD32C     2.24380       11.6110           0  -1.99300      0.410000    
      4952 MEMB     28       POPE     DC22     DRUD     -2.44980      0.400000           0   0.00000       0.00000    
      4953 MEMB     28       POPE     H2R      HDA2A    0.690000E-01   1.00800           0   0.00000       0.00000    
      4954 MEMB     28       POPE     H2S      HDA2A    0.690000E-01   1.00800           0   0.00000       0.00000    
      4955 MEMB     28       POPE     LP1A     LPD     -0.349000       0.00000          -1   0.00000       0.00000    
      4956 MEMB     28       POPE     LP1B     LPD     -0.258000       0.00000          -1   0.00000       0.00000    
      4957 MEMB     28       POPE     LPMA     LPD     -0.170000       0.00000          -1   0.00000       0.00000    
      4958 MEMB     28       POPE     LPMB     LPD     -0.170000       0.00000          -1   0.00000       0.00000    
      4959 MEMB     28       POPE     C3       CD32C     2.41230       11.6110           0  -1.79700      0.410000    
      4960 MEMB     28       POPE     DC3      DRUD     -2.32630      0.400000           0   0.00000       0.00000    
      4961 MEMB     28       POPE     HX       HDA2A    0.116000       1.00800           0   0.00000       0.00000    
      4962 MEMB     28       POPE     HY       HDA2A    0.116000       1.00800           0   0.00000       0.00000    
      4963 MEMB     28       POPE     O31      OD30CL    1.48470       15.5994           0 -0.732000      0.601000    
      4964 MEMB     28       POPE     DO31     DRUD     -1.48470      0.400000           0   0.00000       0.00000    
      4965 MEMB     28       POPE     C31      CD2O3B    2.72820       11.6110           0  -1.37000       1.74700    
      4966 MEMB     28       POPE     DC31     DRUD     -2.03120      0.400000           0   0.00000       0.00000    
      4967 MEMB     28       POPE     O32      OD2C3B    1.64990       15.5994           0 -0.904000      0.565000    
      4968 MEMB     28       POPE     DO32     DRUD     -1.64990      0.400000           0   0.00000       0.00000    
      4969 MEMB     28       POPE     C32      CD32C     2.24380       11.6110           0  -1.99300      0.410000    
      4970 MEMB     28       POPE     DC32     DRUD     -2.44980      0.400000           0   0.00000       0.00000    
      4971 MEMB     28       POPE     H2X      HDA2A    0.690000E-01   1.00800           0   0.00000       0.00000    
      4972 MEMB     28       POPE     H2Y      HDA2A    0.690000E-01   1.00800           0   0.00000       0.00000    
      4973 MEMB     28       POPE     LP1C     LPD     -0.349000       0.00000          -1   0.00000       0.00000    
      4974 MEMB     28       POPE     LP1D     LPD     -0.258000       0.00000          -1   0.00000       0.00000    
      4975 MEMB     28       POPE     LPMC     LPD     -0.170000       0.00000          -1   0.00000       0.00000    
      4976 MEMB     28       POPE     LPMD     LPD     -0.170000       0.00000          -1   0.00000       0.00000    
      4977 MEMB     28       POPE     C23      CD32A     2.07980       11.6110           0  -1.66000       1.30000    
      4978 MEMB     28       POPE     DC23     DRUD     -2.23580      0.400000           0   0.00000       0.00000    
      4979 MEMB     28       POPE     H3R      HDA2A    0.780000E-01   1.00800           0   0.00000       0.00000    
      4980 MEMB     28       POPE     H3S      HDA2A    0.780000E-01   1.00800           0   0.00000       0.00000    
      4981 MEMB     28       POPE     C24      CD32A     2.07980       11.6110           0  -1.66000       1.30000    
      4982 MEMB     28       POPE     DC24     DRUD     -2.23580      0.400000           0   0.00000       0.00000    
      4983 MEMB     28       POPE     H4R      HDA2A    0.780000E-01   1.00800           0   0.00000       0.00000    
      4984 MEMB     28       POPE     H4S      HDA2A    0.780000E-01   1.00800           0   0.00000       0.00000    
      4985 MEMB     28       POPE     C25      CD32A     2.07980       11.6110           0  -1.66000       1.30000    
      4986 MEMB     28       POPE     DC25     DRUD     -2.23580      0.400000           0   0.00000       0.00000    
      4987 MEMB     28       POPE     H5R      HDA2A    0.780000E-01   1.00800           0   0.00000       0.00000    
      4988 MEMB     28       POPE     H5S      HDA2A    0.780000E-01   1.00800           0   0.00000       0.00000    
      4989 MEMB     28       POPE     C26      CD32A     2.07980       11.6110           0  -1.66000       1.30000    
      4990 MEMB     28       POPE     DC26     DRUD     -2.23580      0.400000           0   0.00000       0.00000    
      4991 MEMB     28       POPE     H6R      HDA2A    0.780000E-01   1.00800           0   0.00000       0.00000    
      4992 MEMB     28       POPE     H6S      HDA2A    0.780000E-01   1.00800           0   0.00000       0.00000    
      4993 MEMB     28       POPE     C27      CD32A     2.07980       11.6110           0  -1.66000       1.30000    
      4994 MEMB     28       POPE     DC27     DRUD     -2.23580      0.400000           0   0.00000       0.00000    
      4995 MEMB     28       POPE     H7R      HDA2A    0.780000E-01   1.00800           0   0.00000       0.00000    
      4996 MEMB     28       POPE     H7S      HDA2A    0.780000E-01   1.00800           0   0.00000       0.00000    
      4997 MEMB     28       POPE     C28      CD32A     2.07980       11.6110           0  -1.66000       1.30000    
      4998 MEMB     28       POPE     DC28     DRUD     -2.23580      0.400000           0   0.00000       0.00000    
      4999 MEMB     28       POPE     H8R      HDA2A    0.780000E-01   1.00800           0   0.00000       0.00000    
      5000 MEMB     28       POPE     H8S      HDA2A    0.780000E-01   1.00800           0   0.00000       0.00000    
      5001 MEMB     28       POPE     C29      CD2C1A    2.33700       11.6110           0  -1.99000      0.750000    
      5002 MEMB     28       POPE     DC29     DRUD     -2.44800      0.400000           0   0.00000       0.00000    
      5003 MEMB     28       POPE     H91      HD2C1A   0.111000       1.00800           0   0.00000       0.00000    
      5004 MEMB     28       POPE     C210     CD2C1A    2.33700       11.6110           0  -1.99000      0.750000    
      5005 MEMB     28       POPE     DC210    DRUD     -2.44800      0.400000           0   0.00000       0.00000    
      5006 MEMB     28       POPE     H101     HD2C1A   0.111000       1.00800           0   0.00000       0.00000    
      5007 MEMB     28       POPE     C211     CD32A     2.07980       11.6110           0  -1.66000       1.30000    
      5008 MEMB     28       POPE     DC211    DRUD     -2.23580      0.400000           0   0.00000       0.00000    
      5009 MEMB     28       POPE     H11R     HDA2A    0.780000E-01   1.00800           0   0.00000       0.00000    
      5010 MEMB     28       POPE     H11S     HDA2A    0.780000E-01   1.00800           0   0.00000       0.00000    
      5011 MEMB     28       POPE     C212     CD32A     2.07980       11.6110           0  -1.66000       1.30000    
      5012 MEMB     28       POPE     DC212    DRUD     -2.23580      0.400000           0   0.00000       0.00000    
      5013 MEMB     28       POPE     H12R     HDA2A    0.780000E-01   1.00800           0   0.00000       0.00000    
      5014 MEMB     28       POPE     H12S     HDA2A    0.780000E-01   1.00800           0   0.00000       0.00000    
      5015 MEMB     28       POPE     C213     CD32A     2.07980       11.6110           0  -1.66000       1.30000    
      5016 MEMB     28       POPE     DC213    DRUD     -2.23580      0.400000           0   0.00000       0.00000    
      5017 MEMB     28       POPE     H13R     HDA2A    0.780000E-01   1.00800           0   0.00000       0.00000    
      5018 MEMB     28       POPE     H13S     HDA2A    0.780000E-01   1.00800           0   0.00000       0.00000    
      5019 MEMB     28       POPE     C214     CD32A     2.07980       11.6110           0  -1.66000       1.30000    
      5020 MEMB     28       POPE     DC214    DRUD     -2.23580      0.400000           0   0.00000       0.00000    
      5021 MEMB     28       POPE     H14R     HDA2A    0.780000E-01   1.00800           0   0.00000       0.00000    
      5022 MEMB     28       POPE     H14S     HDA2A    0.780000E-01   1.00800           0   0.00000       0.00000    
      5023 MEMB     28       POPE     C215     CD32A     2.07980       11.6110           0  -1.66000       1.30000    
      5024 MEMB     28       POPE     DC215    DRUD     -2.23580      0.400000           0   0.00000       0.00000    
      5025 MEMB     28       POPE     H15R     HDA2A    0.780000E-01   1.00800           0   0.00000       0.00000    
      5026 MEMB     28       POPE     H15S     HDA2A    0.780000E-01   1.00800           0   0.00000       0.00000    
      5027 MEMB     28       POPE     C216     CD32A     2.07980       11.6110           0  -1.66000       1.30000    
      5028 MEMB     28       POPE     DC216    DRUD     -2.23580      0.400000           0   0.00000       0.00000    
      5029 MEMB     28       POPE     H16R     HDA2A    0.780000E-01   1.00800           0   0.00000       0.00000    
      5030 MEMB     28       POPE     H16S     HDA2A    0.780000E-01   1.00800           0   0.00000       0.00000    
      5031 MEMB     28       POPE     C217     CD32A     2.07980       11.6110           0  -1.66000       1.30000    
      5032 MEMB     28       POPE     DC217    DRUD     -2.23580      0.400000           0   0.00000       0.00000    
      5033 MEMB     28       POPE     H17R     HDA2A    0.780000E-01   1.00800           0   0.00000       0.00000    
      5034 MEMB     28       POPE     H17S     HDA2A    0.780000E-01   1.00800           0   0.00000       0.00000    
      5035 MEMB     28       POPE     C218     CD33A     2.30820       11.6110           0  -2.05100       1.30000    
      5036 MEMB     28       POPE     DC218    DRUD     -2.48520      0.400000           0   0.00000       0.00000    
      5037 MEMB     28       POPE     H18R     HDA3A    0.590000E-01   1.00800           0   0.00000       0.00000    
      5038 MEMB     28       POPE     H18S     HDA3A    0.590000E-01   1.00800           0   0.00000       0.00000    
      5039 MEMB     28       POPE     H18T     HDA3A    0.590000E-01   1.00800           0   0.00000       0.00000    
      5040 MEMB     28       POPE     C33      CD32A     2.07980       11.6110           0  -1.66000       1.30000    
      5041 MEMB     28       POPE     DC33     DRUD     -2.23580      0.400000           0   0.00000       0.00000    
      5042 MEMB     28       POPE     H3X      HDA2A    0.780000E-01   1.00800           0   0.00000       0.00000    
      5043 MEMB     28       POPE     H3Y      HDA2A    0.780000E-01   1.00800           0   0.00000       0.00000    
      5044 MEMB     28       POPE     C34      CD32A     2.07980       11.6110           0  -1.66000       1.30000    
      5045 MEMB     28       POPE     DC34     DRUD     -2.23580      0.400000           0   0.00000       0.00000    
      5046 MEMB     28       POPE     H4X      HDA2A    0.780000E-01   1.00800           0   0.00000       0.00000    
      5047 MEMB     28       POPE     H4Y      HDA2A    0.780000E-01   1.00800           0   0.00000       0.00000    
      5048 MEMB     28       POPE     C35      CD32A     2.07980       11.6110           0  -1.66000       1.30000    
      5049 MEMB     28       POPE     DC35     DRUD     -2.23580      0.400000           0   0.00000       0.00000    
      5050 MEMB     28       POPE     H5X      HDA2A    0.780000E-01   1.00800           0   0.00000       0.00000    
      5051 MEMB     28       POPE     H5Y      HDA2A    0.780000E-01   1.00800           0   0.00000       0.00000    
      5052 MEMB     28       POPE     C36      CD32A     2.07980       11.6110           0  -1.66000       1.30000    
      5053 MEMB     28       POPE     DC36     DRUD     -2.23580      0.400000           0   0.00000       0.00000    
      5054 MEMB     28       POPE     H6X      HDA2A    0.780000E-01   1.00800           0   0.00000       0.00000    
      5055 MEMB     28       POPE     H6Y      HDA2A    0.780000E-01   1.00800           0   0.00000       0.00000    
      5056 MEMB     28       POPE     C37      CD32A     2.07980       11.6110           0  -1.66000       1.30000    
      5057 MEMB     28       POPE     DC37     DRUD     -2.23580      0.400000           0   0.00000       0.00000    
      5058 MEMB     28       POPE     H7X      HDA2A    0.780000E-01   1.00800           0   0.00000       0.00000    
      5059 MEMB     28       POPE     H7Y      HDA2A    0.780000E-01   1.00800           0   0.00000       0.00000    
      5060 MEMB     28       POPE     C38      CD32A     2.07980       11.6110           0  -1.66000       1.30000    
      5061 MEMB     28       POPE     DC38     DRUD     -2.23580      0.400000           0   0.00000       0.00000    
      5062 MEMB     28       POPE     H8X      HDA2A    0.780000E-01   1.00800           0   0.00000       0.00000    
      5063 MEMB     28       POPE     H8Y      HDA2A    0.780000E-01   1.00800           0   0.00000       0.00000    
      5064 MEMB     28       POPE     C39      CD32A     2.07980       11.6110           0  -1.66000       1.30000    
      5065 MEMB     28       POPE     DC39     DRUD     -2.23580      0.400000           0   0.00000       0.00000    
      5066 MEMB     28       POPE     H9X      HDA2A    0.780000E-01   1.00800           0   0.00000       0.00000    
      5067 MEMB     28       POPE     H9Y      HDA2A    0.780000E-01   1.00800           0   0.00000       0.00000    
      5068 MEMB     28       POPE     C310     CD32A     2.07980       11.6110           0  -1.66000       1.30000    
      5069 MEMB     28       POPE     DC310    DRUD     -2.23580      0.400000           0   0.00000       0.00000    
      5070 MEMB     28       POPE     H10X     HDA2A    0.780000E-01   1.00800           0   0.00000       0.00000    
      5071 MEMB     28       POPE     H10Y     HDA2A    0.780000E-01   1.00800           0   0.00000       0.00000    
      5072 MEMB     28       POPE     C311     CD32A     2.07980       11.6110           0  -1.66000       1.30000    
      5073 MEMB     28       POPE     DC311    DRUD     -2.23580      0.400000           0   0.00000       0.00000    
      5074 MEMB     28       POPE     H11X     HDA2A    0.780000E-01   1.00800           0   0.00000       0.00000    
      5075 MEMB     28       POPE     H11Y     HDA2A    0.780000E-01   1.00800           0   0.00000       0.00000    
      5076 MEMB     28       POPE     C312     CD32A     2.07980       11.6110           0  -1.66000       1.30000    
      5077 MEMB     28       POPE     DC312    DRUD     -2.23580      0.400000           0   0.00000       0.00000    
      5078 MEMB     28       POPE     H12X     HDA2A    0.780000E-01   1.00800           0   0.00000       0.00000    
      5079 MEMB     28       POPE     H12Y     HDA2A    0.780000E-01   1.00800           0   0.00000       0.00000    
      5080 MEMB     28       POPE     C313     CD32A     2.07980       11.6110           0  -1.66000       1.30000    
      5081 MEMB     28       POPE     DC313    DRUD     -2.23580      0.400000           0   0.00000       0.00000    
      5082 MEMB     28       POPE     H13X     HDA2A    0.780000E-01   1.00800           0   0.00000       0.00000    
      5083 MEMB     28       POPE     H13Y     HDA2A    0.780000E-01   1.00800           0   0.00000       0.00000    
      5084 MEMB     28       POPE     C314     CD32A     2.07980       11.6110           0  -1.66000       1.30000    
      5085 MEMB     28       POPE     DC314    DRUD     -2.23580      0.400000           0   0.00000       0.00000    
      5086 MEMB     28       POPE     H14X     HDA2A    0.780000E-01   1.00800           0   0.00000       0.00000    
      5087 MEMB     28       POPE     H14Y     HDA2A    0.780000E-01   1.00800           0   0.00000       0.00000    
      5088 MEMB     28       POPE     C315     CD32A     2.07980       11.6110           0  -1.66000       1.30000    
      5089 MEMB     28       POPE     DC315    DRUD     -2.23580      0.400000           0   0.00000       0.00000    
      5090 MEMB     28       POPE     H15X     HDA2A    0.780000E-01   1.00800           0   0.00000       0.00000    
      5091 MEMB     28       POPE     H15Y     HDA2A    0.780000E-01   1.00800           0   0.00000       0.00000    
      5092 MEMB     28       POPE     C316     CD33A     2.30820       11.6110           0  -2.05100       1.30000    
      5093 MEMB     28       POPE     DC316    DRUD     -2.48520      0.400000           0   0.00000       0.00000    
      5094 MEMB     28       POPE     H16X     HDA3A    0.590000E-01   1.00800           0   0.00000       0.00000    
      5095 MEMB     28       POPE     H16Y     HDA3A    0.590000E-01   1.00800           0   0.00000       0.00000    
      5096 MEMB     28       POPE     H16Z     HDA3A    0.590000E-01   1.00800           0   0.00000       0.00000    
      5097 MEMB     29       POPE     N        ND3P3A    1.62810       13.6070           0  -1.29800      0.895000    
      5098 MEMB     29       POPE     DN       DRUD     -1.97710      0.400000           0   0.00000       0.00000    
      5099 MEMB     29       POPE     HN1      HDP1B    0.340000       1.00800           0   0.00000       0.00000    
      5100 MEMB     29       POPE     HN2      HDP1B    0.340000       1.00800           0   0.00000       0.00000    
      5101 MEMB     29       POPE     HN3      HDP1B    0.340000       1.00800           0   0.00000       0.00000    
      5102 MEMB     29       POPE     C12      CD32A     2.27610       11.6110           0  -1.65600      0.895000    
      5103 MEMB     29       POPE     DC12     DRUD     -2.23310      0.400000           0   0.00000       0.00000    
      5104 MEMB     29       POPE     H12A     HDA2A    0.143000       1.00800           0   0.00000       0.00000    
      5105 MEMB     29       POPE     H12B     HDA2A    0.143000       1.00800           0   0.00000       0.00000    
      5106 MEMB     29       POPE     C11      CD32A     2.42220       11.6110           0  -1.64200      0.862000    
      5107 MEMB     29       POPE     DC11     DRUD     -2.22370      0.400000           0   0.00000       0.00000    
      5108 MEMB     29       POPE     H11A     HDA2A    0.260000E-01   1.00800           0   0.00000       0.00000    
      5109 MEMB     29       POPE     H11B     HDA2A    0.260000E-01   1.00800           0   0.00000       0.00000    
      5110 MEMB     29       POPE     P        PD1A      2.90360       30.5740           0 -0.974000       2.09800    
      5111 MEMB     29       POPE     DP       DRUD     -1.71260      0.400000           0   0.00000       0.00000    
      5112 MEMB     29       POPE     O13      OD2C2B   0.798400       15.5994           0 -0.931000       1.08300    
      5113 MEMB     29       POPE     DO13     DRUD     -1.67440      0.400000           0   0.00000       0.00000    
      5114 MEMB     29       POPE     O14      OD2C2B   0.798400       15.5994           0 -0.931000       1.08300    
      5115 MEMB     29       POPE     DO14     DRUD     -1.67440      0.400000           0   0.00000       0.00000    
      5116 MEMB     29       POPE     O11      OD30B     1.17720       15.5994           0 -0.901000      0.181000    
      5117 MEMB     29       POPE     DO11     DRUD     -1.64720      0.400000           0   0.00000       0.00000    
      5118 MEMB     29       POPE     O12      OD30B     1.17720       15.5994           0 -0.901000      0.181000    
      5119 MEMB     29       POPE     DO12     DRUD     -1.64720      0.400000           0   0.00000       0.00000    
      5120 MEMB     29       POPE     C1       CD32A     2.42220       11.6110           0  -1.64200      0.862000    
      5121 MEMB     29       POPE     DC1      DRUD     -2.22370      0.400000           0   0.00000       0.00000    
      5122 MEMB     29       POPE     HA       HDA2A    0.260000E-01   1.00800           0   0.00000       0.00000    
      5123 MEMB     29       POPE     HB       HDA2A    0.260000E-01   1.00800           0   0.00000       0.00000    
      5124 MEMB     29       POPE     C2       CD31C     2.52830       11.6110           0  -1.79700      0.410000    
      5125 MEMB     29       POPE     DC2      DRUD     -2.32630      0.400000           0   0.00000       0.00000    
      5126 MEMB     29       POPE     HS       HDA1A    0.116000       1.00800           0   0.00000       0.00000    
      5127 MEMB     29       POPE     O21      OD30CL    1.48470       15.5994           0 -0.732000      0.601000    
      5128 MEMB     29       POPE     DO21     DRUD     -1.48470      0.400000           0   0.00000       0.00000    
      5129 MEMB     29       POPE     C21      CD2O3B    2.72820       11.6110           0  -1.37000       1.74700    
      5130 MEMB     29       POPE     DC21     DRUD     -2.03120      0.400000           0   0.00000       0.00000    
      5131 MEMB     29       POPE     O22      OD2C3B    1.64990       15.5994           0 -0.904000      0.565000    
      5132 MEMB     29       POPE     DO22     DRUD     -1.64990      0.400000           0   0.00000       0.00000    
      5133 MEMB     29       POPE     C22      CD32C     2.24380       11.6110           0  -1.99300      0.410000    
      5134 MEMB     29       POPE     DC22     DRUD     -2.44980      0.400000           0   0.00000       0.00000    
      5135 MEMB     29       POPE     H2R      HDA2A    0.690000E-01   1.00800           0   0.00000       0.00000    
      5136 MEMB     29       POPE     H2S      HDA2A    0.690000E-01   1.00800           0   0.00000       0.00000    
      5137 MEMB     29       POPE     LP1A     LPD     -0.349000       0.00000          -1   0.00000       0.00000    
      5138 MEMB     29       POPE     LP1B     LPD     -0.258000       0.00000          -1   0.00000       0.00000    
      5139 MEMB     29       POPE     LPMA     LPD     -0.170000       0.00000          -1   0.00000       0.00000    
      5140 MEMB     29       POPE     LPMB     LPD     -0.170000       0.00000          -1   0.00000       0.00000    
      5141 MEMB     29       POPE     C3       CD32C     2.41230       11.6110           0  -1.79700      0.410000    
      5142 MEMB     29       POPE     DC3      DRUD     -2.32630      0.400000           0   0.00000       0.00000    
      5143 MEMB     29       POPE     HX       HDA2A    0.116000       1.00800           0   0.00000       0.00000    
      5144 MEMB     29       POPE     HY       HDA2A    0.116000       1.00800           0   0.00000       0.00000    
      5145 MEMB     29       POPE     O31      OD30CL    1.48470       15.5994           0 -0.732000      0.601000    
      5146 MEMB     29       POPE     DO31     DRUD     -1.48470      0.400000           0   0.00000       0.00000    
      5147 MEMB     29       POPE     C31      CD2O3B    2.72820       11.6110           0  -1.37000       1.74700    
      5148 MEMB     29       POPE     DC31     DRUD     -2.03120      0.400000           0   0.00000       0.00000    
      5149 MEMB     29       POPE     O32      OD2C3B    1.64990       15.5994           0 -0.904000      0.565000    
      5150 MEMB     29       POPE     DO32     DRUD     -1.64990      0.400000           0   0.00000       0.00000    
      5151 MEMB     29       POPE     C32      CD32C     2.24380       11.6110           0  -1.99300      0.410000    
      5152 MEMB     29       POPE     DC32     DRUD     -2.44980      0.400000           0   0.00000       0.00000    
      5153 MEMB     29       POPE     H2X      HDA2A    0.690000E-01   1.00800           0   0.00000       0.00000    
      5154 MEMB     29       POPE     H2Y      HDA2A    0.690000E-01   1.00800           0   0.00000       0.00000    
      5155 MEMB     29       POPE     LP1C     LPD     -0.349000       0.00000          -1   0.00000       0.00000    
      5156 MEMB     29       POPE     LP1D     LPD     -0.258000       0.00000          -1   0.00000       0.00000    
      5157 MEMB     29       POPE     LPMC     LPD     -0.170000       0.00000          -1   0.00000       0.00000    
      5158 MEMB     29       POPE     LPMD     LPD     -0.170000       0.00000          -1   0.00000       0.00000    
      5159 MEMB     29       POPE     C23      CD32A     2.07980       11.6110           0  -1.66000       1.30000    
      5160 MEMB     29       POPE     DC23     DRUD     -2.23580      0.400000           0   0.00000       0.00000    
      5161 MEMB     29       POPE     H3R      HDA2A    0.780000E-01   1.00800           0   0.00000       0.00000    
      5162 MEMB     29       POPE     H3S      HDA2A    0.780000E-01   1.00800           0   0.00000       0.00000    
      5163 MEMB     29       POPE     C24      CD32A     2.07980       11.6110           0  -1.66000       1.30000    
      5164 MEMB     29       POPE     DC24     DRUD     -2.23580      0.400000           0   0.00000       0.00000    
      5165 MEMB     29       POPE     H4R      HDA2A    0.780000E-01   1.00800           0   0.00000       0.00000    
      5166 MEMB     29       POPE     H4S      HDA2A    0.780000E-01   1.00800           0   0.00000       0.00000    
      5167 MEMB     29       POPE     C25      CD32A     2.07980       11.6110           0  -1.66000       1.30000    
      5168 MEMB     29       POPE     DC25     DRUD     -2.23580      0.400000           0   0.00000       0.00000    
      5169 MEMB     29       POPE     H5R      HDA2A    0.780000E-01   1.00800           0   0.00000       0.00000    
      5170 MEMB     29       POPE     H5S      HDA2A    0.780000E-01   1.00800           0   0.00000       0.00000    
      5171 MEMB     29       POPE     C26      CD32A     2.07980       11.6110           0  -1.66000       1.30000    
      5172 MEMB     29       POPE     DC26     DRUD     -2.23580      0.400000           0   0.00000       0.00000    
      5173 MEMB     29       POPE     H6R      HDA2A    0.780000E-01   1.00800           0   0.00000       0.00000    
      5174 MEMB     29       POPE     H6S      HDA2A    0.780000E-01   1.00800           0   0.00000       0.00000    
      5175 MEMB     29       POPE     C27      CD32A     2.07980       11.6110           0  -1.66000       1.30000    
      5176 MEMB     29       POPE     DC27     DRUD     -2.23580      0.400000           0   0.00000       0.00000    
      5177 MEMB     29       POPE     H7R      HDA2A    0.780000E-01   1.00800           0   0.00000       0.00000    
      5178 MEMB     29       POPE     H7S      HDA2A    0.780000E-01   1.00800           0   0.00000       0.00000    
      5179 MEMB     29       POPE     C28      CD32A     2.07980       11.6110           0  -1.66000       1.30000    
      5180 MEMB     29       POPE     DC28     DRUD     -2.23580      0.400000           0   0.00000       0.00000    
      5181 MEMB     29       POPE     H8R      HDA2A    0.780000E-01   1.00800           0   0.00000       0.00000    
      5182 MEMB     29       POPE     H8S      HDA2A    0.780000E-01   1.00800           0   0.00000       0.00000    
      5183 MEMB     29       POPE     C29      CD2C1A    2.33700       11.6110           0  -1.99000      0.750000    
      5184 MEMB     29       POPE     DC29     DRUD     -2.44800      0.400000           0   0.00000       0.00000    
      5185 MEMB     29       POPE     H91      HD2C1A   0.111000       1.00800           0   0.00000       0.00000    
      5186 MEMB     29       POPE     C210     CD2C1A    2.33700       11.6110           0  -1.99000      0.750000    
      5187 MEMB     29       POPE     DC210    DRUD     -2.44800      0.400000           0   0.00000       0.00000    
      5188 MEMB     29       POPE     H101     HD2C1A   0.111000       1.00800           0   0.00000       0.00000    
      5189 MEMB     29       POPE     C211     CD32A     2.07980       11.6110           0  -1.66000       1.30000    
      5190 MEMB     29       POPE     DC211    DRUD     -2.23580      0.400000           0   0.00000       0.00000    
      5191 MEMB     29       POPE     H11R     HDA2A    0.780000E-01   1.00800           0   0.00000       0.00000    
      5192 MEMB     29       POPE     H11S     HDA2A    0.780000E-01   1.00800           0   0.00000       0.00000    
      5193 MEMB     29       POPE     C212     CD32A     2.07980       11.6110           0  -1.66000       1.30000    
      5194 MEMB     29       POPE     DC212    DRUD     -2.23580      0.400000           0   0.00000       0.00000    
      5195 MEMB     29       POPE     H12R     HDA2A    0.780000E-01   1.00800           0   0.00000       0.00000    
      5196 MEMB     29       POPE     H12S     HDA2A    0.780000E-01   1.00800           0   0.00000       0.00000    
      5197 MEMB     29       POPE     C213     CD32A     2.07980       11.6110           0  -1.66000       1.30000    
      5198 MEMB     29       POPE     DC213    DRUD     -2.23580      0.400000           0   0.00000       0.00000    
      5199 MEMB     29       POPE     H13R     HDA2A    0.780000E-01   1.00800           0   0.00000       0.00000    
      5200 MEMB     29       POPE     H13S     HDA2A    0.780000E-01   1.00800           0   0.00000       0.00000    
      5201 MEMB     29       POPE     C214     CD32A     2.07980       11.6110           0  -1.66000       1.30000    
      5202 MEMB     29       POPE     DC214    DRUD     -2.23580      0.400000           0   0.00000       0.00000    
      5203 MEMB     29       POPE     H14R     HDA2A    0.780000E-01   1.00800           0   0.00000       0.00000    
      5204 MEMB     29       POPE     H14S     HDA2A    0.780000E-01   1.00800           0   0.00000       0.00000    
      5205 MEMB     29       POPE     C215     CD32A     2.07980       11.6110           0  -1.66000       1.30000    
      5206 MEMB     29       POPE     DC215    DRUD     -2.23580      0.400000           0   0.00000       0.00000    
      5207 MEMB     29       POPE     H15R     HDA2A    0.780000E-01   1.00800           0   0.00000       0.00000    
      5208 MEMB     29       POPE     H15S     HDA2A    0.780000E-01   1.00800           0   0.00000       0.00000    
      5209 MEMB     29       POPE     C216     CD32A     2.07980       11.6110           0  -1.66000       1.30000    
      5210 MEMB     29       POPE     DC216    DRUD     -2.23580      0.400000           0   0.00000       0.00000    
      5211 MEMB     29       POPE     H16R     HDA2A    0.780000E-01   1.00800           0   0.00000       0.00000    
      5212 MEMB     29       POPE     H16S     HDA2A    0.780000E-01   1.00800           0   0.00000       0.00000    
      5213 MEMB     29       POPE     C217     CD32A     2.07980       11.6110           0  -1.66000       1.30000    
      5214 MEMB     29       POPE     DC217    DRUD     -2.23580      0.400000           0   0.00000       0.00000    
      5215 MEMB     29       POPE     H17R     HDA2A    0.780000E-01   1.00800           0   0.00000       0.00000    
      5216 MEMB     29       POPE     H17S     HDA2A    0.780000E-01   1.00800           0   0.00000       0.00000    
      5217 MEMB     29       POPE     C218     CD33A     2.30820       11.6110           0  -2.05100       1.30000    
      5218 MEMB     29       POPE     DC218    DRUD     -2.48520      0.400000           0   0.00000       0.00000    
      5219 MEMB     29       POPE     H18R     HDA3A    0.590000E-01   1.00800           0   0.00000       0.00000    
      5220 MEMB     29       POPE     H18S     HDA3A    0.590000E-01   1.00800           0   0.00000       0.00000    
      5221 MEMB     29       POPE     H18T     HDA3A    0.590000E-01   1.00800           0   0.00000       0.00000    
      5222 MEMB     29       POPE     C33      CD32A     2.07980       11.6110           0  -1.66000       1.30000    
      5223 MEMB     29       POPE     DC33     DRUD     -2.23580      0.400000           0   0.00000       0.00000    
      5224 MEMB     29       POPE     H3X      HDA2A    0.780000E-01   1.00800           0   0.00000       0.00000    
      5225 MEMB     29       POPE     H3Y      HDA2A    0.780000E-01   1.00800           0   0.00000       0.00000    
      5226 MEMB     29       POPE     C34      CD32A     2.07980       11.6110           0  -1.66000       1.30000    
      5227 MEMB     29       POPE     DC34     DRUD     -2.23580      0.400000           0   0.00000       0.00000    
      5228 MEMB     29       POPE     H4X      HDA2A    0.780000E-01   1.00800           0   0.00000       0.00000    
      5229 MEMB     29       POPE     H4Y      HDA2A    0.780000E-01   1.00800           0   0.00000       0.00000    
      5230 MEMB     29       POPE     C35      CD32A     2.07980       11.6110           0  -1.66000       1.30000    
      5231 MEMB     29       POPE     DC35     DRUD     -2.23580      0.400000           0   0.00000       0.00000    
      5232 MEMB     29       POPE     H5X      HDA2A    0.780000E-01   1.00800           0   0.00000       0.00000    
      5233 MEMB     29       POPE     H5Y      HDA2A    0.780000E-01   1.00800           0   0.00000       0.00000    
      5234 MEMB     29       POPE     C36      CD32A     2.07980       11.6110           0  -1.66000       1.30000    
      5235 MEMB     29       POPE     DC36     DRUD     -2.23580      0.400000           0   0.00000       0.00000    
      5236 MEMB     29       POPE     H6X      HDA2A    0.780000E-01   1.00800           0   0.00000       0.00000    
      5237 MEMB     29       POPE     H6Y      HDA2A    0.780000E-01   1.00800           0   0.00000       0.00000    
      5238 MEMB     29       POPE     C37      CD32A     2.07980       11.6110           0  -1.66000       1.30000    
      5239 MEMB     29       POPE     DC37     DRUD     -2.23580      0.400000           0   0.00000       0.00000    
      5240 MEMB     29       POPE     H7X      HDA2A    0.780000E-01   1.00800           0   0.00000       0.00000    
      5241 MEMB     29       POPE     H7Y      HDA2A    0.780000E-01   1.00800           0   0.00000       0.00000    
      5242 MEMB     29       POPE     C38      CD32A     2.07980       11.6110           0  -1.66000       1.30000    
      5243 MEMB     29       POPE     DC38     DRUD     -2.23580      0.400000           0   0.00000       0.00000    
      5244 MEMB     29       POPE     H8X      HDA2A    0.780000E-01   1.00800           0   0.00000       0.00000    
      5245 MEMB     29       POPE     H8Y      HDA2A    0.780000E-01   1.00800           0   0.00000       0.00000    
      5246 MEMB     29       POPE     C39      CD32A     2.07980       11.6110           0  -1.66000       1.30000    
      5247 MEMB     29       POPE     DC39     DRUD     -2.23580      0.400000           0   0.00000       0.00000    
      5248 MEMB     29       POPE     H9X      HDA2A    0.780000E-01   1.00800           0   0.00000       0.00000    
      5249 MEMB     29       POPE     H9Y      HDA2A    0.780000E-01   1.00800           0   0.00000       0.00000    
      5250 MEMB     29       POPE     C310     CD32A     2.07980       11.6110           0  -1.66000       1.30000    
      5251 MEMB     29       POPE     DC310    DRUD     -2.23580      0.400000           0   0.00000       0.00000    
      5252 MEMB     29       POPE     H10X     HDA2A    0.780000E-01   1.00800           0   0.00000       0.00000    
      5253 MEMB     29       POPE     H10Y     HDA2A    0.780000E-01   1.00800           0   0.00000       0.00000    
      5254 MEMB     29       POPE     C311     CD32A     2.07980       11.6110           0  -1.66000       1.30000    
      5255 MEMB     29       POPE     DC311    DRUD     -2.23580      0.400000           0   0.00000       0.00000    
      5256 MEMB     29       POPE     H11X     HDA2A    0.780000E-01   1.00800           0   0.00000       0.00000    
      5257 MEMB     29       POPE     H11Y     HDA2A    0.780000E-01   1.00800           0   0.00000       0.00000    
      5258 MEMB     29       POPE     C312     CD32A     2.07980       11.6110           0  -1.66000       1.30000    
      5259 MEMB     29       POPE     DC312    DRUD     -2.23580      0.400000           0   0.00000       0.00000    
      5260 MEMB     29       POPE     H12X     HDA2A    0.780000E-01   1.00800           0   0.00000       0.00000    
      5261 MEMB     29       POPE     H12Y     HDA2A    0.780000E-01   1.00800           0   0.00000       0.00000    
      5262 MEMB     29       POPE     C313     CD32A     2.07980       11.6110           0  -1.66000       1.30000    
      5263 MEMB     29       POPE     DC313    DRUD     -2.23580      0.400000           0   0.00000       0.00000    
      5264 MEMB     29       POPE     H13X     HDA2A    0.780000E-01   1.00800           0   0.00000       0.00000    
      5265 MEMB     29       POPE     H13Y     HDA2A    0.780000E-01   1.00800           0   0.00000       0.00000    
      5266 MEMB     29       POPE     C314     CD32A     2.07980       11.6110           0  -1.66000       1.30000    
      5267 MEMB     29       POPE     DC314    DRUD     -2.23580      0.400000           0   0.00000       0.00000    
      5268 MEMB     29       POPE     H14X     HDA2A    0.780000E-01   1.00800           0   0.00000       0.00000    
      5269 MEMB     29       POPE     H14Y     HDA2A    0.780000E-01   1.00800           0   0.00000       0.00000    
      5270 MEMB     29       POPE     C315     CD32A     2.07980       11.6110           0  -1.66000       1.30000    
      5271 MEMB     29       POPE     DC315    DRUD     -2.23580      0.400000           0   0.00000       0.00000    
      5272 MEMB     29       POPE     H15X     HDA2A    0.780000E-01   1.00800           0   0.00000       0.00000    
      5273 MEMB     29       POPE     H15Y     HDA2A    0.780000E-01   1.00800           0   0.00000       0.00000    
      5274 MEMB     29       POPE     C316     CD33A     2.30820       11.6110           0  -2.05100       1.30000    
      5275 MEMB     29       POPE     DC316    DRUD     -2.48520      0.400000           0   0.00000       0.00000    
      5276 MEMB     29       POPE     H16X     HDA3A    0.590000E-01   1.00800           0   0.00000       0.00000    
      5277 MEMB     29       POPE     H16Y     HDA3A    0.590000E-01   1.00800           0   0.00000       0.00000    
      5278 MEMB     29       POPE     H16Z     HDA3A    0.590000E-01   1.00800           0   0.00000       0.00000    
      5279 MEMB     30       POPE     N        ND3P3A    1.62810       13.6070           0  -1.29800      0.895000    
      5280 MEMB     30       POPE     DN       DRUD     -1.97710      0.400000           0   0.00000       0.00000    
      5281 MEMB     30       POPE     HN1      HDP1B    0.340000       1.00800           0   0.00000       0.00000    
      5282 MEMB     30       POPE     HN2      HDP1B    0.340000       1.00800           0   0.00000       0.00000    
      5283 MEMB     30       POPE     HN3      HDP1B    0.340000       1.00800           0   0.00000       0.00000    
      5284 MEMB     30       POPE     C12      CD32A     2.27610       11.6110           0  -1.65600      0.895000    
      5285 MEMB     30       POPE     DC12     DRUD     -2.23310      0.400000           0   0.00000       0.00000    
      5286 MEMB     30       POPE     H12A     HDA2A    0.143000       1.00800           0   0.00000       0.00000    
      5287 MEMB     30       POPE     H12B     HDA2A    0.143000       1.00800           0   0.00000       0.00000    
      5288 MEMB     30       POPE     C11      CD32A     2.42220       11.6110           0  -1.64200      0.862000    
      5289 MEMB     30       POPE     DC11     DRUD     -2.22370      0.400000           0   0.00000       0.00000    
      5290 MEMB     30       POPE     H11A     HDA2A    0.260000E-01   1.00800           0   0.00000       0.00000    
      5291 MEMB     30       POPE     H11B     HDA2A    0.260000E-01   1.00800           0   0.00000       0.00000    
      5292 MEMB     30       POPE     P        PD1A      2.90360       30.5740           0 -0.974000       2.09800    
      5293 MEMB     30       POPE     DP       DRUD     -1.71260      0.400000           0   0.00000       0.00000    
      5294 MEMB     30       POPE     O13      OD2C2B   0.798400       15.5994           0 -0.931000       1.08300    
      5295 MEMB     30       POPE     DO13     DRUD     -1.67440      0.400000           0   0.00000       0.00000    
      5296 MEMB     30       POPE     O14      OD2C2B   0.798400       15.5994           0 -0.931000       1.08300    
      5297 MEMB     30       POPE     DO14     DRUD     -1.67440      0.400000           0   0.00000       0.00000    
      5298 MEMB     30       POPE     O11      OD30B     1.17720       15.5994           0 -0.901000      0.181000    
      5299 MEMB     30       POPE     DO11     DRUD     -1.64720      0.400000           0   0.00000       0.00000    
      5300 MEMB     30       POPE     O12      OD30B     1.17720       15.5994           0 -0.901000      0.181000    
      5301 MEMB     30       POPE     DO12     DRUD     -1.64720      0.400000           0   0.00000       0.00000    
      5302 MEMB     30       POPE     C1       CD32A     2.42220       11.6110           0  -1.64200      0.862000    
      5303 MEMB     30       POPE     DC1      DRUD     -2.22370      0.400000           0   0.00000       0.00000    
      5304 MEMB     30       POPE     HA       HDA2A    0.260000E-01   1.00800           0   0.00000       0.00000    
      5305 MEMB     30       POPE     HB       HDA2A    0.260000E-01   1.00800           0   0.00000       0.00000    
      5306 MEMB     30       POPE     C2       CD31C     2.52830       11.6110           0  -1.79700      0.410000    
      5307 MEMB     30       POPE     DC2      DRUD     -2.32630      0.400000           0   0.00000       0.00000    
      5308 MEMB     30       POPE     HS       HDA1A    0.116000       1.00800           0   0.00000       0.00000    
      5309 MEMB     30       POPE     O21      OD30CL    1.48470       15.5994           0 -0.732000      0.601000    
      5310 MEMB     30       POPE     DO21     DRUD     -1.48470      0.400000           0   0.00000       0.00000    
      5311 MEMB     30       POPE     C21      CD2O3B    2.72820       11.6110           0  -1.37000       1.74700    
      5312 MEMB     30       POPE     DC21     DRUD     -2.03120      0.400000           0   0.00000       0.00000    
      5313 MEMB     30       POPE     O22      OD2C3B    1.64990       15.5994           0 -0.904000      0.565000    
      5314 MEMB     30       POPE     DO22     DRUD     -1.64990      0.400000           0   0.00000       0.00000    
      5315 MEMB     30       POPE     C22      CD32C     2.24380       11.6110           0  -1.99300      0.410000    
      5316 MEMB     30       POPE     DC22     DRUD     -2.44980      0.400000           0   0.00000       0.00000    
      5317 MEMB     30       POPE     H2R      HDA2A    0.690000E-01   1.00800           0   0.00000       0.00000    
      5318 MEMB     30       POPE     H2S      HDA2A    0.690000E-01   1.00800           0   0.00000       0.00000    
      5319 MEMB     30       POPE     LP1A     LPD     -0.349000       0.00000          -1   0.00000       0.00000    
      5320 MEMB     30       POPE     LP1B     LPD     -0.258000       0.00000          -1   0.00000       0.00000    
      5321 MEMB     30       POPE     LPMA     LPD     -0.170000       0.00000          -1   0.00000       0.00000    
      5322 MEMB     30       POPE     LPMB     LPD     -0.170000       0.00000          -1   0.00000       0.00000    
      5323 MEMB     30       POPE     C3       CD32C     2.41230       11.6110           0  -1.79700      0.410000    
      5324 MEMB     30       POPE     DC3      DRUD     -2.32630      0.400000           0   0.00000       0.00000    
      5325 MEMB     30       POPE     HX       HDA2A    0.116000       1.00800           0   0.00000       0.00000    
      5326 MEMB     30       POPE     HY       HDA2A    0.116000       1.00800           0   0.00000       0.00000    
      5327 MEMB     30       POPE     O31      OD30CL    1.48470       15.5994           0 -0.732000      0.601000    
      5328 MEMB     30       POPE     DO31     DRUD     -1.48470      0.400000           0   0.00000       0.00000    
      5329 MEMB     30       POPE     C31      CD2O3B    2.72820       11.6110           0  -1.37000       1.74700    
      5330 MEMB     30       POPE     DC31     DRUD     -2.03120      0.400000           0   0.00000       0.00000    
      5331 MEMB     30       POPE     O32      OD2C3B    1.64990       15.5994           0 -0.904000      0.565000    
      5332 MEMB     30       POPE     DO32     DRUD     -1.64990      0.400000           0   0.00000       0.00000    
      5333 MEMB     30       POPE     C32      CD32C     2.24380       11.6110           0  -1.99300      0.410000    
      5334 MEMB     30       POPE     DC32     DRUD     -2.44980      0.400000           0   0.00000       0.00000    
      5335 MEMB     30       POPE     H2X      HDA2A    0.690000E-01   1.00800           0   0.00000       0.00000    
      5336 MEMB     30       POPE     H2Y      HDA2A    0.690000E-01   1.00800           0   0.00000       0.00000    
      5337 MEMB     30       POPE     LP1C     LPD     -0.349000       0.00000          -1   0.00000       0.00000    
      5338 MEMB     30       POPE     LP1D     LPD     -0.258000       0.00000          -1   0.00000       0.00000    
      5339 MEMB     30       POPE     LPMC     LPD     -0.170000       0.00000          -1   0.00000       0.00000    
      5340 MEMB     30       POPE     LPMD     LPD     -0.170000       0.00000          -1   0.00000       0.00000    
      5341 MEMB     30       POPE     C23      CD32A     2.07980       11.6110           0  -1.66000       1.30000    
      5342 MEMB     30       POPE     DC23     DRUD     -2.23580      0.400000           0   0.00000       0.00000    
      5343 MEMB     30       POPE     H3R      HDA2A    0.780000E-01   1.00800           0   0.00000       0.00000    
      5344 MEMB     30       POPE     H3S      HDA2A    0.780000E-01   1.00800           0   0.00000       0.00000    
      5345 MEMB     30       POPE     C24      CD32A     2.07980       11.6110           0  -1.66000       1.30000    
      5346 MEMB     30       POPE     DC24     DRUD     -2.23580      0.400000           0   0.00000       0.00000    
      5347 MEMB     30       POPE     H4R      HDA2A    0.780000E-01   1.00800           0   0.00000       0.00000    
      5348 MEMB     30       POPE     H4S      HDA2A    0.780000E-01   1.00800           0   0.00000       0.00000    
      5349 MEMB     30       POPE     C25      CD32A     2.07980       11.6110           0  -1.66000       1.30000    
      5350 MEMB     30       POPE     DC25     DRUD     -2.23580      0.400000           0   0.00000       0.00000    
      5351 MEMB     30       POPE     H5R      HDA2A    0.780000E-01   1.00800           0   0.00000       0.00000    
      5352 MEMB     30       POPE     H5S      HDA2A    0.780000E-01   1.00800           0   0.00000       0.00000    
      5353 MEMB     30       POPE     C26      CD32A     2.07980       11.6110           0  -1.66000       1.30000    
      5354 MEMB     30       POPE     DC26     DRUD     -2.23580      0.400000           0   0.00000       0.00000    
      5355 MEMB     30       POPE     H6R      HDA2A    0.780000E-01   1.00800           0   0.00000       0.00000    
      5356 MEMB     30       POPE     H6S      HDA2A    0.780000E-01   1.00800           0   0.00000       0.00000    
      5357 MEMB     30       POPE     C27      CD32A     2.07980       11.6110           0  -1.66000       1.30000    
      5358 MEMB     30       POPE     DC27     DRUD     -2.23580      0.400000           0   0.00000       0.00000    
      5359 MEMB     30       POPE     H7R      HDA2A    0.780000E-01   1.00800           0   0.00000       0.00000    
      5360 MEMB     30       POPE     H7S      HDA2A    0.780000E-01   1.00800           0   0.00000       0.00000    
      5361 MEMB     30       POPE     C28      CD32A     2.07980       11.6110           0  -1.66000       1.30000    
      5362 MEMB     30       POPE     DC28     DRUD     -2.23580      0.400000           0   0.00000       0.00000    
      5363 MEMB     30       POPE     H8R      HDA2A    0.780000E-01   1.00800           0   0.00000       0.00000    
      5364 MEMB     30       POPE     H8S      HDA2A    0.780000E-01   1.00800           0   0.00000       0.00000    
      5365 MEMB     30       POPE     C29      CD2C1A    2.33700       11.6110           0  -1.99000      0.750000    
      5366 MEMB     30       POPE     DC29     DRUD     -2.44800      0.400000           0   0.00000       0.00000    
      5367 MEMB     30       POPE     H91      HD2C1A   0.111000       1.00800           0   0.00000       0.00000    
      5368 MEMB     30       POPE     C210     CD2C1A    2.33700       11.6110           0  -1.99000      0.750000    
      5369 MEMB     30       POPE     DC210    DRUD     -2.44800      0.400000           0   0.00000       0.00000    
      5370 MEMB     30       POPE     H101     HD2C1A   0.111000       1.00800           0   0.00000       0.00000    
      5371 MEMB     30       POPE     C211     CD32A     2.07980       11.6110           0  -1.66000       1.30000    
      5372 MEMB     30       POPE     DC211    DRUD     -2.23580      0.400000           0   0.00000       0.00000    
      5373 MEMB     30       POPE     H11R     HDA2A    0.780000E-01   1.00800           0   0.00000       0.00000    
      5374 MEMB     30       POPE     H11S     HDA2A    0.780000E-01   1.00800           0   0.00000       0.00000    
      5375 MEMB     30       POPE     C212     CD32A     2.07980       11.6110           0  -1.66000       1.30000    
      5376 MEMB     30       POPE     DC212    DRUD     -2.23580      0.400000           0   0.00000       0.00000    
      5377 MEMB     30       POPE     H12R     HDA2A    0.780000E-01   1.00800           0   0.00000       0.00000    
      5378 MEMB     30       POPE     H12S     HDA2A    0.780000E-01   1.00800           0   0.00000       0.00000    
      5379 MEMB     30       POPE     C213     CD32A     2.07980       11.6110           0  -1.66000       1.30000    
      5380 MEMB     30       POPE     DC213    DRUD     -2.23580      0.400000           0   0.00000       0.00000    
      5381 MEMB     30       POPE     H13R     HDA2A    0.780000E-01   1.00800           0   0.00000       0.00000    
      5382 MEMB     30       POPE     H13S     HDA2A    0.780000E-01   1.00800           0   0.00000       0.00000    
      5383 MEMB     30       POPE     C214     CD32A     2.07980       11.6110           0  -1.66000       1.30000    
      5384 MEMB     30       POPE     DC214    DRUD     -2.23580      0.400000           0   0.00000       0.00000    
      5385 MEMB     30       POPE     H14R     HDA2A    0.780000E-01   1.00800           0   0.00000       0.00000    
      5386 MEMB     30       POPE     H14S     HDA2A    0.780000E-01   1.00800           0   0.00000       0.00000    
      5387 MEMB     30       POPE     C215     CD32A     2.07980       11.6110           0  -1.66000       1.30000    
      5388 MEMB     30       POPE     DC215    DRUD     -2.23580      0.400000           0   0.00000       0.00000    
      5389 MEMB     30       POPE     H15R     HDA2A    0.780000E-01   1.00800           0   0.00000       0.00000    
      5390 MEMB     30       POPE     H15S     HDA2A    0.780000E-01   1.00800           0   0.00000       0.00000    
      5391 MEMB     30       POPE     C216     CD32A     2.07980       11.6110           0  -1.66000       1.30000    
      5392 MEMB     30       POPE     DC216    DRUD     -2.23580      0.400000           0   0.00000       0.00000    
      5393 MEMB     30       POPE     H16R     HDA2A    0.780000E-01   1.00800           0   0.00000       0.00000    
      5394 MEMB     30       POPE     H16S     HDA2A    0.780000E-01   1.00800           0   0.00000       0.00000    
      5395 MEMB     30       POPE     C217     CD32A     2.07980       11.6110           0  -1.66000       1.30000    
      5396 MEMB     30       POPE     DC217    DRUD     -2.23580      0.400000           0   0.00000       0.00000    
      5397 MEMB     30       POPE     H17R     HDA2A    0.780000E-01   1.00800           0   0.00000       0.00000    
      5398 MEMB     30       POPE     H17S     HDA2A    0.780000E-01   1.00800           0   0.00000       0.00000    
      5399 MEMB     30       POPE     C218     CD33A     2.30820       11.6110           0  -2.05100       1.30000    
      5400 MEMB     30       POPE     DC218    DRUD     -2.48520      0.400000           0   0.00000       0.00000    
      5401 MEMB     30       POPE     H18R     HDA3A    0.590000E-01   1.00800           0   0.00000       0.00000    
      5402 MEMB     30       POPE     H18S     HDA3A    0.590000E-01   1.00800           0   0.00000       0.00000    
      5403 MEMB     30       POPE     H18T     HDA3A    0.590000E-01   1.00800           0   0.00000       0.00000    
      5404 MEMB     30       POPE     C33      CD32A     2.07980       11.6110           0  -1.66000       1.30000    
      5405 MEMB     30       POPE     DC33     DRUD     -2.23580      0.400000           0   0.00000       0.00000    
      5406 MEMB     30       POPE     H3X      HDA2A    0.780000E-01   1.00800           0   0.00000       0.00000    
      5407 MEMB     30       POPE     H3Y      HDA2A    0.780000E-01   1.00800           0   0.00000       0.00000    
      5408 MEMB     30       POPE     C34      CD32A     2.07980       11.6110           0  -1.66000       1.30000    
      5409 MEMB     30       POPE     DC34     DRUD     -2.23580      0.400000           0   0.00000       0.00000    
      5410 MEMB     30       POPE     H4X      HDA2A    0.780000E-01   1.00800           0   0.00000       0.00000    
      5411 MEMB     30       POPE     H4Y      HDA2A    0.780000E-01   1.00800           0   0.00000       0.00000    
      5412 MEMB     30       POPE     C35      CD32A     2.07980       11.6110           0  -1.66000       1.30000    
      5413 MEMB     30       POPE     DC35     DRUD     -2.23580      0.400000           0   0.00000       0.00000    
      5414 MEMB     30       POPE     H5X      HDA2A    0.780000E-01   1.00800           0   0.00000       0.00000    
      5415 MEMB     30       POPE     H5Y      HDA2A    0.780000E-01   1.00800           0   0.00000       0.00000    
      5416 MEMB     30       POPE     C36      CD32A     2.07980       11.6110           0  -1.66000       1.30000    
      5417 MEMB     30       POPE     DC36     DRUD     -2.23580      0.400000           0   0.00000       0.00000    
      5418 MEMB     30       POPE     H6X      HDA2A    0.780000E-01   1.00800           0   0.00000       0.00000    
      5419 MEMB     30       POPE     H6Y      HDA2A    0.780000E-01   1.00800           0   0.00000       0.00000    
      5420 MEMB     30       POPE     C37      CD32A     2.07980       11.6110           0  -1.66000       1.30000    
      5421 MEMB     30       POPE     DC37     DRUD     -2.23580      0.400000           0   0.00000       0.00000    
      5422 MEMB     30       POPE     H7X      HDA2A    0.780000E-01   1.00800           0   0.00000       0.00000    
      5423 MEMB     30       POPE     H7Y      HDA2A    0.780000E-01   1.00800           0   0.00000       0.00000    
      5424 MEMB     30       POPE     C38      CD32A     2.07980       11.6110           0  -1.66000       1.30000    
      5425 MEMB     30       POPE     DC38     DRUD     -2.23580      0.400000           0   0.00000       0.00000    
      5426 MEMB     30       POPE     H8X      HDA2A    0.780000E-01   1.00800           0   0.00000       0.00000    
      5427 MEMB     30       POPE     H8Y      HDA2A    0.780000E-01   1.00800           0   0.00000       0.00000    
      5428 MEMB     30       POPE     C39      CD32A     2.07980       11.6110           0  -1.66000       1.30000    
      5429 MEMB     30       POPE     DC39     DRUD     -2.23580      0.400000           0   0.00000       0.00000    
      5430 MEMB     30       POPE     H9X      HDA2A    0.780000E-01   1.00800           0   0.00000       0.00000    
      5431 MEMB     30       POPE     H9Y      HDA2A    0.780000E-01   1.00800           0   0.00000       0.00000    
      5432 MEMB     30       POPE     C310     CD32A     2.07980       11.6110           0  -1.66000       1.30000    
      5433 MEMB     30       POPE     DC310    DRUD     -2.23580      0.400000           0   0.00000       0.00000    
      5434 MEMB     30       POPE     H10X     HDA2A    0.780000E-01   1.00800           0   0.00000       0.00000    
      5435 MEMB     30       POPE     H10Y     HDA2A    0.780000E-01   1.00800           0   0.00000       0.00000    
      5436 MEMB     30       POPE     C311     CD32A     2.07980       11.6110           0  -1.66000       1.30000    
      5437 MEMB     30       POPE     DC311    DRUD     -2.23580      0.400000           0   0.00000       0.00000    
      5438 MEMB     30       POPE     H11X     HDA2A    0.780000E-01   1.00800           0   0.00000       0.00000    
      5439 MEMB     30       POPE     H11Y     HDA2A    0.780000E-01   1.00800           0   0.00000       0.00000    
      5440 MEMB     30       POPE     C312     CD32A     2.07980       11.6110           0  -1.66000       1.30000    
      5441 MEMB     30       POPE     DC312    DRUD     -2.23580      0.400000           0   0.00000       0.00000    
      5442 MEMB     30       POPE     H12X     HDA2A    0.780000E-01   1.00800           0   0.00000       0.00000    
      5443 MEMB     30       POPE     H12Y     HDA2A    0.780000E-01   1.00800           0   0.00000       0.00000    
      5444 MEMB     30       POPE     C313     CD32A     2.07980       11.6110           0  -1.66000       1.30000    
      5445 MEMB     30       POPE     DC313    DRUD     -2.23580      0.400000           0   0.00000       0.00000    
      5446 MEMB     30       POPE     H13X     HDA2A    0.780000E-01   1.00800           0   0.00000       0.00000    
      5447 MEMB     30       POPE     H13Y     HDA2A    0.780000E-01   1.00800           0   0.00000       0.00000    
      5448 MEMB     30       POPE     C314     CD32A     2.07980       11.6110           0  -1.66000       1.30000    
      5449 MEMB     30       POPE     DC314    DRUD     -2.23580      0.400000           0   0.00000       0.00000    
      5450 MEMB     30       POPE     H14X     HDA2A    0.780000E-01   1.00800           0   0.00000       0.00000    
      5451 MEMB     30       POPE     H14Y     HDA2A    0.780000E-01   1.00800           0   0.00000       0.00000    
      5452 MEMB     30       POPE     C315     CD32A     2.07980       11.6110           0  -1.66000       1.30000    
      5453 MEMB     30       POPE     DC315    DRUD     -2.23580      0.400000           0   0.00000       0.00000    
      5454 MEMB     30       POPE     H15X     HDA2A    0.780000E-01   1.00800           0   0.00000       0.00000    
      5455 MEMB     30       POPE     H15Y     HDA2A    0.780000E-01   1.00800           0   0.00000       0.00000    
      5456 MEMB     30       POPE     C316     CD33A     2.30820       11.6110           0  -2.05100       1.30000    
      5457 MEMB     30       POPE     DC316    DRUD     -2.48520      0.400000           0   0.00000       0.00000    
      5458 MEMB     30       POPE     H16X     HDA3A    0.590000E-01   1.00800           0   0.00000       0.00000    
      5459 MEMB     30       POPE     H16Y     HDA3A    0.590000E-01   1.00800           0   0.00000       0.00000    
      5460 MEMB     30       POPE     H16Z     HDA3A    0.590000E-01   1.00800           0   0.00000       0.00000    
      5461 MEMB     31       POPE     N        ND3P3A    1.62810       13.6070           0  -1.29800      0.895000    
      5462 MEMB     31       POPE     DN       DRUD     -1.97710      0.400000           0   0.00000       0.00000    
      5463 MEMB     31       POPE     HN1      HDP1B    0.340000       1.00800           0   0.00000       0.00000    
      5464 MEMB     31       POPE     HN2      HDP1B    0.340000       1.00800           0   0.00000       0.00000    
      5465 MEMB     31       POPE     HN3      HDP1B    0.340000       1.00800           0   0.00000       0.00000    
      5466 MEMB     31       POPE     C12      CD32A     2.27610       11.6110           0  -1.65600      0.895000    
      5467 MEMB     31       POPE     DC12     DRUD     -2.23310      0.400000           0   0.00000       0.00000    
      5468 MEMB     31       POPE     H12A     HDA2A    0.143000       1.00800           0   0.00000       0.00000    
      5469 MEMB     31       POPE     H12B     HDA2A    0.143000       1.00800           0   0.00000       0.00000    
      5470 MEMB     31       POPE     C11      CD32A     2.42220       11.6110           0  -1.64200      0.862000    
      5471 MEMB     31       POPE     DC11     DRUD     -2.22370      0.400000           0   0.00000       0.00000    
      5472 MEMB     31       POPE     H11A     HDA2A    0.260000E-01   1.00800           0   0.00000       0.00000    
      5473 MEMB     31       POPE     H11B     HDA2A    0.260000E-01   1.00800           0   0.00000       0.00000    
      5474 MEMB     31       POPE     P        PD1A      2.90360       30.5740           0 -0.974000       2.09800    
      5475 MEMB     31       POPE     DP       DRUD     -1.71260      0.400000           0   0.00000       0.00000    
      5476 MEMB     31       POPE     O13      OD2C2B   0.798400       15.5994           0 -0.931000       1.08300    
      5477 MEMB     31       POPE     DO13     DRUD     -1.67440      0.400000           0   0.00000       0.00000    
      5478 MEMB     31       POPE     O14      OD2C2B   0.798400       15.5994           0 -0.931000       1.08300    
      5479 MEMB     31       POPE     DO14     DRUD     -1.67440      0.400000           0   0.00000       0.00000    
      5480 MEMB     31       POPE     O11      OD30B     1.17720       15.5994           0 -0.901000      0.181000    
      5481 MEMB     31       POPE     DO11     DRUD     -1.64720      0.400000           0   0.00000       0.00000    
      5482 MEMB     31       POPE     O12      OD30B     1.17720       15.5994           0 -0.901000      0.181000    
      5483 MEMB     31       POPE     DO12     DRUD     -1.64720      0.400000           0   0.00000       0.00000    
      5484 MEMB     31       POPE     C1       CD32A     2.42220       11.6110           0  -1.64200      0.862000    
      5485 MEMB     31       POPE     DC1      DRUD     -2.22370      0.400000           0   0.00000       0.00000    
      5486 MEMB     31       POPE     HA       HDA2A    0.260000E-01   1.00800           0   0.00000       0.00000    
      5487 MEMB     31       POPE     HB       HDA2A    0.260000E-01   1.00800           0   0.00000       0.00000    
      5488 MEMB     31       POPE     C2       CD31C     2.52830       11.6110           0  -1.79700      0.410000    
      5489 MEMB     31       POPE     DC2      DRUD     -2.32630      0.400000           0   0.00000       0.00000    
      5490 MEMB     31       POPE     HS       HDA1A    0.116000       1.00800           0   0.00000       0.00000    
      5491 MEMB     31       POPE     O21      OD30CL    1.48470       15.5994           0 -0.732000      0.601000    
      5492 MEMB     31       POPE     DO21     DRUD     -1.48470      0.400000           0   0.00000       0.00000    
      5493 MEMB     31       POPE     C21      CD2O3B    2.72820       11.6110           0  -1.37000       1.74700    
      5494 MEMB     31       POPE     DC21     DRUD     -2.03120      0.400000           0   0.00000       0.00000    
      5495 MEMB     31       POPE     O22      OD2C3B    1.64990       15.5994           0 -0.904000      0.565000    
      5496 MEMB     31       POPE     DO22     DRUD     -1.64990      0.400000           0   0.00000       0.00000    
      5497 MEMB     31       POPE     C22      CD32C     2.24380       11.6110           0  -1.99300      0.410000    
      5498 MEMB     31       POPE     DC22     DRUD     -2.44980      0.400000           0   0.00000       0.00000    
      5499 MEMB     31       POPE     H2R      HDA2A    0.690000E-01   1.00800           0   0.00000       0.00000    
      5500 MEMB     31       POPE     H2S      HDA2A    0.690000E-01   1.00800           0   0.00000       0.00000    
      5501 MEMB     31       POPE     LP1A     LPD     -0.349000       0.00000          -1   0.00000       0.00000    
      5502 MEMB     31       POPE     LP1B     LPD     -0.258000       0.00000          -1   0.00000       0.00000    
      5503 MEMB     31       POPE     LPMA     LPD     -0.170000       0.00000          -1   0.00000       0.00000    
      5504 MEMB     31       POPE     LPMB     LPD     -0.170000       0.00000          -1   0.00000       0.00000    
      5505 MEMB     31       POPE     C3       CD32C     2.41230       11.6110           0  -1.79700      0.410000    
      5506 MEMB     31       POPE     DC3      DRUD     -2.32630      0.400000           0   0.00000       0.00000    
      5507 MEMB     31       POPE     HX       HDA2A    0.116000       1.00800           0   0.00000       0.00000    
      5508 MEMB     31       POPE     HY       HDA2A    0.116000       1.00800           0   0.00000       0.00000    
      5509 MEMB     31       POPE     O31      OD30CL    1.48470       15.5994           0 -0.732000      0.601000    
      5510 MEMB     31       POPE     DO31     DRUD     -1.48470      0.400000           0   0.00000       0.00000    
      5511 MEMB     31       POPE     C31      CD2O3B    2.72820       11.6110           0  -1.37000       1.74700    
      5512 MEMB     31       POPE     DC31     DRUD     -2.03120      0.400000           0   0.00000       0.00000    
      5513 MEMB     31       POPE     O32      OD2C3B    1.64990       15.5994           0 -0.904000      0.565000    
      5514 MEMB     31       POPE     DO32     DRUD     -1.64990      0.400000           0   0.00000       0.00000    
      5515 MEMB     31       POPE     C32      CD32C     2.24380       11.6110           0  -1.99300      0.410000    
      5516 MEMB     31       POPE     DC32     DRUD     -2.44980      0.400000           0   0.00000       0.00000    
      5517 MEMB     31       POPE     H2X      HDA2A    0.690000E-01   1.00800           0   0.00000       0.00000    
      5518 MEMB     31       POPE     H2Y      HDA2A    0.690000E-01   1.00800           0   0.00000       0.00000    
      5519 MEMB     31       POPE     LP1C     LPD     -0.349000       0.00000          -1   0.00000       0.00000    
      5520 MEMB     31       POPE     LP1D     LPD     -0.258000       0.00000          -1   0.00000       0.00000    
      5521 MEMB     31       POPE     LPMC     LPD     -0.170000       0.00000          -1   0.00000       0.00000    
      5522 MEMB     31       POPE     LPMD     LPD     -0.170000       0.00000          -1   0.00000       0.00000    
      5523 MEMB     31       POPE     C23      CD32A     2.07980       11.6110           0  -1.66000       1.30000    
      5524 MEMB     31       POPE     DC23     DRUD     -2.23580      0.400000           0   0.00000       0.00000    
      5525 MEMB     31       POPE     H3R      HDA2A    0.780000E-01   1.00800           0   0.00000       0.00000    
      5526 MEMB     31       POPE     H3S      HDA2A    0.780000E-01   1.00800           0   0.00000       0.00000    
      5527 MEMB     31       POPE     C24      CD32A     2.07980       11.6110           0  -1.66000       1.30000    
      5528 MEMB     31       POPE     DC24     DRUD     -2.23580      0.400000           0   0.00000       0.00000    
      5529 MEMB     31       POPE     H4R      HDA2A    0.780000E-01   1.00800           0   0.00000       0.00000    
      5530 MEMB     31       POPE     H4S      HDA2A    0.780000E-01   1.00800           0   0.00000       0.00000    
      5531 MEMB     31       POPE     C25      CD32A     2.07980       11.6110           0  -1.66000       1.30000    
      5532 MEMB     31       POPE     DC25     DRUD     -2.23580      0.400000           0   0.00000       0.00000    
      5533 MEMB     31       POPE     H5R      HDA2A    0.780000E-01   1.00800           0   0.00000       0.00000    
      5534 MEMB     31       POPE     H5S      HDA2A    0.780000E-01   1.00800           0   0.00000       0.00000    
      5535 MEMB     31       POPE     C26      CD32A     2.07980       11.6110           0  -1.66000       1.30000    
      5536 MEMB     31       POPE     DC26     DRUD     -2.23580      0.400000           0   0.00000       0.00000    
      5537 MEMB     31       POPE     H6R      HDA2A    0.780000E-01   1.00800           0   0.00000       0.00000    
      5538 MEMB     31       POPE     H6S      HDA2A    0.780000E-01   1.00800           0   0.00000       0.00000    
      5539 MEMB     31       POPE     C27      CD32A     2.07980       11.6110           0  -1.66000       1.30000    
      5540 MEMB     31       POPE     DC27     DRUD     -2.23580      0.400000           0   0.00000       0.00000    
      5541 MEMB     31       POPE     H7R      HDA2A    0.780000E-01   1.00800           0   0.00000       0.00000    
      5542 MEMB     31       POPE     H7S      HDA2A    0.780000E-01   1.00800           0   0.00000       0.00000    
      5543 MEMB     31       POPE     C28      CD32A     2.07980       11.6110           0  -1.66000       1.30000    
      5544 MEMB     31       POPE     DC28     DRUD     -2.23580      0.400000           0   0.00000       0.00000    
      5545 MEMB     31       POPE     H8R      HDA2A    0.780000E-01   1.00800           0   0.00000       0.00000    
      5546 MEMB     31       POPE     H8S      HDA2A    0.780000E-01   1.00800           0   0.00000       0.00000    
      5547 MEMB     31       POPE     C29      CD2C1A    2.33700       11.6110           0  -1.99000      0.750000    
      5548 MEMB     31       POPE     DC29     DRUD     -2.44800      0.400000           0   0.00000       0.00000    
      5549 MEMB     31       POPE     H91      HD2C1A   0.111000       1.00800           0   0.00000       0.00000    
      5550 MEMB     31       POPE     C210     CD2C1A    2.33700       11.6110           0  -1.99000      0.750000    
      5551 MEMB     31       POPE     DC210    DRUD     -2.44800      0.400000           0   0.00000       0.00000    
      5552 MEMB     31       POPE     H101     HD2C1A   0.111000       1.00800           0   0.00000       0.00000    
      5553 MEMB     31       POPE     C211     CD32A     2.07980       11.6110           0  -1.66000       1.30000    
      5554 MEMB     31       POPE     DC211    DRUD     -2.23580      0.400000           0   0.00000       0.00000    
      5555 MEMB     31       POPE     H11R     HDA2A    0.780000E-01   1.00800           0   0.00000       0.00000    
      5556 MEMB     31       POPE     H11S     HDA2A    0.780000E-01   1.00800           0   0.00000       0.00000    
      5557 MEMB     31       POPE     C212     CD32A     2.07980       11.6110           0  -1.66000       1.30000    
      5558 MEMB     31       POPE     DC212    DRUD     -2.23580      0.400000           0   0.00000       0.00000    
      5559 MEMB     31       POPE     H12R     HDA2A    0.780000E-01   1.00800           0   0.00000       0.00000    
      5560 MEMB     31       POPE     H12S     HDA2A    0.780000E-01   1.00800           0   0.00000       0.00000    
      5561 MEMB     31       POPE     C213     CD32A     2.07980       11.6110           0  -1.66000       1.30000    
      5562 MEMB     31       POPE     DC213    DRUD     -2.23580      0.400000           0   0.00000       0.00000    
      5563 MEMB     31       POPE     H13R     HDA2A    0.780000E-01   1.00800           0   0.00000       0.00000    
      5564 MEMB     31       POPE     H13S     HDA2A    0.780000E-01   1.00800           0   0.00000       0.00000    
      5565 MEMB     31       POPE     C214     CD32A     2.07980       11.6110           0  -1.66000       1.30000    
      5566 MEMB     31       POPE     DC214    DRUD     -2.23580      0.400000           0   0.00000       0.00000    
      5567 MEMB     31       POPE     H14R     HDA2A    0.780000E-01   1.00800           0   0.00000       0.00000    
      5568 MEMB     31       POPE     H14S     HDA2A    0.780000E-01   1.00800           0   0.00000       0.00000    
      5569 MEMB     31       POPE     C215     CD32A     2.07980       11.6110           0  -1.66000       1.30000    
      5570 MEMB     31       POPE     DC215    DRUD     -2.23580      0.400000           0   0.00000       0.00000    
      5571 MEMB     31       POPE     H15R     HDA2A    0.780000E-01   1.00800           0   0.00000       0.00000    
      5572 MEMB     31       POPE     H15S     HDA2A    0.780000E-01   1.00800           0   0.00000       0.00000    
      5573 MEMB     31       POPE     C216     CD32A     2.07980       11.6110           0  -1.66000       1.30000    
      5574 MEMB     31       POPE     DC216    DRUD     -2.23580      0.400000           0   0.00000       0.00000    
      5575 MEMB     31       POPE     H16R     HDA2A    0.780000E-01   1.00800           0   0.00000       0.00000    
      5576 MEMB     31       POPE     H16S     HDA2A    0.780000E-01   1.00800           0   0.00000       0.00000    
      5577 MEMB     31       POPE     C217     CD32A     2.07980       11.6110           0  -1.66000       1.30000    
      5578 MEMB     31       POPE     DC217    DRUD     -2.23580      0.400000           0   0.00000       0.00000    
      5579 MEMB     31       POPE     H17R     HDA2A    0.780000E-01   1.00800           0   0.00000       0.00000    
      5580 MEMB     31       POPE     H17S     HDA2A    0.780000E-01   1.00800           0   0.00000       0.00000    
      5581 MEMB     31       POPE     C218     CD33A     2.30820       11.6110           0  -2.05100       1.30000    
      5582 MEMB     31       POPE     DC218    DRUD     -2.48520      0.400000           0   0.00000       0.00000    
      5583 MEMB     31       POPE     H18R     HDA3A    0.590000E-01   1.00800           0   0.00000       0.00000    
      5584 MEMB     31       POPE     H18S     HDA3A    0.590000E-01   1.00800           0   0.00000       0.00000    
      5585 MEMB     31       POPE     H18T     HDA3A    0.590000E-01   1.00800           0   0.00000       0.00000    
      5586 MEMB     31       POPE     C33      CD32A     2.07980       11.6110           0  -1.66000       1.30000    
      5587 MEMB     31       POPE     DC33     DRUD     -2.23580      0.400000           0   0.00000       0.00000    
      5588 MEMB     31       POPE     H3X      HDA2A    0.780000E-01   1.00800           0   0.00000       0.00000    
      5589 MEMB     31       POPE     H3Y      HDA2A    0.780000E-01   1.00800           0   0.00000       0.00000    
      5590 MEMB     31       POPE     C34      CD32A     2.07980       11.6110           0  -1.66000       1.30000    
      5591 MEMB     31       POPE     DC34     DRUD     -2.23580      0.400000           0   0.00000       0.00000    
      5592 MEMB     31       POPE     H4X      HDA2A    0.780000E-01   1.00800           0   0.00000       0.00000    
      5593 MEMB     31       POPE     H4Y      HDA2A    0.780000E-01   1.00800           0   0.00000       0.00000    
      5594 MEMB     31       POPE     C35      CD32A     2.07980       11.6110           0  -1.66000       1.30000    
      5595 MEMB     31       POPE     DC35     DRUD     -2.23580      0.400000           0   0.00000       0.00000    
      5596 MEMB     31       POPE     H5X      HDA2A    0.780000E-01   1.00800           0   0.00000       0.00000    
      5597 MEMB     31       POPE     H5Y      HDA2A    0.780000E-01   1.00800           0   0.00000       0.00000    
      5598 MEMB     31       POPE     C36      CD32A     2.07980       11.6110           0  -1.66000       1.30000    
      5599 MEMB     31       POPE     DC36     DRUD     -2.23580      0.400000           0   0.00000       0.00000    
      5600 MEMB     31       POPE     H6X      HDA2A    0.780000E-01   1.00800           0   0.00000       0.00000    
      5601 MEMB     31       POPE     H6Y      HDA2A    0.780000E-01   1.00800           0   0.00000       0.00000    
      5602 MEMB     31       POPE     C37      CD32A     2.07980       11.6110           0  -1.66000       1.30000    
      5603 MEMB     31       POPE     DC37     DRUD     -2.23580      0.400000           0   0.00000       0.00000    
      5604 MEMB     31       POPE     H7X      HDA2A    0.780000E-01   1.00800           0   0.00000       0.00000    
      5605 MEMB     31       POPE     H7Y      HDA2A    0.780000E-01   1.00800           0   0.00000       0.00000    
      5606 MEMB     31       POPE     C38      CD32A     2.07980       11.6110           0  -1.66000       1.30000    
      5607 MEMB     31       POPE     DC38     DRUD     -2.23580      0.400000           0   0.00000       0.00000    
      5608 MEMB     31       POPE     H8X      HDA2A    0.780000E-01   1.00800           0   0.00000       0.00000    
      5609 MEMB     31       POPE     H8Y      HDA2A    0.780000E-01   1.00800           0   0.00000       0.00000    
      5610 MEMB     31       POPE     C39      CD32A     2.07980       11.6110           0  -1.66000       1.30000    
      5611 MEMB     31       POPE     DC39     DRUD     -2.23580      0.400000           0   0.00000       0.00000    
      5612 MEMB     31       POPE     H9X      HDA2A    0.780000E-01   1.00800           0   0.00000       0.00000    
      5613 MEMB     31       POPE     H9Y      HDA2A    0.780000E-01   1.00800           0   0.00000       0.00000    
      5614 MEMB     31       POPE     C310     CD32A     2.07980       11.6110           0  -1.66000       1.30000    
      5615 MEMB     31       POPE     DC310    DRUD     -2.23580      0.400000           0   0.00000       0.00000    
      5616 MEMB     31       POPE     H10X     HDA2A    0.780000E-01   1.00800           0   0.00000       0.00000    
      5617 MEMB     31       POPE     H10Y     HDA2A    0.780000E-01   1.00800           0   0.00000       0.00000    
      5618 MEMB     31       POPE     C311     CD32A     2.07980       11.6110           0  -1.66000       1.30000    
      5619 MEMB     31       POPE     DC311    DRUD     -2.23580      0.400000           0   0.00000       0.00000    
      5620 MEMB     31       POPE     H11X     HDA2A    0.780000E-01   1.00800           0   0.00000       0.00000    
      5621 MEMB     31       POPE     H11Y     HDA2A    0.780000E-01   1.00800           0   0.00000       0.00000    
      5622 MEMB     31       POPE     C312     CD32A     2.07980       11.6110           0  -1.66000       1.30000    
      5623 MEMB     31       POPE     DC312    DRUD     -2.23580      0.400000           0   0.00000       0.00000    
      5624 MEMB     31       POPE     H12X     HDA2A    0.780000E-01   1.00800           0   0.00000       0.00000    
      5625 MEMB     31       POPE     H12Y     HDA2A    0.780000E-01   1.00800           0   0.00000       0.00000    
      5626 MEMB     31       POPE     C313     CD32A     2.07980       11.6110           0  -1.66000       1.30000    
      5627 MEMB     31       POPE     DC313    DRUD     -2.23580      0.400000           0   0.00000       0.00000    
      5628 MEMB     31       POPE     H13X     HDA2A    0.780000E-01   1.00800           0   0.00000       0.00000    
      5629 MEMB     31       POPE     H13Y     HDA2A    0.780000E-01   1.00800           0   0.00000       0.00000    
      5630 MEMB     31       POPE     C314     CD32A     2.07980       11.6110           0  -1.66000       1.30000    
      5631 MEMB     31       POPE     DC314    DRUD     -2.23580      0.400000           0   0.00000       0.00000    
      5632 MEMB     31       POPE     H14X     HDA2A    0.780000E-01   1.00800           0   0.00000       0.00000    
      5633 MEMB     31       POPE     H14Y     HDA2A    0.780000E-01   1.00800           0   0.00000       0.00000    
      5634 MEMB     31       POPE     C315     CD32A     2.07980       11.6110           0  -1.66000       1.30000    
      5635 MEMB     31       POPE     DC315    DRUD     -2.23580      0.400000           0   0.00000       0.00000    
      5636 MEMB     31       POPE     H15X     HDA2A    0.780000E-01   1.00800           0   0.00000       0.00000    
      5637 MEMB     31       POPE     H15Y     HDA2A    0.780000E-01   1.00800           0   0.00000       0.00000    
      5638 MEMB     31       POPE     C316     CD33A     2.30820       11.6110           0  -2.05100       1.30000    
      5639 MEMB     31       POPE     DC316    DRUD     -2.48520      0.400000           0   0.00000       0.00000    
      5640 MEMB     31       POPE     H16X     HDA3A    0.590000E-01   1.00800           0   0.00000       0.00000    
      5641 MEMB     31       POPE     H16Y     HDA3A    0.590000E-01   1.00800           0   0.00000       0.00000    
      5642 MEMB     31       POPE     H16Z     HDA3A    0.590000E-01   1.00800           0   0.00000       0.00000    
      5643 MEMB     32       POPE     N        ND3P3A    1.62810       13.6070           0  -1.29800      0.895000    
      5644 MEMB     32       POPE     DN       DRUD     -1.97710      0.400000           0   0.00000       0.00000    
      5645 MEMB     32       POPE     HN1      HDP1B    0.340000       1.00800           0   0.00000       0.00000    
      5646 MEMB     32       POPE     HN2      HDP1B    0.340000       1.00800           0   0.00000       0.00000    
      5647 MEMB     32       POPE     HN3      HDP1B    0.340000       1.00800           0   0.00000       0.00000    
      5648 MEMB     32       POPE     C12      CD32A     2.27610       11.6110           0  -1.65600      0.895000    
      5649 MEMB     32       POPE     DC12     DRUD     -2.23310      0.400000           0   0.00000       0.00000    
      5650 MEMB     32       POPE     H12A     HDA2A    0.143000       1.00800           0   0.00000       0.00000    
      5651 MEMB     32       POPE     H12B     HDA2A    0.143000       1.00800           0   0.00000       0.00000    
      5652 MEMB     32       POPE     C11      CD32A     2.42220       11.6110           0  -1.64200      0.862000    
      5653 MEMB     32       POPE     DC11     DRUD     -2.22370      0.400000           0   0.00000       0.00000    
      5654 MEMB     32       POPE     H11A     HDA2A    0.260000E-01   1.00800           0   0.00000       0.00000    
      5655 MEMB     32       POPE     H11B     HDA2A    0.260000E-01   1.00800           0   0.00000       0.00000    
      5656 MEMB     32       POPE     P        PD1A      2.90360       30.5740           0 -0.974000       2.09800    
      5657 MEMB     32       POPE     DP       DRUD     -1.71260      0.400000           0   0.00000       0.00000    
      5658 MEMB     32       POPE     O13      OD2C2B   0.798400       15.5994           0 -0.931000       1.08300    
      5659 MEMB     32       POPE     DO13     DRUD     -1.67440      0.400000           0   0.00000       0.00000    
      5660 MEMB     32       POPE     O14      OD2C2B   0.798400       15.5994           0 -0.931000       1.08300    
      5661 MEMB     32       POPE     DO14     DRUD     -1.67440      0.400000           0   0.00000       0.00000    
      5662 MEMB     32       POPE     O11      OD30B     1.17720       15.5994           0 -0.901000      0.181000    
      5663 MEMB     32       POPE     DO11     DRUD     -1.64720      0.400000           0   0.00000       0.00000    
      5664 MEMB     32       POPE     O12      OD30B     1.17720       15.5994           0 -0.901000      0.181000    
      5665 MEMB     32       POPE     DO12     DRUD     -1.64720      0.400000           0   0.00000       0.00000    
      5666 MEMB     32       POPE     C1       CD32A     2.42220       11.6110           0  -1.64200      0.862000    
      5667 MEMB     32       POPE     DC1      DRUD     -2.22370      0.400000           0   0.00000       0.00000    
      5668 MEMB     32       POPE     HA       HDA2A    0.260000E-01   1.00800           0   0.00000       0.00000    
      5669 MEMB     32       POPE     HB       HDA2A    0.260000E-01   1.00800           0   0.00000       0.00000    
      5670 MEMB     32       POPE     C2       CD31C     2.52830       11.6110           0  -1.79700      0.410000    
      5671 MEMB     32       POPE     DC2      DRUD     -2.32630      0.400000           0   0.00000       0.00000    
      5672 MEMB     32       POPE     HS       HDA1A    0.116000       1.00800           0   0.00000       0.00000    
      5673 MEMB     32       POPE     O21      OD30CL    1.48470       15.5994           0 -0.732000      0.601000    
      5674 MEMB     32       POPE     DO21     DRUD     -1.48470      0.400000           0   0.00000       0.00000    
      5675 MEMB     32       POPE     C21      CD2O3B    2.72820       11.6110           0  -1.37000       1.74700    
      5676 MEMB     32       POPE     DC21     DRUD     -2.03120      0.400000           0   0.00000       0.00000    
      5677 MEMB     32       POPE     O22      OD2C3B    1.64990       15.5994           0 -0.904000      0.565000    
      5678 MEMB     32       POPE     DO22     DRUD     -1.64990      0.400000           0   0.00000       0.00000    
      5679 MEMB     32       POPE     C22      CD32C     2.24380       11.6110           0  -1.99300      0.410000    
      5680 MEMB     32       POPE     DC22     DRUD     -2.44980      0.400000           0   0.00000       0.00000    
      5681 MEMB     32       POPE     H2R      HDA2A    0.690000E-01   1.00800           0   0.00000       0.00000    
      5682 MEMB     32       POPE     H2S      HDA2A    0.690000E-01   1.00800           0   0.00000       0.00000    
      5683 MEMB     32       POPE     LP1A     LPD     -0.349000       0.00000          -1   0.00000       0.00000    
      5684 MEMB     32       POPE     LP1B     LPD     -0.258000       0.00000          -1   0.00000       0.00000    
      5685 MEMB     32       POPE     LPMA     LPD     -0.170000       0.00000          -1   0.00000       0.00000    
      5686 MEMB     32       POPE     LPMB     LPD     -0.170000       0.00000          -1   0.00000       0.00000    
      5687 MEMB     32       POPE     C3       CD32C     2.41230       11.6110           0  -1.79700      0.410000    
      5688 MEMB     32       POPE     DC3      DRUD     -2.32630      0.400000           0   0.00000       0.00000    
      5689 MEMB     32       POPE     HX       HDA2A    0.116000       1.00800           0   0.00000       0.00000    
      5690 MEMB     32       POPE     HY       HDA2A    0.116000       1.00800           0   0.00000       0.00000    
      5691 MEMB     32       POPE     O31      OD30CL    1.48470       15.5994           0 -0.732000      0.601000    
      5692 MEMB     32       POPE     DO31     DRUD     -1.48470      0.400000           0   0.00000       0.00000    
      5693 MEMB     32       POPE     C31      CD2O3B    2.72820       11.6110           0  -1.37000       1.74700    
      5694 MEMB     32       POPE     DC31     DRUD     -2.03120      0.400000           0   0.00000       0.00000    
      5695 MEMB     32       POPE     O32      OD2C3B    1.64990       15.5994           0 -0.904000      0.565000    
      5696 MEMB     32       POPE     DO32     DRUD     -1.64990      0.400000           0   0.00000       0.00000    
      5697 MEMB     32       POPE     C32      CD32C     2.24380       11.6110           0  -1.99300      0.410000    
      5698 MEMB     32       POPE     DC32     DRUD     -2.44980      0.400000           0   0.00000       0.00000    
      5699 MEMB     32       POPE     H2X      HDA2A    0.690000E-01   1.00800           0   0.00000       0.00000    
      5700 MEMB     32       POPE     H2Y      HDA2A    0.690000E-01   1.00800           0   0.00000       0.00000    
      5701 MEMB     32       POPE     LP1C     LPD     -0.349000       0.00000          -1   0.00000       0.00000    
      5702 MEMB     32       POPE     LP1D     LPD     -0.258000       0.00000          -1   0.00000       0.00000    
      5703 MEMB     32       POPE     LPMC     LPD     -0.170000       0.00000          -1   0.00000       0.00000    
      5704 MEMB     32       POPE     LPMD     LPD     -0.170000       0.00000          -1   0.00000       0.00000    
      5705 MEMB     32       POPE     C23      CD32A     2.07980       11.6110           0  -1.66000       1.30000    
      5706 MEMB     32       POPE     DC23     DRUD     -2.23580      0.400000           0   0.00000       0.00000    
      5707 MEMB     32       POPE     H3R      HDA2A    0.780000E-01   1.00800           0   0.00000       0.00000    
      5708 MEMB     32       POPE     H3S      HDA2A    0.780000E-01   1.00800           0   0.00000       0.00000    
      5709 MEMB     32       POPE     C24      CD32A     2.07980       11.6110           0  -1.66000       1.30000    
      5710 MEMB     32       POPE     DC24     DRUD     -2.23580      0.400000           0   0.00000       0.00000    
      5711 MEMB     32       POPE     H4R      HDA2A    0.780000E-01   1.00800           0   0.00000       0.00000    
      5712 MEMB     32       POPE     H4S      HDA2A    0.780000E-01   1.00800           0   0.00000       0.00000    
      5713 MEMB     32       POPE     C25      CD32A     2.07980       11.6110           0  -1.66000       1.30000    
      5714 MEMB     32       POPE     DC25     DRUD     -2.23580      0.400000           0   0.00000       0.00000    
      5715 MEMB     32       POPE     H5R      HDA2A    0.780000E-01   1.00800           0   0.00000       0.00000    
      5716 MEMB     32       POPE     H5S      HDA2A    0.780000E-01   1.00800           0   0.00000       0.00000    
      5717 MEMB     32       POPE     C26      CD32A     2.07980       11.6110           0  -1.66000       1.30000    
      5718 MEMB     32       POPE     DC26     DRUD     -2.23580      0.400000           0   0.00000       0.00000    
      5719 MEMB     32       POPE     H6R      HDA2A    0.780000E-01   1.00800           0   0.00000       0.00000    
      5720 MEMB     32       POPE     H6S      HDA2A    0.780000E-01   1.00800           0   0.00000       0.00000    
      5721 MEMB     32       POPE     C27      CD32A     2.07980       11.6110           0  -1.66000       1.30000    
      5722 MEMB     32       POPE     DC27     DRUD     -2.23580      0.400000           0   0.00000       0.00000    
      5723 MEMB     32       POPE     H7R      HDA2A    0.780000E-01   1.00800           0   0.00000       0.00000    
      5724 MEMB     32       POPE     H7S      HDA2A    0.780000E-01   1.00800           0   0.00000       0.00000    
      5725 MEMB     32       POPE     C28      CD32A     2.07980       11.6110           0  -1.66000       1.30000    
      5726 MEMB     32       POPE     DC28     DRUD     -2.23580      0.400000           0   0.00000       0.00000    
      5727 MEMB     32       POPE     H8R      HDA2A    0.780000E-01   1.00800           0   0.00000       0.00000    
      5728 MEMB     32       POPE     H8S      HDA2A    0.780000E-01   1.00800           0   0.00000       0.00000    
      5729 MEMB     32       POPE     C29      CD2C1A    2.33700       11.6110           0  -1.99000      0.750000    
      5730 MEMB     32       POPE     DC29     DRUD     -2.44800      0.400000           0   0.00000       0.00000    
      5731 MEMB     32       POPE     H91      HD2C1A   0.111000       1.00800           0   0.00000       0.00000    
      5732 MEMB     32       POPE     C210     CD2C1A    2.33700       11.6110           0  -1.99000      0.750000    
      5733 MEMB     32       POPE     DC210    DRUD     -2.44800      0.400000           0   0.00000       0.00000    
      5734 MEMB     32       POPE     H101     HD2C1A   0.111000       1.00800           0   0.00000       0.00000    
      5735 MEMB     32       POPE     C211     CD32A     2.07980       11.6110           0  -1.66000       1.30000    
      5736 MEMB     32       POPE     DC211    DRUD     -2.23580      0.400000           0   0.00000       0.00000    
      5737 MEMB     32       POPE     H11R     HDA2A    0.780000E-01   1.00800           0   0.00000       0.00000    
      5738 MEMB     32       POPE     H11S     HDA2A    0.780000E-01   1.00800           0   0.00000       0.00000    
      5739 MEMB     32       POPE     C212     CD32A     2.07980       11.6110           0  -1.66000       1.30000    
      5740 MEMB     32       POPE     DC212    DRUD     -2.23580      0.400000           0   0.00000       0.00000    
      5741 MEMB     32       POPE     H12R     HDA2A    0.780000E-01   1.00800           0   0.00000       0.00000    
      5742 MEMB     32       POPE     H12S     HDA2A    0.780000E-01   1.00800           0   0.00000       0.00000    
      5743 MEMB     32       POPE     C213     CD32A     2.07980       11.6110           0  -1.66000       1.30000    
      5744 MEMB     32       POPE     DC213    DRUD     -2.23580      0.400000           0   0.00000       0.00000    
      5745 MEMB     32       POPE     H13R     HDA2A    0.780000E-01   1.00800           0   0.00000       0.00000    
      5746 MEMB     32       POPE     H13S     HDA2A    0.780000E-01   1.00800           0   0.00000       0.00000    
      5747 MEMB     32       POPE     C214     CD32A     2.07980       11.6110           0  -1.66000       1.30000    
      5748 MEMB     32       POPE     DC214    DRUD     -2.23580      0.400000           0   0.00000       0.00000    
      5749 MEMB     32       POPE     H14R     HDA2A    0.780000E-01   1.00800           0   0.00000       0.00000    
      5750 MEMB     32       POPE     H14S     HDA2A    0.780000E-01   1.00800           0   0.00000       0.00000    
      5751 MEMB     32       POPE     C215     CD32A     2.07980       11.6110           0  -1.66000       1.30000    
      5752 MEMB     32       POPE     DC215    DRUD     -2.23580      0.400000           0   0.00000       0.00000    
      5753 MEMB     32       POPE     H15R     HDA2A    0.780000E-01   1.00800           0   0.00000       0.00000    
      5754 MEMB     32       POPE     H15S     HDA2A    0.780000E-01   1.00800           0   0.00000       0.00000    
      5755 MEMB     32       POPE     C216     CD32A     2.07980       11.6110           0  -1.66000       1.30000    
      5756 MEMB     32       POPE     DC216    DRUD     -2.23580      0.400000           0   0.00000       0.00000    
      5757 MEMB     32       POPE     H16R     HDA2A    0.780000E-01   1.00800           0   0.00000       0.00000    
      5758 MEMB     32       POPE     H16S     HDA2A    0.780000E-01   1.00800           0   0.00000       0.00000    
      5759 MEMB     32       POPE     C217     CD32A     2.07980       11.6110           0  -1.66000       1.30000    
      5760 MEMB     32       POPE     DC217    DRUD     -2.23580      0.400000           0   0.00000       0.00000    
      5761 MEMB     32       POPE     H17R     HDA2A    0.780000E-01   1.00800           0   0.00000       0.00000    
      5762 MEMB     32       POPE     H17S     HDA2A    0.780000E-01   1.00800           0   0.00000       0.00000    
      5763 MEMB     32       POPE     C218     CD33A     2.30820       11.6110           0  -2.05100       1.30000    
      5764 MEMB     32       POPE     DC218    DRUD     -2.48520      0.400000           0   0.00000       0.00000    
      5765 MEMB     32       POPE     H18R     HDA3A    0.590000E-01   1.00800           0   0.00000       0.00000    
      5766 MEMB     32       POPE     H18S     HDA3A    0.590000E-01   1.00800           0   0.00000       0.00000    
      5767 MEMB     32       POPE     H18T     HDA3A    0.590000E-01   1.00800           0   0.00000       0.00000    
      5768 MEMB     32       POPE     C33      CD32A     2.07980       11.6110           0  -1.66000       1.30000    
      5769 MEMB     32       POPE     DC33     DRUD     -2.23580      0.400000           0   0.00000       0.00000    
      5770 MEMB     32       POPE     H3X      HDA2A    0.780000E-01   1.00800           0   0.00000       0.00000    
      5771 MEMB     32       POPE     H3Y      HDA2A    0.780000E-01   1.00800           0   0.00000       0.00000    
      5772 MEMB     32       POPE     C34      CD32A     2.07980       11.6110           0  -1.66000       1.30000    
      5773 MEMB     32       POPE     DC34     DRUD     -2.23580      0.400000           0   0.00000       0.00000    
      5774 MEMB     32       POPE     H4X      HDA2A    0.780000E-01   1.00800           0   0.00000       0.00000    
      5775 MEMB     32       POPE     H4Y      HDA2A    0.780000E-01   1.00800           0   0.00000       0.00000    
      5776 MEMB     32       POPE     C35      CD32A     2.07980       11.6110           0  -1.66000       1.30000    
      5777 MEMB     32       POPE     DC35     DRUD     -2.23580      0.400000           0   0.00000       0.00000    
      5778 MEMB     32       POPE     H5X      HDA2A    0.780000E-01   1.00800           0   0.00000       0.00000    
      5779 MEMB     32       POPE     H5Y      HDA2A    0.780000E-01   1.00800           0   0.00000       0.00000    
      5780 MEMB     32       POPE     C36      CD32A     2.07980       11.6110           0  -1.66000       1.30000    
      5781 MEMB     32       POPE     DC36     DRUD     -2.23580      0.400000           0   0.00000       0.00000    
      5782 MEMB     32       POPE     H6X      HDA2A    0.780000E-01   1.00800           0   0.00000       0.00000    
      5783 MEMB     32       POPE     H6Y      HDA2A    0.780000E-01   1.00800           0   0.00000       0.00000    
      5784 MEMB     32       POPE     C37      CD32A     2.07980       11.6110           0  -1.66000       1.30000    
      5785 MEMB     32       POPE     DC37     DRUD     -2.23580      0.400000           0   0.00000       0.00000    
      5786 MEMB     32       POPE     H7X      HDA2A    0.780000E-01   1.00800           0   0.00000       0.00000    
      5787 MEMB     32       POPE     H7Y      HDA2A    0.780000E-01   1.00800           0   0.00000       0.00000    
      5788 MEMB     32       POPE     C38      CD32A     2.07980       11.6110           0  -1.66000       1.30000    
      5789 MEMB     32       POPE     DC38     DRUD     -2.23580      0.400000           0   0.00000       0.00000    
      5790 MEMB     32       POPE     H8X      HDA2A    0.780000E-01   1.00800           0   0.00000       0.00000    
      5791 MEMB     32       POPE     H8Y      HDA2A    0.780000E-01   1.00800           0   0.00000       0.00000    
      5792 MEMB     32       POPE     C39      CD32A     2.07980       11.6110           0  -1.66000       1.30000    
      5793 MEMB     32       POPE     DC39     DRUD     -2.23580      0.400000           0   0.00000       0.00000    
      5794 MEMB     32       POPE     H9X      HDA2A    0.780000E-01   1.00800           0   0.00000       0.00000    
      5795 MEMB     32       POPE     H9Y      HDA2A    0.780000E-01   1.00800           0   0.00000       0.00000    
      5796 MEMB     32       POPE     C310     CD32A     2.07980       11.6110           0  -1.66000       1.30000    
      5797 MEMB     32       POPE     DC310    DRUD     -2.23580      0.400000           0   0.00000       0.00000    
      5798 MEMB     32       POPE     H10X     HDA2A    0.780000E-01   1.00800           0   0.00000       0.00000    
      5799 MEMB     32       POPE     H10Y     HDA2A    0.780000E-01   1.00800           0   0.00000       0.00000    
      5800 MEMB     32       POPE     C311     CD32A     2.07980       11.6110           0  -1.66000       1.30000    
      5801 MEMB     32       POPE     DC311    DRUD     -2.23580      0.400000           0   0.00000       0.00000    
      5802 MEMB     32       POPE     H11X     HDA2A    0.780000E-01   1.00800           0   0.00000       0.00000    
      5803 MEMB     32       POPE     H11Y     HDA2A    0.780000E-01   1.00800           0   0.00000       0.00000    
      5804 MEMB     32       POPE     C312     CD32A     2.07980       11.6110           0  -1.66000       1.30000    
      5805 MEMB     32       POPE     DC312    DRUD     -2.23580      0.400000           0   0.00000       0.00000    
      5806 MEMB     32       POPE     H12X     HDA2A    0.780000E-01   1.00800           0   0.00000       0.00000    
      5807 MEMB     32       POPE     H12Y     HDA2A    0.780000E-01   1.00800           0   0.00000       0.00000    
      5808 MEMB     32       POPE     C313     CD32A     2.07980       11.6110           0  -1.66000       1.30000    
      5809 MEMB     32       POPE     DC313    DRUD     -2.23580      0.400000           0   0.00000       0.00000    
      5810 MEMB     32       POPE     H13X     HDA2A    0.780000E-01   1.00800           0   0.00000       0.00000    
      5811 MEMB     32       POPE     H13Y     HDA2A    0.780000E-01   1.00800           0   0.00000       0.00000    
      5812 MEMB     32       POPE     C314     CD32A     2.07980       11.6110           0  -1.66000       1.30000    
      5813 MEMB     32       POPE     DC314    DRUD     -2.23580      0.400000           0   0.00000       0.00000    
      5814 MEMB     32       POPE     H14X     HDA2A    0.780000E-01   1.00800           0   0.00000       0.00000    
      5815 MEMB     32       POPE     H14Y     HDA2A    0.780000E-01   1.00800           0   0.00000       0.00000    
      5816 MEMB     32       POPE     C315     CD32A     2.07980       11.6110           0  -1.66000       1.30000    
      5817 MEMB     32       POPE     DC315    DRUD     -2.23580      0.400000           0   0.00000       0.00000    
      5818 MEMB     32       POPE     H15X     HDA2A    0.780000E-01   1.00800           0   0.00000       0.00000    
      5819 MEMB     32       POPE     H15Y     HDA2A    0.780000E-01   1.00800           0   0.00000       0.00000    
      5820 MEMB     32       POPE     C316     CD33A     2.30820       11.6110           0  -2.05100       1.30000    
      5821 MEMB     32       POPE     DC316    DRUD     -2.48520      0.400000           0   0.00000       0.00000    
      5822 MEMB     32       POPE     H16X     HDA3A    0.590000E-01   1.00800           0   0.00000       0.00000    
      5823 MEMB     32       POPE     H16Y     HDA3A    0.590000E-01   1.00800           0   0.00000       0.00000    
      5824 MEMB     32       POPE     H16Z     HDA3A    0.590000E-01   1.00800           0   0.00000       0.00000    
      5825 MEMB     33       POPE     N        ND3P3A    1.62810       13.6070           0  -1.29800      0.895000    
      5826 MEMB     33       POPE     DN       DRUD     -1.97710      0.400000           0   0.00000       0.00000    
      5827 MEMB     33       POPE     HN1      HDP1B    0.340000       1.00800           0   0.00000       0.00000    
      5828 MEMB     33       POPE     HN2      HDP1B    0.340000       1.00800           0   0.00000       0.00000    
      5829 MEMB     33       POPE     HN3      HDP1B    0.340000       1.00800           0   0.00000       0.00000    
      5830 MEMB     33       POPE     C12      CD32A     2.27610       11.6110           0  -1.65600      0.895000    
      5831 MEMB     33       POPE     DC12     DRUD     -2.23310      0.400000           0   0.00000       0.00000    
      5832 MEMB     33       POPE     H12A     HDA2A    0.143000       1.00800           0   0.00000       0.00000    
      5833 MEMB     33       POPE     H12B     HDA2A    0.143000       1.00800           0   0.00000       0.00000    
      5834 MEMB     33       POPE     C11      CD32A     2.42220       11.6110           0  -1.64200      0.862000    
      5835 MEMB     33       POPE     DC11     DRUD     -2.22370      0.400000           0   0.00000       0.00000    
      5836 MEMB     33       POPE     H11A     HDA2A    0.260000E-01   1.00800           0   0.00000       0.00000    
      5837 MEMB     33       POPE     H11B     HDA2A    0.260000E-01   1.00800           0   0.00000       0.00000    
      5838 MEMB     33       POPE     P        PD1A      2.90360       30.5740           0 -0.974000       2.09800    
      5839 MEMB     33       POPE     DP       DRUD     -1.71260      0.400000           0   0.00000       0.00000    
      5840 MEMB     33       POPE     O13      OD2C2B   0.798400       15.5994           0 -0.931000       1.08300    
      5841 MEMB     33       POPE     DO13     DRUD     -1.67440      0.400000           0   0.00000       0.00000    
      5842 MEMB     33       POPE     O14      OD2C2B   0.798400       15.5994           0 -0.931000       1.08300    
      5843 MEMB     33       POPE     DO14     DRUD     -1.67440      0.400000           0   0.00000       0.00000    
      5844 MEMB     33       POPE     O11      OD30B     1.17720       15.5994           0 -0.901000      0.181000    
      5845 MEMB     33       POPE     DO11     DRUD     -1.64720      0.400000           0   0.00000       0.00000    
      5846 MEMB     33       POPE     O12      OD30B     1.17720       15.5994           0 -0.901000      0.181000    
      5847 MEMB     33       POPE     DO12     DRUD     -1.64720      0.400000           0   0.00000       0.00000    
      5848 MEMB     33       POPE     C1       CD32A     2.42220       11.6110           0  -1.64200      0.862000    
      5849 MEMB     33       POPE     DC1      DRUD     -2.22370      0.400000           0   0.00000       0.00000    
      5850 MEMB     33       POPE     HA       HDA2A    0.260000E-01   1.00800           0   0.00000       0.00000    
      5851 MEMB     33       POPE     HB       HDA2A    0.260000E-01   1.00800           0   0.00000       0.00000    
      5852 MEMB     33       POPE     C2       CD31C     2.52830       11.6110           0  -1.79700      0.410000    
      5853 MEMB     33       POPE     DC2      DRUD     -2.32630      0.400000           0   0.00000       0.00000    
      5854 MEMB     33       POPE     HS       HDA1A    0.116000       1.00800           0   0.00000       0.00000    
      5855 MEMB     33       POPE     O21      OD30CL    1.48470       15.5994           0 -0.732000      0.601000    
      5856 MEMB     33       POPE     DO21     DRUD     -1.48470      0.400000           0   0.00000       0.00000    
      5857 MEMB     33       POPE     C21      CD2O3B    2.72820       11.6110           0  -1.37000       1.74700    
      5858 MEMB     33       POPE     DC21     DRUD     -2.03120      0.400000           0   0.00000       0.00000    
      5859 MEMB     33       POPE     O22      OD2C3B    1.64990       15.5994           0 -0.904000      0.565000    
      5860 MEMB     33       POPE     DO22     DRUD     -1.64990      0.400000           0   0.00000       0.00000    
      5861 MEMB     33       POPE     C22      CD32C     2.24380       11.6110           0  -1.99300      0.410000    
      5862 MEMB     33       POPE     DC22     DRUD     -2.44980      0.400000           0   0.00000       0.00000    
      5863 MEMB     33       POPE     H2R      HDA2A    0.690000E-01   1.00800           0   0.00000       0.00000    
      5864 MEMB     33       POPE     H2S      HDA2A    0.690000E-01   1.00800           0   0.00000       0.00000    
      5865 MEMB     33       POPE     LP1A     LPD     -0.349000       0.00000          -1   0.00000       0.00000    
      5866 MEMB     33       POPE     LP1B     LPD     -0.258000       0.00000          -1   0.00000       0.00000    
      5867 MEMB     33       POPE     LPMA     LPD     -0.170000       0.00000          -1   0.00000       0.00000    
      5868 MEMB     33       POPE     LPMB     LPD     -0.170000       0.00000          -1   0.00000       0.00000    
      5869 MEMB     33       POPE     C3       CD32C     2.41230       11.6110           0  -1.79700      0.410000    
      5870 MEMB     33       POPE     DC3      DRUD     -2.32630      0.400000           0   0.00000       0.00000    
      5871 MEMB     33       POPE     HX       HDA2A    0.116000       1.00800           0   0.00000       0.00000    
      5872 MEMB     33       POPE     HY       HDA2A    0.116000       1.00800           0   0.00000       0.00000    
      5873 MEMB     33       POPE     O31      OD30CL    1.48470       15.5994           0 -0.732000      0.601000    
      5874 MEMB     33       POPE     DO31     DRUD     -1.48470      0.400000           0   0.00000       0.00000    
      5875 MEMB     33       POPE     C31      CD2O3B    2.72820       11.6110           0  -1.37000       1.74700    
      5876 MEMB     33       POPE     DC31     DRUD     -2.03120      0.400000           0   0.00000       0.00000    
      5877 MEMB     33       POPE     O32      OD2C3B    1.64990       15.5994           0 -0.904000      0.565000    
      5878 MEMB     33       POPE     DO32     DRUD     -1.64990      0.400000           0   0.00000       0.00000    
      5879 MEMB     33       POPE     C32      CD32C     2.24380       11.6110           0  -1.99300      0.410000    
      5880 MEMB     33       POPE     DC32     DRUD     -2.44980      0.400000           0   0.00000       0.00000    
      5881 MEMB     33       POPE     H2X      HDA2A    0.690000E-01   1.00800           0   0.00000       0.00000    
      5882 MEMB     33       POPE     H2Y      HDA2A    0.690000E-01   1.00800           0   0.00000       0.00000    
      5883 MEMB     33       POPE     LP1C     LPD     -0.349000       0.00000          -1   0.00000       0.00000    
      5884 MEMB     33       POPE     LP1D     LPD     -0.258000       0.00000          -1   0.00000       0.00000    
      5885 MEMB     33       POPE     LPMC     LPD     -0.170000       0.00000          -1   0.00000       0.00000    
      5886 MEMB     33       POPE     LPMD     LPD     -0.170000       0.00000          -1   0.00000       0.00000    
      5887 MEMB     33       POPE     C23      CD32A     2.07980       11.6110           0  -1.66000       1.30000    
      5888 MEMB     33       POPE     DC23     DRUD     -2.23580      0.400000           0   0.00000       0.00000    
      5889 MEMB     33       POPE     H3R      HDA2A    0.780000E-01   1.00800           0   0.00000       0.00000    
      5890 MEMB     33       POPE     H3S      HDA2A    0.780000E-01   1.00800           0   0.00000       0.00000    
      5891 MEMB     33       POPE     C24      CD32A     2.07980       11.6110           0  -1.66000       1.30000    
      5892 MEMB     33       POPE     DC24     DRUD     -2.23580      0.400000           0   0.00000       0.00000    
      5893 MEMB     33       POPE     H4R      HDA2A    0.780000E-01   1.00800           0   0.00000       0.00000    
      5894 MEMB     33       POPE     H4S      HDA2A    0.780000E-01   1.00800           0   0.00000       0.00000    
      5895 MEMB     33       POPE     C25      CD32A     2.07980       11.6110           0  -1.66000       1.30000    
      5896 MEMB     33       POPE     DC25     DRUD     -2.23580      0.400000           0   0.00000       0.00000    
      5897 MEMB     33       POPE     H5R      HDA2A    0.780000E-01   1.00800           0   0.00000       0.00000    
      5898 MEMB     33       POPE     H5S      HDA2A    0.780000E-01   1.00800           0   0.00000       0.00000    
      5899 MEMB     33       POPE     C26      CD32A     2.07980       11.6110           0  -1.66000       1.30000    
      5900 MEMB     33       POPE     DC26     DRUD     -2.23580      0.400000           0   0.00000       0.00000    
      5901 MEMB     33       POPE     H6R      HDA2A    0.780000E-01   1.00800           0   0.00000       0.00000    
      5902 MEMB     33       POPE     H6S      HDA2A    0.780000E-01   1.00800           0   0.00000       0.00000    
      5903 MEMB     33       POPE     C27      CD32A     2.07980       11.6110           0  -1.66000       1.30000    
      5904 MEMB     33       POPE     DC27     DRUD     -2.23580      0.400000           0   0.00000       0.00000    
      5905 MEMB     33       POPE     H7R      HDA2A    0.780000E-01   1.00800           0   0.00000       0.00000    
      5906 MEMB     33       POPE     H7S      HDA2A    0.780000E-01   1.00800           0   0.00000       0.00000    
      5907 MEMB     33       POPE     C28      CD32A     2.07980       11.6110           0  -1.66000       1.30000    
      5908 MEMB     33       POPE     DC28     DRUD     -2.23580      0.400000           0   0.00000       0.00000    
      5909 MEMB     33       POPE     H8R      HDA2A    0.780000E-01   1.00800           0   0.00000       0.00000    
      5910 MEMB     33       POPE     H8S      HDA2A    0.780000E-01   1.00800           0   0.00000       0.00000    
      5911 MEMB     33       POPE     C29      CD2C1A    2.33700       11.6110           0  -1.99000      0.750000    
      5912 MEMB     33       POPE     DC29     DRUD     -2.44800      0.400000           0   0.00000       0.00000    
      5913 MEMB     33       POPE     H91      HD2C1A   0.111000       1.00800           0   0.00000       0.00000    
      5914 MEMB     33       POPE     C210     CD2C1A    2.33700       11.6110           0  -1.99000      0.750000    
      5915 MEMB     33       POPE     DC210    DRUD     -2.44800      0.400000           0   0.00000       0.00000    
      5916 MEMB     33       POPE     H101     HD2C1A   0.111000       1.00800           0   0.00000       0.00000    
      5917 MEMB     33       POPE     C211     CD32A     2.07980       11.6110           0  -1.66000       1.30000    
      5918 MEMB     33       POPE     DC211    DRUD     -2.23580      0.400000           0   0.00000       0.00000    
      5919 MEMB     33       POPE     H11R     HDA2A    0.780000E-01   1.00800           0   0.00000       0.00000    
      5920 MEMB     33       POPE     H11S     HDA2A    0.780000E-01   1.00800           0   0.00000       0.00000    
      5921 MEMB     33       POPE     C212     CD32A     2.07980       11.6110           0  -1.66000       1.30000    
      5922 MEMB     33       POPE     DC212    DRUD     -2.23580      0.400000           0   0.00000       0.00000    
      5923 MEMB     33       POPE     H12R     HDA2A    0.780000E-01   1.00800           0   0.00000       0.00000    
      5924 MEMB     33       POPE     H12S     HDA2A    0.780000E-01   1.00800           0   0.00000       0.00000    
      5925 MEMB     33       POPE     C213     CD32A     2.07980       11.6110           0  -1.66000       1.30000    
      5926 MEMB     33       POPE     DC213    DRUD     -2.23580      0.400000           0   0.00000       0.00000    
      5927 MEMB     33       POPE     H13R     HDA2A    0.780000E-01   1.00800           0   0.00000       0.00000    
      5928 MEMB     33       POPE     H13S     HDA2A    0.780000E-01   1.00800           0   0.00000       0.00000    
      5929 MEMB     33       POPE     C214     CD32A     2.07980       11.6110           0  -1.66000       1.30000    
      5930 MEMB     33       POPE     DC214    DRUD     -2.23580      0.400000           0   0.00000       0.00000    
      5931 MEMB     33       POPE     H14R     HDA2A    0.780000E-01   1.00800           0   0.00000       0.00000    
      5932 MEMB     33       POPE     H14S     HDA2A    0.780000E-01   1.00800           0   0.00000       0.00000    
      5933 MEMB     33       POPE     C215     CD32A     2.07980       11.6110           0  -1.66000       1.30000    
      5934 MEMB     33       POPE     DC215    DRUD     -2.23580      0.400000           0   0.00000       0.00000    
      5935 MEMB     33       POPE     H15R     HDA2A    0.780000E-01   1.00800           0   0.00000       0.00000    
      5936 MEMB     33       POPE     H15S     HDA2A    0.780000E-01   1.00800           0   0.00000       0.00000    
      5937 MEMB     33       POPE     C216     CD32A     2.07980       11.6110           0  -1.66000       1.30000    
      5938 MEMB     33       POPE     DC216    DRUD     -2.23580      0.400000           0   0.00000       0.00000    
      5939 MEMB     33       POPE     H16R     HDA2A    0.780000E-01   1.00800           0   0.00000       0.00000    
      5940 MEMB     33       POPE     H16S     HDA2A    0.780000E-01   1.00800           0   0.00000       0.00000    
      5941 MEMB     33       POPE     C217     CD32A     2.07980       11.6110           0  -1.66000       1.30000    
      5942 MEMB     33       POPE     DC217    DRUD     -2.23580      0.400000           0   0.00000       0.00000    
      5943 MEMB     33       POPE     H17R     HDA2A    0.780000E-01   1.00800           0   0.00000       0.00000    
      5944 MEMB     33       POPE     H17S     HDA2A    0.780000E-01   1.00800           0   0.00000       0.00000    
      5945 MEMB     33       POPE     C218     CD33A     2.30820       11.6110           0  -2.05100       1.30000    
      5946 MEMB     33       POPE     DC218    DRUD     -2.48520      0.400000           0   0.00000       0.00000    
      5947 MEMB     33       POPE     H18R     HDA3A    0.590000E-01   1.00800           0   0.00000       0.00000    
      5948 MEMB     33       POPE     H18S     HDA3A    0.590000E-01   1.00800           0   0.00000       0.00000    
      5949 MEMB     33       POPE     H18T     HDA3A    0.590000E-01   1.00800           0   0.00000       0.00000    
      5950 MEMB     33       POPE     C33      CD32A     2.07980       11.6110           0  -1.66000       1.30000    
      5951 MEMB     33       POPE     DC33     DRUD     -2.23580      0.400000           0   0.00000       0.00000    
      5952 MEMB     33       POPE     H3X      HDA2A    0.780000E-01   1.00800           0   0.00000       0.00000    
      5953 MEMB     33       POPE     H3Y      HDA2A    0.780000E-01   1.00800           0   0.00000       0.00000    
      5954 MEMB     33       POPE     C34      CD32A     2.07980       11.6110           0  -1.66000       1.30000    
      5955 MEMB     33       POPE     DC34     DRUD     -2.23580      0.400000           0   0.00000       0.00000    
      5956 MEMB     33       POPE     H4X      HDA2A    0.780000E-01   1.00800           0   0.00000       0.00000    
      5957 MEMB     33       POPE     H4Y      HDA2A    0.780000E-01   1.00800           0   0.00000       0.00000    
      5958 MEMB     33       POPE     C35      CD32A     2.07980       11.6110           0  -1.66000       1.30000    
      5959 MEMB     33       POPE     DC35     DRUD     -2.23580      0.400000           0   0.00000       0.00000    
      5960 MEMB     33       POPE     H5X      HDA2A    0.780000E-01   1.00800           0   0.00000       0.00000    
      5961 MEMB     33       POPE     H5Y      HDA2A    0.780000E-01   1.00800           0   0.00000       0.00000    
      5962 MEMB     33       POPE     C36      CD32A     2.07980       11.6110           0  -1.66000       1.30000    
      5963 MEMB     33       POPE     DC36     DRUD     -2.23580      0.400000           0   0.00000       0.00000    
      5964 MEMB     33       POPE     H6X      HDA2A    0.780000E-01   1.00800           0   0.00000       0.00000    
      5965 MEMB     33       POPE     H6Y      HDA2A    0.780000E-01   1.00800           0   0.00000       0.00000    
      5966 MEMB     33       POPE     C37      CD32A     2.07980       11.6110           0  -1.66000       1.30000    
      5967 MEMB     33       POPE     DC37     DRUD     -2.23580      0.400000           0   0.00000       0.00000    
      5968 MEMB     33       POPE     H7X      HDA2A    0.780000E-01   1.00800           0   0.00000       0.00000    
      5969 MEMB     33       POPE     H7Y      HDA2A    0.780000E-01   1.00800           0   0.00000       0.00000    
      5970 MEMB     33       POPE     C38      CD32A     2.07980       11.6110           0  -1.66000       1.30000    
      5971 MEMB     33       POPE     DC38     DRUD     -2.23580      0.400000           0   0.00000       0.00000    
      5972 MEMB     33       POPE     H8X      HDA2A    0.780000E-01   1.00800           0   0.00000       0.00000    
      5973 MEMB     33       POPE     H8Y      HDA2A    0.780000E-01   1.00800           0   0.00000       0.00000    
      5974 MEMB     33       POPE     C39      CD32A     2.07980       11.6110           0  -1.66000       1.30000    
      5975 MEMB     33       POPE     DC39     DRUD     -2.23580      0.400000           0   0.00000       0.00000    
      5976 MEMB     33       POPE     H9X      HDA2A    0.780000E-01   1.00800           0   0.00000       0.00000    
      5977 MEMB     33       POPE     H9Y      HDA2A    0.780000E-01   1.00800           0   0.00000       0.00000    
      5978 MEMB     33       POPE     C310     CD32A     2.07980       11.6110           0  -1.66000       1.30000    
      5979 MEMB     33       POPE     DC310    DRUD     -2.23580      0.400000           0   0.00000       0.00000    
      5980 MEMB     33       POPE     H10X     HDA2A    0.780000E-01   1.00800           0   0.00000       0.00000    
      5981 MEMB     33       POPE     H10Y     HDA2A    0.780000E-01   1.00800           0   0.00000       0.00000    
      5982 MEMB     33       POPE     C311     CD32A     2.07980       11.6110           0  -1.66000       1.30000    
      5983 MEMB     33       POPE     DC311    DRUD     -2.23580      0.400000           0   0.00000       0.00000    
      5984 MEMB     33       POPE     H11X     HDA2A    0.780000E-01   1.00800           0   0.00000       0.00000    
      5985 MEMB     33       POPE     H11Y     HDA2A    0.780000E-01   1.00800           0   0.00000       0.00000    
      5986 MEMB     33       POPE     C312     CD32A     2.07980       11.6110           0  -1.66000       1.30000    
      5987 MEMB     33       POPE     DC312    DRUD     -2.23580      0.400000           0   0.00000       0.00000    
      5988 MEMB     33       POPE     H12X     HDA2A    0.780000E-01   1.00800           0   0.00000       0.00000    
      5989 MEMB     33       POPE     H12Y     HDA2A    0.780000E-01   1.00800           0   0.00000       0.00000    
      5990 MEMB     33       POPE     C313     CD32A     2.07980       11.6110           0  -1.66000       1.30000    
      5991 MEMB     33       POPE     DC313    DRUD     -2.23580      0.400000           0   0.00000       0.00000    
      5992 MEMB     33       POPE     H13X     HDA2A    0.780000E-01   1.00800           0   0.00000       0.00000    
      5993 MEMB     33       POPE     H13Y     HDA2A    0.780000E-01   1.00800           0   0.00000       0.00000    
      5994 MEMB     33       POPE     C314     CD32A     2.07980       11.6110           0  -1.66000       1.30000    
      5995 MEMB     33       POPE     DC314    DRUD     -2.23580      0.400000           0   0.00000       0.00000    
      5996 MEMB     33       POPE     H14X     HDA2A    0.780000E-01   1.00800           0   0.00000       0.00000    
      5997 MEMB     33       POPE     H14Y     HDA2A    0.780000E-01   1.00800           0   0.00000       0.00000    
      5998 MEMB     33       POPE     C315     CD32A     2.07980       11.6110           0  -1.66000       1.30000    
      5999 MEMB     33       POPE     DC315    DRUD     -2.23580      0.400000           0   0.00000       0.00000    
      6000 MEMB     33       POPE     H15X     HDA2A    0.780000E-01   1.00800           0   0.00000       0.00000    
      6001 MEMB     33       POPE     H15Y     HDA2A    0.780000E-01   1.00800           0   0.00000       0.00000    
      6002 MEMB     33       POPE     C316     CD33A     2.30820       11.6110           0  -2.05100       1.30000    
      6003 MEMB     33       POPE     DC316    DRUD     -2.48520      0.400000           0   0.00000       0.00000    
      6004 MEMB     33       POPE     H16X     HDA3A    0.590000E-01   1.00800           0   0.00000       0.00000    
      6005 MEMB     33       POPE     H16Y     HDA3A    0.590000E-01   1.00800           0   0.00000       0.00000    
      6006 MEMB     33       POPE     H16Z     HDA3A    0.590000E-01   1.00800           0   0.00000       0.00000    
      6007 MEMB     34       POPE     N        ND3P3A    1.62810       13.6070           0  -1.29800      0.895000    
      6008 MEMB     34       POPE     DN       DRUD     -1.97710      0.400000           0   0.00000       0.00000    
      6009 MEMB     34       POPE     HN1      HDP1B    0.340000       1.00800           0   0.00000       0.00000    
      6010 MEMB     34       POPE     HN2      HDP1B    0.340000       1.00800           0   0.00000       0.00000    
      6011 MEMB     34       POPE     HN3      HDP1B    0.340000       1.00800           0   0.00000       0.00000    
      6012 MEMB     34       POPE     C12      CD32A     2.27610       11.6110           0  -1.65600      0.895000    
      6013 MEMB     34       POPE     DC12     DRUD     -2.23310      0.400000           0   0.00000       0.00000    
      6014 MEMB     34       POPE     H12A     HDA2A    0.143000       1.00800           0   0.00000       0.00000    
      6015 MEMB     34       POPE     H12B     HDA2A    0.143000       1.00800           0   0.00000       0.00000    
      6016 MEMB     34       POPE     C11      CD32A     2.42220       11.6110           0  -1.64200      0.862000    
      6017 MEMB     34       POPE     DC11     DRUD     -2.22370      0.400000           0   0.00000       0.00000    
      6018 MEMB     34       POPE     H11A     HDA2A    0.260000E-01   1.00800           0   0.00000       0.00000    
      6019 MEMB     34       POPE     H11B     HDA2A    0.260000E-01   1.00800           0   0.00000       0.00000    
      6020 MEMB     34       POPE     P        PD1A      2.90360       30.5740           0 -0.974000       2.09800    
      6021 MEMB     34       POPE     DP       DRUD     -1.71260      0.400000           0   0.00000       0.00000    
      6022 MEMB     34       POPE     O13      OD2C2B   0.798400       15.5994           0 -0.931000       1.08300    
      6023 MEMB     34       POPE     DO13     DRUD     -1.67440      0.400000           0   0.00000       0.00000    
      6024 MEMB     34       POPE     O14      OD2C2B   0.798400       15.5994           0 -0.931000       1.08300    
      6025 MEMB     34       POPE     DO14     DRUD     -1.67440      0.400000           0   0.00000       0.00000    
      6026 MEMB     34       POPE     O11      OD30B     1.17720       15.5994           0 -0.901000      0.181000    
      6027 MEMB     34       POPE     DO11     DRUD     -1.64720      0.400000           0   0.00000       0.00000    
      6028 MEMB     34       POPE     O12      OD30B     1.17720       15.5994           0 -0.901000      0.181000    
      6029 MEMB     34       POPE     DO12     DRUD     -1.64720      0.400000           0   0.00000       0.00000    
      6030 MEMB     34       POPE     C1       CD32A     2.42220       11.6110           0  -1.64200      0.862000    
      6031 MEMB     34       POPE     DC1      DRUD     -2.22370      0.400000           0   0.00000       0.00000    
      6032 MEMB     34       POPE     HA       HDA2A    0.260000E-01   1.00800           0   0.00000       0.00000    
      6033 MEMB     34       POPE     HB       HDA2A    0.260000E-01   1.00800           0   0.00000       0.00000    
      6034 MEMB     34       POPE     C2       CD31C     2.52830       11.6110           0  -1.79700      0.410000    
      6035 MEMB     34       POPE     DC2      DRUD     -2.32630      0.400000           0   0.00000       0.00000    
      6036 MEMB     34       POPE     HS       HDA1A    0.116000       1.00800           0   0.00000       0.00000    
      6037 MEMB     34       POPE     O21      OD30CL    1.48470       15.5994           0 -0.732000      0.601000    
      6038 MEMB     34       POPE     DO21     DRUD     -1.48470      0.400000           0   0.00000       0.00000    
      6039 MEMB     34       POPE     C21      CD2O3B    2.72820       11.6110           0  -1.37000       1.74700    
      6040 MEMB     34       POPE     DC21     DRUD     -2.03120      0.400000           0   0.00000       0.00000    
      6041 MEMB     34       POPE     O22      OD2C3B    1.64990       15.5994           0 -0.904000      0.565000    
      6042 MEMB     34       POPE     DO22     DRUD     -1.64990      0.400000           0   0.00000       0.00000    
      6043 MEMB     34       POPE     C22      CD32C     2.24380       11.6110           0  -1.99300      0.410000    
      6044 MEMB     34       POPE     DC22     DRUD     -2.44980      0.400000           0   0.00000       0.00000    
      6045 MEMB     34       POPE     H2R      HDA2A    0.690000E-01   1.00800           0   0.00000       0.00000    
      6046 MEMB     34       POPE     H2S      HDA2A    0.690000E-01   1.00800           0   0.00000       0.00000    
      6047 MEMB     34       POPE     LP1A     LPD     -0.349000       0.00000          -1   0.00000       0.00000    
      6048 MEMB     34       POPE     LP1B     LPD     -0.258000       0.00000          -1   0.00000       0.00000    
      6049 MEMB     34       POPE     LPMA     LPD     -0.170000       0.00000          -1   0.00000       0.00000    
      6050 MEMB     34       POPE     LPMB     LPD     -0.170000       0.00000          -1   0.00000       0.00000    
      6051 MEMB     34       POPE     C3       CD32C     2.41230       11.6110           0  -1.79700      0.410000    
      6052 MEMB     34       POPE     DC3      DRUD     -2.32630      0.400000           0   0.00000       0.00000    
      6053 MEMB     34       POPE     HX       HDA2A    0.116000       1.00800           0   0.00000       0.00000    
      6054 MEMB     34       POPE     HY       HDA2A    0.116000       1.00800           0   0.00000       0.00000    
      6055 MEMB     34       POPE     O31      OD30CL    1.48470       15.5994           0 -0.732000      0.601000    
      6056 MEMB     34       POPE     DO31     DRUD     -1.48470      0.400000           0   0.00000       0.00000    
      6057 MEMB     34       POPE     C31      CD2O3B    2.72820       11.6110           0  -1.37000       1.74700    
      6058 MEMB     34       POPE     DC31     DRUD     -2.03120      0.400000           0   0.00000       0.00000    
      6059 MEMB     34       POPE     O32      OD2C3B    1.64990       15.5994           0 -0.904000      0.565000    
      6060 MEMB     34       POPE     DO32     DRUD     -1.64990      0.400000           0   0.00000       0.00000    
      6061 MEMB     34       POPE     C32      CD32C     2.24380       11.6110           0  -1.99300      0.410000    
      6062 MEMB     34       POPE     DC32     DRUD     -2.44980      0.400000           0   0.00000       0.00000    
      6063 MEMB     34       POPE     H2X      HDA2A    0.690000E-01   1.00800           0   0.00000       0.00000    
      6064 MEMB     34       POPE     H2Y      HDA2A    0.690000E-01   1.00800           0   0.00000       0.00000    
      6065 MEMB     34       POPE     LP1C     LPD     -0.349000       0.00000          -1   0.00000       0.00000    
      6066 MEMB     34       POPE     LP1D     LPD     -0.258000       0.00000          -1   0.00000       0.00000    
      6067 MEMB     34       POPE     LPMC     LPD     -0.170000       0.00000          -1   0.00000       0.00000    
      6068 MEMB     34       POPE     LPMD     LPD     -0.170000       0.00000          -1   0.00000       0.00000    
      6069 MEMB     34       POPE     C23      CD32A     2.07980       11.6110           0  -1.66000       1.30000    
      6070 MEMB     34       POPE     DC23     DRUD     -2.23580      0.400000           0   0.00000       0.00000    
      6071 MEMB     34       POPE     H3R      HDA2A    0.780000E-01   1.00800           0   0.00000       0.00000    
      6072 MEMB     34       POPE     H3S      HDA2A    0.780000E-01   1.00800           0   0.00000       0.00000    
      6073 MEMB     34       POPE     C24      CD32A     2.07980       11.6110           0  -1.66000       1.30000    
      6074 MEMB     34       POPE     DC24     DRUD     -2.23580      0.400000           0   0.00000       0.00000    
      6075 MEMB     34       POPE     H4R      HDA2A    0.780000E-01   1.00800           0   0.00000       0.00000    
      6076 MEMB     34       POPE     H4S      HDA2A    0.780000E-01   1.00800           0   0.00000       0.00000    
      6077 MEMB     34       POPE     C25      CD32A     2.07980       11.6110           0  -1.66000       1.30000    
      6078 MEMB     34       POPE     DC25     DRUD     -2.23580      0.400000           0   0.00000       0.00000    
      6079 MEMB     34       POPE     H5R      HDA2A    0.780000E-01   1.00800           0   0.00000       0.00000    
      6080 MEMB     34       POPE     H5S      HDA2A    0.780000E-01   1.00800           0   0.00000       0.00000    
      6081 MEMB     34       POPE     C26      CD32A     2.07980       11.6110           0  -1.66000       1.30000    
      6082 MEMB     34       POPE     DC26     DRUD     -2.23580      0.400000           0   0.00000       0.00000    
      6083 MEMB     34       POPE     H6R      HDA2A    0.780000E-01   1.00800           0   0.00000       0.00000    
      6084 MEMB     34       POPE     H6S      HDA2A    0.780000E-01   1.00800           0   0.00000       0.00000    
      6085 MEMB     34       POPE     C27      CD32A     2.07980       11.6110           0  -1.66000       1.30000    
      6086 MEMB     34       POPE     DC27     DRUD     -2.23580      0.400000           0   0.00000       0.00000    
      6087 MEMB     34       POPE     H7R      HDA2A    0.780000E-01   1.00800           0   0.00000       0.00000    
      6088 MEMB     34       POPE     H7S      HDA2A    0.780000E-01   1.00800           0   0.00000       0.00000    
      6089 MEMB     34       POPE     C28      CD32A     2.07980       11.6110           0  -1.66000       1.30000    
      6090 MEMB     34       POPE     DC28     DRUD     -2.23580      0.400000           0   0.00000       0.00000    
      6091 MEMB     34       POPE     H8R      HDA2A    0.780000E-01   1.00800           0   0.00000       0.00000    
      6092 MEMB     34       POPE     H8S      HDA2A    0.780000E-01   1.00800           0   0.00000       0.00000    
      6093 MEMB     34       POPE     C29      CD2C1A    2.33700       11.6110           0  -1.99000      0.750000    
      6094 MEMB     34       POPE     DC29     DRUD     -2.44800      0.400000           0   0.00000       0.00000    
      6095 MEMB     34       POPE     H91      HD2C1A   0.111000       1.00800           0   0.00000       0.00000    
      6096 MEMB     34       POPE     C210     CD2C1A    2.33700       11.6110           0  -1.99000      0.750000    
      6097 MEMB     34       POPE     DC210    DRUD     -2.44800      0.400000           0   0.00000       0.00000    
      6098 MEMB     34       POPE     H101     HD2C1A   0.111000       1.00800           0   0.00000       0.00000    
      6099 MEMB     34       POPE     C211     CD32A     2.07980       11.6110           0  -1.66000       1.30000    
      6100 MEMB     34       POPE     DC211    DRUD     -2.23580      0.400000           0   0.00000       0.00000    
      6101 MEMB     34       POPE     H11R     HDA2A    0.780000E-01   1.00800           0   0.00000       0.00000    
      6102 MEMB     34       POPE     H11S     HDA2A    0.780000E-01   1.00800           0   0.00000       0.00000    
      6103 MEMB     34       POPE     C212     CD32A     2.07980       11.6110           0  -1.66000       1.30000    
      6104 MEMB     34       POPE     DC212    DRUD     -2.23580      0.400000           0   0.00000       0.00000    
      6105 MEMB     34       POPE     H12R     HDA2A    0.780000E-01   1.00800           0   0.00000       0.00000    
      6106 MEMB     34       POPE     H12S     HDA2A    0.780000E-01   1.00800           0   0.00000       0.00000    
      6107 MEMB     34       POPE     C213     CD32A     2.07980       11.6110           0  -1.66000       1.30000    
      6108 MEMB     34       POPE     DC213    DRUD     -2.23580      0.400000           0   0.00000       0.00000    
      6109 MEMB     34       POPE     H13R     HDA2A    0.780000E-01   1.00800           0   0.00000       0.00000    
      6110 MEMB     34       POPE     H13S     HDA2A    0.780000E-01   1.00800           0   0.00000       0.00000    
      6111 MEMB     34       POPE     C214     CD32A     2.07980       11.6110           0  -1.66000       1.30000    
      6112 MEMB     34       POPE     DC214    DRUD     -2.23580      0.400000           0   0.00000       0.00000    
      6113 MEMB     34       POPE     H14R     HDA2A    0.780000E-01   1.00800           0   0.00000       0.00000    
      6114 MEMB     34       POPE     H14S     HDA2A    0.780000E-01   1.00800           0   0.00000       0.00000    
      6115 MEMB     34       POPE     C215     CD32A     2.07980       11.6110           0  -1.66000       1.30000    
      6116 MEMB     34       POPE     DC215    DRUD     -2.23580      0.400000           0   0.00000       0.00000    
      6117 MEMB     34       POPE     H15R     HDA2A    0.780000E-01   1.00800           0   0.00000       0.00000    
      6118 MEMB     34       POPE     H15S     HDA2A    0.780000E-01   1.00800           0   0.00000       0.00000    
      6119 MEMB     34       POPE     C216     CD32A     2.07980       11.6110           0  -1.66000       1.30000    
      6120 MEMB     34       POPE     DC216    DRUD     -2.23580      0.400000           0   0.00000       0.00000    
      6121 MEMB     34       POPE     H16R     HDA2A    0.780000E-01   1.00800           0   0.00000       0.00000    
      6122 MEMB     34       POPE     H16S     HDA2A    0.780000E-01   1.00800           0   0.00000       0.00000    
      6123 MEMB     34       POPE     C217     CD32A     2.07980       11.6110           0  -1.66000       1.30000    
      6124 MEMB     34       POPE     DC217    DRUD     -2.23580      0.400000           0   0.00000       0.00000    
      6125 MEMB     34       POPE     H17R     HDA2A    0.780000E-01   1.00800           0   0.00000       0.00000    
      6126 MEMB     34       POPE     H17S     HDA2A    0.780000E-01   1.00800           0   0.00000       0.00000    
      6127 MEMB     34       POPE     C218     CD33A     2.30820       11.6110           0  -2.05100       1.30000    
      6128 MEMB     34       POPE     DC218    DRUD     -2.48520      0.400000           0   0.00000       0.00000    
      6129 MEMB     34       POPE     H18R     HDA3A    0.590000E-01   1.00800           0   0.00000       0.00000    
      6130 MEMB     34       POPE     H18S     HDA3A    0.590000E-01   1.00800           0   0.00000       0.00000    
      6131 MEMB     34       POPE     H18T     HDA3A    0.590000E-01   1.00800           0   0.00000       0.00000    
      6132 MEMB     34       POPE     C33      CD32A     2.07980       11.6110           0  -1.66000       1.30000    
      6133 MEMB     34       POPE     DC33     DRUD     -2.23580      0.400000           0   0.00000       0.00000    
      6134 MEMB     34       POPE     H3X      HDA2A    0.780000E-01   1.00800           0   0.00000       0.00000    
      6135 MEMB     34       POPE     H3Y      HDA2A    0.780000E-01   1.00800           0   0.00000       0.00000    
      6136 MEMB     34       POPE     C34      CD32A     2.07980       11.6110           0  -1.66000       1.30000    
      6137 MEMB     34       POPE     DC34     DRUD     -2.23580      0.400000           0   0.00000       0.00000    
      6138 MEMB     34       POPE     H4X      HDA2A    0.780000E-01   1.00800           0   0.00000       0.00000    
      6139 MEMB     34       POPE     H4Y      HDA2A    0.780000E-01   1.00800           0   0.00000       0.00000    
      6140 MEMB     34       POPE     C35      CD32A     2.07980       11.6110           0  -1.66000       1.30000    
      6141 MEMB     34       POPE     DC35     DRUD     -2.23580      0.400000           0   0.00000       0.00000    
      6142 MEMB     34       POPE     H5X      HDA2A    0.780000E-01   1.00800           0   0.00000       0.00000    
      6143 MEMB     34       POPE     H5Y      HDA2A    0.780000E-01   1.00800           0   0.00000       0.00000    
      6144 MEMB     34       POPE     C36      CD32A     2.07980       11.6110           0  -1.66000       1.30000    
      6145 MEMB     34       POPE     DC36     DRUD     -2.23580      0.400000           0   0.00000       0.00000    
      6146 MEMB     34       POPE     H6X      HDA2A    0.780000E-01   1.00800           0   0.00000       0.00000    
      6147 MEMB     34       POPE     H6Y      HDA2A    0.780000E-01   1.00800           0   0.00000       0.00000    
      6148 MEMB     34       POPE     C37      CD32A     2.07980       11.6110           0  -1.66000       1.30000    
      6149 MEMB     34       POPE     DC37     DRUD     -2.23580      0.400000           0   0.00000       0.00000    
      6150 MEMB     34       POPE     H7X      HDA2A    0.780000E-01   1.00800           0   0.00000       0.00000    
      6151 MEMB     34       POPE     H7Y      HDA2A    0.780000E-01   1.00800           0   0.00000       0.00000    
      6152 MEMB     34       POPE     C38      CD32A     2.07980       11.6110           0  -1.66000       1.30000    
      6153 MEMB     34       POPE     DC38     DRUD     -2.23580      0.400000           0   0.00000       0.00000    
      6154 MEMB     34       POPE     H8X      HDA2A    0.780000E-01   1.00800           0   0.00000       0.00000    
      6155 MEMB     34       POPE     H8Y      HDA2A    0.780000E-01   1.00800           0   0.00000       0.00000    
      6156 MEMB     34       POPE     C39      CD32A     2.07980       11.6110           0  -1.66000       1.30000    
      6157 MEMB     34       POPE     DC39     DRUD     -2.23580      0.400000           0   0.00000       0.00000    
      6158 MEMB     34       POPE     H9X      HDA2A    0.780000E-01   1.00800           0   0.00000       0.00000    
      6159 MEMB     34       POPE     H9Y      HDA2A    0.780000E-01   1.00800           0   0.00000       0.00000    
      6160 MEMB     34       POPE     C310     CD32A     2.07980       11.6110           0  -1.66000       1.30000    
      6161 MEMB     34       POPE     DC310    DRUD     -2.23580      0.400000           0   0.00000       0.00000    
      6162 MEMB     34       POPE     H10X     HDA2A    0.780000E-01   1.00800           0   0.00000       0.00000    
      6163 MEMB     34       POPE     H10Y     HDA2A    0.780000E-01   1.00800           0   0.00000       0.00000    
      6164 MEMB     34       POPE     C311     CD32A     2.07980       11.6110           0  -1.66000       1.30000    
      6165 MEMB     34       POPE     DC311    DRUD     -2.23580      0.400000           0   0.00000       0.00000    
      6166 MEMB     34       POPE     H11X     HDA2A    0.780000E-01   1.00800           0   0.00000       0.00000    
      6167 MEMB     34       POPE     H11Y     HDA2A    0.780000E-01   1.00800           0   0.00000       0.00000    
      6168 MEMB     34       POPE     C312     CD32A     2.07980       11.6110           0  -1.66000       1.30000    
      6169 MEMB     34       POPE     DC312    DRUD     -2.23580      0.400000           0   0.00000       0.00000    
      6170 MEMB     34       POPE     H12X     HDA2A    0.780000E-01   1.00800           0   0.00000       0.00000    
      6171 MEMB     34       POPE     H12Y     HDA2A    0.780000E-01   1.00800           0   0.00000       0.00000    
      6172 MEMB     34       POPE     C313     CD32A     2.07980       11.6110           0  -1.66000       1.30000    
      6173 MEMB     34       POPE     DC313    DRUD     -2.23580      0.400000           0   0.00000       0.00000    
      6174 MEMB     34       POPE     H13X     HDA2A    0.780000E-01   1.00800           0   0.00000       0.00000    
      6175 MEMB     34       POPE     H13Y     HDA2A    0.780000E-01   1.00800           0   0.00000       0.00000    
      6176 MEMB     34       POPE     C314     CD32A     2.07980       11.6110           0  -1.66000       1.30000    
      6177 MEMB     34       POPE     DC314    DRUD     -2.23580      0.400000           0   0.00000       0.00000    
      6178 MEMB     34       POPE     H14X     HDA2A    0.780000E-01   1.00800           0   0.00000       0.00000    
      6179 MEMB     34       POPE     H14Y     HDA2A    0.780000E-01   1.00800           0   0.00000       0.00000    
      6180 MEMB     34       POPE     C315     CD32A     2.07980       11.6110           0  -1.66000       1.30000    
      6181 MEMB     34       POPE     DC315    DRUD     -2.23580      0.400000           0   0.00000       0.00000    
      6182 MEMB     34       POPE     H15X     HDA2A    0.780000E-01   1.00800           0   0.00000       0.00000    
      6183 MEMB     34       POPE     H15Y     HDA2A    0.780000E-01   1.00800           0   0.00000       0.00000    
      6184 MEMB     34       POPE     C316     CD33A     2.30820       11.6110           0  -2.05100       1.30000    
      6185 MEMB     34       POPE     DC316    DRUD     -2.48520      0.400000           0   0.00000       0.00000    
      6186 MEMB     34       POPE     H16X     HDA3A    0.590000E-01   1.00800           0   0.00000       0.00000    
      6187 MEMB     34       POPE     H16Y     HDA3A    0.590000E-01   1.00800           0   0.00000       0.00000    
      6188 MEMB     34       POPE     H16Z     HDA3A    0.590000E-01   1.00800           0   0.00000       0.00000    
      6189 MEMB     35       POPE     N        ND3P3A    1.62810       13.6070           0  -1.29800      0.895000    
      6190 MEMB     35       POPE     DN       DRUD     -1.97710      0.400000           0   0.00000       0.00000    
      6191 MEMB     35       POPE     HN1      HDP1B    0.340000       1.00800           0   0.00000       0.00000    
      6192 MEMB     35       POPE     HN2      HDP1B    0.340000       1.00800           0   0.00000       0.00000    
      6193 MEMB     35       POPE     HN3      HDP1B    0.340000       1.00800           0   0.00000       0.00000    
      6194 MEMB     35       POPE     C12      CD32A     2.27610       11.6110           0  -1.65600      0.895000    
      6195 MEMB     35       POPE     DC12     DRUD     -2.23310      0.400000           0   0.00000       0.00000    
      6196 MEMB     35       POPE     H12A     HDA2A    0.143000       1.00800           0   0.00000       0.00000    
      6197 MEMB     35       POPE     H12B     HDA2A    0.143000       1.00800           0   0.00000       0.00000    
      6198 MEMB     35       POPE     C11      CD32A     2.42220       11.6110           0  -1.64200      0.862000    
      6199 MEMB     35       POPE     DC11     DRUD     -2.22370      0.400000           0   0.00000       0.00000    
      6200 MEMB     35       POPE     H11A     HDA2A    0.260000E-01   1.00800           0   0.00000       0.00000    
      6201 MEMB     35       POPE     H11B     HDA2A    0.260000E-01   1.00800           0   0.00000       0.00000    
      6202 MEMB     35       POPE     P        PD1A      2.90360       30.5740           0 -0.974000       2.09800    
      6203 MEMB     35       POPE     DP       DRUD     -1.71260      0.400000           0   0.00000       0.00000    
      6204 MEMB     35       POPE     O13      OD2C2B   0.798400       15.5994           0 -0.931000       1.08300    
      6205 MEMB     35       POPE     DO13     DRUD     -1.67440      0.400000           0   0.00000       0.00000    
      6206 MEMB     35       POPE     O14      OD2C2B   0.798400       15.5994           0 -0.931000       1.08300    
      6207 MEMB     35       POPE     DO14     DRUD     -1.67440      0.400000           0   0.00000       0.00000    
      6208 MEMB     35       POPE     O11      OD30B     1.17720       15.5994           0 -0.901000      0.181000    
      6209 MEMB     35       POPE     DO11     DRUD     -1.64720      0.400000           0   0.00000       0.00000    
      6210 MEMB     35       POPE     O12      OD30B     1.17720       15.5994           0 -0.901000      0.181000    
      6211 MEMB     35       POPE     DO12     DRUD     -1.64720      0.400000           0   0.00000       0.00000    
      6212 MEMB     35       POPE     C1       CD32A     2.42220       11.6110           0  -1.64200      0.862000    
      6213 MEMB     35       POPE     DC1      DRUD     -2.22370      0.400000           0   0.00000       0.00000    
      6214 MEMB     35       POPE     HA       HDA2A    0.260000E-01   1.00800           0   0.00000       0.00000    
      6215 MEMB     35       POPE     HB       HDA2A    0.260000E-01   1.00800           0   0.00000       0.00000    
      6216 MEMB     35       POPE     C2       CD31C     2.52830       11.6110           0  -1.79700      0.410000    
      6217 MEMB     35       POPE     DC2      DRUD     -2.32630      0.400000           0   0.00000       0.00000    
      6218 MEMB     35       POPE     HS       HDA1A    0.116000       1.00800           0   0.00000       0.00000    
      6219 MEMB     35       POPE     O21      OD30CL    1.48470       15.5994           0 -0.732000      0.601000    
      6220 MEMB     35       POPE     DO21     DRUD     -1.48470      0.400000           0   0.00000       0.00000    
      6221 MEMB     35       POPE     C21      CD2O3B    2.72820       11.6110           0  -1.37000       1.74700    
      6222 MEMB     35       POPE     DC21     DRUD     -2.03120      0.400000           0   0.00000       0.00000    
      6223 MEMB     35       POPE     O22      OD2C3B    1.64990       15.5994           0 -0.904000      0.565000    
      6224 MEMB     35       POPE     DO22     DRUD     -1.64990      0.400000           0   0.00000       0.00000    
      6225 MEMB     35       POPE     C22      CD32C     2.24380       11.6110           0  -1.99300      0.410000    
      6226 MEMB     35       POPE     DC22     DRUD     -2.44980      0.400000           0   0.00000       0.00000    
      6227 MEMB     35       POPE     H2R      HDA2A    0.690000E-01   1.00800           0   0.00000       0.00000    
      6228 MEMB     35       POPE     H2S      HDA2A    0.690000E-01   1.00800           0   0.00000       0.00000    
      6229 MEMB     35       POPE     LP1A     LPD     -0.349000       0.00000          -1   0.00000       0.00000    
      6230 MEMB     35       POPE     LP1B     LPD     -0.258000       0.00000          -1   0.00000       0.00000    
      6231 MEMB     35       POPE     LPMA     LPD     -0.170000       0.00000          -1   0.00000       0.00000    
      6232 MEMB     35       POPE     LPMB     LPD     -0.170000       0.00000          -1   0.00000       0.00000    
      6233 MEMB     35       POPE     C3       CD32C     2.41230       11.6110           0  -1.79700      0.410000    
      6234 MEMB     35       POPE     DC3      DRUD     -2.32630      0.400000           0   0.00000       0.00000    
      6235 MEMB     35       POPE     HX       HDA2A    0.116000       1.00800           0   0.00000       0.00000    
      6236 MEMB     35       POPE     HY       HDA2A    0.116000       1.00800           0   0.00000       0.00000    
      6237 MEMB     35       POPE     O31      OD30CL    1.48470       15.5994           0 -0.732000      0.601000    
      6238 MEMB     35       POPE     DO31     DRUD     -1.48470      0.400000           0   0.00000       0.00000    
      6239 MEMB     35       POPE     C31      CD2O3B    2.72820       11.6110           0  -1.37000       1.74700    
      6240 MEMB     35       POPE     DC31     DRUD     -2.03120      0.400000           0   0.00000       0.00000    
      6241 MEMB     35       POPE     O32      OD2C3B    1.64990       15.5994           0 -0.904000      0.565000    
      6242 MEMB     35       POPE     DO32     DRUD     -1.64990      0.400000           0   0.00000       0.00000    
      6243 MEMB     35       POPE     C32      CD32C     2.24380       11.6110           0  -1.99300      0.410000    
      6244 MEMB     35       POPE     DC32     DRUD     -2.44980      0.400000           0   0.00000       0.00000    
      6245 MEMB     35       POPE     H2X      HDA2A    0.690000E-01   1.00800           0   0.00000       0.00000    
      6246 MEMB     35       POPE     H2Y      HDA2A    0.690000E-01   1.00800           0   0.00000       0.00000    
      6247 MEMB     35       POPE     LP1C     LPD     -0.349000       0.00000          -1   0.00000       0.00000    
      6248 MEMB     35       POPE     LP1D     LPD     -0.258000       0.00000          -1   0.00000       0.00000    
      6249 MEMB     35       POPE     LPMC     LPD     -0.170000       0.00000          -1   0.00000       0.00000    
      6250 MEMB     35       POPE     LPMD     LPD     -0.170000       0.00000          -1   0.00000       0.00000    
      6251 MEMB     35       POPE     C23      CD32A     2.07980       11.6110           0  -1.66000       1.30000    
      6252 MEMB     35       POPE     DC23     DRUD     -2.23580      0.400000           0   0.00000       0.00000    
      6253 MEMB     35       POPE     H3R      HDA2A    0.780000E-01   1.00800           0   0.00000       0.00000    
      6254 MEMB     35       POPE     H3S      HDA2A    0.780000E-01   1.00800           0   0.00000       0.00000    
      6255 MEMB     35       POPE     C24      CD32A     2.07980       11.6110           0  -1.66000       1.30000    
      6256 MEMB     35       POPE     DC24     DRUD     -2.23580      0.400000           0   0.00000       0.00000    
      6257 MEMB     35       POPE     H4R      HDA2A    0.780000E-01   1.00800           0   0.00000       0.00000    
      6258 MEMB     35       POPE     H4S      HDA2A    0.780000E-01   1.00800           0   0.00000       0.00000    
      6259 MEMB     35       POPE     C25      CD32A     2.07980       11.6110           0  -1.66000       1.30000    
      6260 MEMB     35       POPE     DC25     DRUD     -2.23580      0.400000           0   0.00000       0.00000    
      6261 MEMB     35       POPE     H5R      HDA2A    0.780000E-01   1.00800           0   0.00000       0.00000    
      6262 MEMB     35       POPE     H5S      HDA2A    0.780000E-01   1.00800           0   0.00000       0.00000    
      6263 MEMB     35       POPE     C26      CD32A     2.07980       11.6110           0  -1.66000       1.30000    
      6264 MEMB     35       POPE     DC26     DRUD     -2.23580      0.400000           0   0.00000       0.00000    
      6265 MEMB     35       POPE     H6R      HDA2A    0.780000E-01   1.00800           0   0.00000       0.00000    
      6266 MEMB     35       POPE     H6S      HDA2A    0.780000E-01   1.00800           0   0.00000       0.00000    
      6267 MEMB     35       POPE     C27      CD32A     2.07980       11.6110           0  -1.66000       1.30000    
      6268 MEMB     35       POPE     DC27     DRUD     -2.23580      0.400000           0   0.00000       0.00000    
      6269 MEMB     35       POPE     H7R      HDA2A    0.780000E-01   1.00800           0   0.00000       0.00000    
      6270 MEMB     35       POPE     H7S      HDA2A    0.780000E-01   1.00800           0   0.00000       0.00000    
      6271 MEMB     35       POPE     C28      CD32A     2.07980       11.6110           0  -1.66000       1.30000    
      6272 MEMB     35       POPE     DC28     DRUD     -2.23580      0.400000           0   0.00000       0.00000    
      6273 MEMB     35       POPE     H8R      HDA2A    0.780000E-01   1.00800           0   0.00000       0.00000    
      6274 MEMB     35       POPE     H8S      HDA2A    0.780000E-01   1.00800           0   0.00000       0.00000    
      6275 MEMB     35       POPE     C29      CD2C1A    2.33700       11.6110           0  -1.99000      0.750000    
      6276 MEMB     35       POPE     DC29     DRUD     -2.44800      0.400000           0   0.00000       0.00000    
      6277 MEMB     35       POPE     H91      HD2C1A   0.111000       1.00800           0   0.00000       0.00000    
      6278 MEMB     35       POPE     C210     CD2C1A    2.33700       11.6110           0  -1.99000      0.750000    
      6279 MEMB     35       POPE     DC210    DRUD     -2.44800      0.400000           0   0.00000       0.00000    
      6280 MEMB     35       POPE     H101     HD2C1A   0.111000       1.00800           0   0.00000       0.00000    
      6281 MEMB     35       POPE     C211     CD32A     2.07980       11.6110           0  -1.66000       1.30000    
      6282 MEMB     35       POPE     DC211    DRUD     -2.23580      0.400000           0   0.00000       0.00000    
      6283 MEMB     35       POPE     H11R     HDA2A    0.780000E-01   1.00800           0   0.00000       0.00000    
      6284 MEMB     35       POPE     H11S     HDA2A    0.780000E-01   1.00800           0   0.00000       0.00000    
      6285 MEMB     35       POPE     C212     CD32A     2.07980       11.6110           0  -1.66000       1.30000    
      6286 MEMB     35       POPE     DC212    DRUD     -2.23580      0.400000           0   0.00000       0.00000    
      6287 MEMB     35       POPE     H12R     HDA2A    0.780000E-01   1.00800           0   0.00000       0.00000    
      6288 MEMB     35       POPE     H12S     HDA2A    0.780000E-01   1.00800           0   0.00000       0.00000    
      6289 MEMB     35       POPE     C213     CD32A     2.07980       11.6110           0  -1.66000       1.30000    
      6290 MEMB     35       POPE     DC213    DRUD     -2.23580      0.400000           0   0.00000       0.00000    
      6291 MEMB     35       POPE     H13R     HDA2A    0.780000E-01   1.00800           0   0.00000       0.00000    
      6292 MEMB     35       POPE     H13S     HDA2A    0.780000E-01   1.00800           0   0.00000       0.00000    
      6293 MEMB     35       POPE     C214     CD32A     2.07980       11.6110           0  -1.66000       1.30000    
      6294 MEMB     35       POPE     DC214    DRUD     -2.23580      0.400000           0   0.00000       0.00000    
      6295 MEMB     35       POPE     H14R     HDA2A    0.780000E-01   1.00800           0   0.00000       0.00000    
      6296 MEMB     35       POPE     H14S     HDA2A    0.780000E-01   1.00800           0   0.00000       0.00000    
      6297 MEMB     35       POPE     C215     CD32A     2.07980       11.6110           0  -1.66000       1.30000    
      6298 MEMB     35       POPE     DC215    DRUD     -2.23580      0.400000           0   0.00000       0.00000    
      6299 MEMB     35       POPE     H15R     HDA2A    0.780000E-01   1.00800           0   0.00000       0.00000    
      6300 MEMB     35       POPE     H15S     HDA2A    0.780000E-01   1.00800           0   0.00000       0.00000    
      6301 MEMB     35       POPE     C216     CD32A     2.07980       11.6110           0  -1.66000       1.30000    
      6302 MEMB     35       POPE     DC216    DRUD     -2.23580      0.400000           0   0.00000       0.00000    
      6303 MEMB     35       POPE     H16R     HDA2A    0.780000E-01   1.00800           0   0.00000       0.00000    
      6304 MEMB     35       POPE     H16S     HDA2A    0.780000E-01   1.00800           0   0.00000       0.00000    
      6305 MEMB     35       POPE     C217     CD32A     2.07980       11.6110           0  -1.66000       1.30000    
      6306 MEMB     35       POPE     DC217    DRUD     -2.23580      0.400000           0   0.00000       0.00000    
      6307 MEMB     35       POPE     H17R     HDA2A    0.780000E-01   1.00800           0   0.00000       0.00000    
      6308 MEMB     35       POPE     H17S     HDA2A    0.780000E-01   1.00800           0   0.00000       0.00000    
      6309 MEMB     35       POPE     C218     CD33A     2.30820       11.6110           0  -2.05100       1.30000    
      6310 MEMB     35       POPE     DC218    DRUD     -2.48520      0.400000           0   0.00000       0.00000    
      6311 MEMB     35       POPE     H18R     HDA3A    0.590000E-01   1.00800           0   0.00000       0.00000    
      6312 MEMB     35       POPE     H18S     HDA3A    0.590000E-01   1.00800           0   0.00000       0.00000    
      6313 MEMB     35       POPE     H18T     HDA3A    0.590000E-01   1.00800           0   0.00000       0.00000    
      6314 MEMB     35       POPE     C33      CD32A     2.07980       11.6110           0  -1.66000       1.30000    
      6315 MEMB     35       POPE     DC33     DRUD     -2.23580      0.400000           0   0.00000       0.00000    
      6316 MEMB     35       POPE     H3X      HDA2A    0.780000E-01   1.00800           0   0.00000       0.00000    
      6317 MEMB     35       POPE     H3Y      HDA2A    0.780000E-01   1.00800           0   0.00000       0.00000    
      6318 MEMB     35       POPE     C34      CD32A     2.07980       11.6110           0  -1.66000       1.30000    
      6319 MEMB     35       POPE     DC34     DRUD     -2.23580      0.400000           0   0.00000       0.00000    
      6320 MEMB     35       POPE     H4X      HDA2A    0.780000E-01   1.00800           0   0.00000       0.00000    
      6321 MEMB     35       POPE     H4Y      HDA2A    0.780000E-01   1.00800           0   0.00000       0.00000    
      6322 MEMB     35       POPE     C35      CD32A     2.07980       11.6110           0  -1.66000       1.30000    
      6323 MEMB     35       POPE     DC35     DRUD     -2.23580      0.400000           0   0.00000       0.00000    
      6324 MEMB     35       POPE     H5X      HDA2A    0.780000E-01   1.00800           0   0.00000       0.00000    
      6325 MEMB     35       POPE     H5Y      HDA2A    0.780000E-01   1.00800           0   0.00000       0.00000    
      6326 MEMB     35       POPE     C36      CD32A     2.07980       11.6110           0  -1.66000       1.30000    
      6327 MEMB     35       POPE     DC36     DRUD     -2.23580      0.400000           0   0.00000       0.00000    
      6328 MEMB     35       POPE     H6X      HDA2A    0.780000E-01   1.00800           0   0.00000       0.00000    
      6329 MEMB     35       POPE     H6Y      HDA2A    0.780000E-01   1.00800           0   0.00000       0.00000    
      6330 MEMB     35       POPE     C37      CD32A     2.07980       11.6110           0  -1.66000       1.30000    
      6331 MEMB     35       POPE     DC37     DRUD     -2.23580      0.400000           0   0.00000       0.00000    
      6332 MEMB     35       POPE     H7X      HDA2A    0.780000E-01   1.00800           0   0.00000       0.00000    
      6333 MEMB     35       POPE     H7Y      HDA2A    0.780000E-01   1.00800           0   0.00000       0.00000    
      6334 MEMB     35       POPE     C38      CD32A     2.07980       11.6110           0  -1.66000       1.30000    
      6335 MEMB     35       POPE     DC38     DRUD     -2.23580      0.400000           0   0.00000       0.00000    
      6336 MEMB     35       POPE     H8X      HDA2A    0.780000E-01   1.00800           0   0.00000       0.00000    
      6337 MEMB     35       POPE     H8Y      HDA2A    0.780000E-01   1.00800           0   0.00000       0.00000    
      6338 MEMB     35       POPE     C39      CD32A     2.07980       11.6110           0  -1.66000       1.30000    
      6339 MEMB     35       POPE     DC39     DRUD     -2.23580      0.400000           0   0.00000       0.00000    
      6340 MEMB     35       POPE     H9X      HDA2A    0.780000E-01   1.00800           0   0.00000       0.00000    
      6341 MEMB     35       POPE     H9Y      HDA2A    0.780000E-01   1.00800           0   0.00000       0.00000    
      6342 MEMB     35       POPE     C310     CD32A     2.07980       11.6110           0  -1.66000       1.30000    
      6343 MEMB     35       POPE     DC310    DRUD     -2.23580      0.400000           0   0.00000       0.00000    
      6344 MEMB     35       POPE     H10X     HDA2A    0.780000E-01   1.00800           0   0.00000       0.00000    
      6345 MEMB     35       POPE     H10Y     HDA2A    0.780000E-01   1.00800           0   0.00000       0.00000    
      6346 MEMB     35       POPE     C311     CD32A     2.07980       11.6110           0  -1.66000       1.30000    
      6347 MEMB     35       POPE     DC311    DRUD     -2.23580      0.400000           0   0.00000       0.00000    
      6348 MEMB     35       POPE     H11X     HDA2A    0.780000E-01   1.00800           0   0.00000       0.00000    
      6349 MEMB     35       POPE     H11Y     HDA2A    0.780000E-01   1.00800           0   0.00000       0.00000    
      6350 MEMB     35       POPE     C312     CD32A     2.07980       11.6110           0  -1.66000       1.30000    
      6351 MEMB     35       POPE     DC312    DRUD     -2.23580      0.400000           0   0.00000       0.00000    
      6352 MEMB     35       POPE     H12X     HDA2A    0.780000E-01   1.00800           0   0.00000       0.00000    
      6353 MEMB     35       POPE     H12Y     HDA2A    0.780000E-01   1.00800           0   0.00000       0.00000    
      6354 MEMB     35       POPE     C313     CD32A     2.07980       11.6110           0  -1.66000       1.30000    
      6355 MEMB     35       POPE     DC313    DRUD     -2.23580      0.400000           0   0.00000       0.00000    
      6356 MEMB     35       POPE     H13X     HDA2A    0.780000E-01   1.00800           0   0.00000       0.00000    
      6357 MEMB     35       POPE     H13Y     HDA2A    0.780000E-01   1.00800           0   0.00000       0.00000    
      6358 MEMB     35       POPE     C314     CD32A     2.07980       11.6110           0  -1.66000       1.30000    
      6359 MEMB     35       POPE     DC314    DRUD     -2.23580      0.400000           0   0.00000       0.00000    
      6360 MEMB     35       POPE     H14X     HDA2A    0.780000E-01   1.00800           0   0.00000       0.00000    
      6361 MEMB     35       POPE     H14Y     HDA2A    0.780000E-01   1.00800           0   0.00000       0.00000    
      6362 MEMB     35       POPE     C315     CD32A     2.07980       11.6110           0  -1.66000       1.30000    
      6363 MEMB     35       POPE     DC315    DRUD     -2.23580      0.400000           0   0.00000       0.00000    
      6364 MEMB     35       POPE     H15X     HDA2A    0.780000E-01   1.00800           0   0.00000       0.00000    
      6365 MEMB     35       POPE     H15Y     HDA2A    0.780000E-01   1.00800           0   0.00000       0.00000    
      6366 MEMB     35       POPE     C316     CD33A     2.30820       11.6110           0  -2.05100       1.30000    
      6367 MEMB     35       POPE     DC316    DRUD     -2.48520      0.400000           0   0.00000       0.00000    
      6368 MEMB     35       POPE     H16X     HDA3A    0.590000E-01   1.00800           0   0.00000       0.00000    
      6369 MEMB     35       POPE     H16Y     HDA3A    0.590000E-01   1.00800           0   0.00000       0.00000    
      6370 MEMB     35       POPE     H16Z     HDA3A    0.590000E-01   1.00800           0   0.00000       0.00000    
      6371 MEMB     36       POPE     N        ND3P3A    1.62810       13.6070           0  -1.29800      0.895000    
      6372 MEMB     36       POPE     DN       DRUD     -1.97710      0.400000           0   0.00000       0.00000    
      6373 MEMB     36       POPE     HN1      HDP1B    0.340000       1.00800           0   0.00000       0.00000    
      6374 MEMB     36       POPE     HN2      HDP1B    0.340000       1.00800           0   0.00000       0.00000    
      6375 MEMB     36       POPE     HN3      HDP1B    0.340000       1.00800           0   0.00000       0.00000    
      6376 MEMB     36       POPE     C12      CD32A     2.27610       11.6110           0  -1.65600      0.895000    
      6377 MEMB     36       POPE     DC12     DRUD     -2.23310      0.400000           0   0.00000       0.00000    
      6378 MEMB     36       POPE     H12A     HDA2A    0.143000       1.00800           0   0.00000       0.00000    
      6379 MEMB     36       POPE     H12B     HDA2A    0.143000       1.00800           0   0.00000       0.00000    
      6380 MEMB     36       POPE     C11      CD32A     2.42220       11.6110           0  -1.64200      0.862000    
      6381 MEMB     36       POPE     DC11     DRUD     -2.22370      0.400000           0   0.00000       0.00000    
      6382 MEMB     36       POPE     H11A     HDA2A    0.260000E-01   1.00800           0   0.00000       0.00000    
      6383 MEMB     36       POPE     H11B     HDA2A    0.260000E-01   1.00800           0   0.00000       0.00000    
      6384 MEMB     36       POPE     P        PD1A      2.90360       30.5740           0 -0.974000       2.09800    
      6385 MEMB     36       POPE     DP       DRUD     -1.71260      0.400000           0   0.00000       0.00000    
      6386 MEMB     36       POPE     O13      OD2C2B   0.798400       15.5994           0 -0.931000       1.08300    
      6387 MEMB     36       POPE     DO13     DRUD     -1.67440      0.400000           0   0.00000       0.00000    
      6388 MEMB     36       POPE     O14      OD2C2B   0.798400       15.5994           0 -0.931000       1.08300    
      6389 MEMB     36       POPE     DO14     DRUD     -1.67440      0.400000           0   0.00000       0.00000    
      6390 MEMB     36       POPE     O11      OD30B     1.17720       15.5994           0 -0.901000      0.181000    
      6391 MEMB     36       POPE     DO11     DRUD     -1.64720      0.400000           0   0.00000       0.00000    
      6392 MEMB     36       POPE     O12      OD30B     1.17720       15.5994           0 -0.901000      0.181000    
      6393 MEMB     36       POPE     DO12     DRUD     -1.64720      0.400000           0   0.00000       0.00000    
      6394 MEMB     36       POPE     C1       CD32A     2.42220       11.6110           0  -1.64200      0.862000    
      6395 MEMB     36       POPE     DC1      DRUD     -2.22370      0.400000           0   0.00000       0.00000    
      6396 MEMB     36       POPE     HA       HDA2A    0.260000E-01   1.00800           0   0.00000       0.00000    
      6397 MEMB     36       POPE     HB       HDA2A    0.260000E-01   1.00800           0   0.00000       0.00000    
      6398 MEMB     36       POPE     C2       CD31C     2.52830       11.6110           0  -1.79700      0.410000    
      6399 MEMB     36       POPE     DC2      DRUD     -2.32630      0.400000           0   0.00000       0.00000    
      6400 MEMB     36       POPE     HS       HDA1A    0.116000       1.00800           0   0.00000       0.00000    
      6401 MEMB     36       POPE     O21      OD30CL    1.48470       15.5994           0 -0.732000      0.601000    
      6402 MEMB     36       POPE     DO21     DRUD     -1.48470      0.400000           0   0.00000       0.00000    
      6403 MEMB     36       POPE     C21      CD2O3B    2.72820       11.6110           0  -1.37000       1.74700    
      6404 MEMB     36       POPE     DC21     DRUD     -2.03120      0.400000           0   0.00000       0.00000    
      6405 MEMB     36       POPE     O22      OD2C3B    1.64990       15.5994           0 -0.904000      0.565000    
      6406 MEMB     36       POPE     DO22     DRUD     -1.64990      0.400000           0   0.00000       0.00000    
      6407 MEMB     36       POPE     C22      CD32C     2.24380       11.6110           0  -1.99300      0.410000    
      6408 MEMB     36       POPE     DC22     DRUD     -2.44980      0.400000           0   0.00000       0.00000    
      6409 MEMB     36       POPE     H2R      HDA2A    0.690000E-01   1.00800           0   0.00000       0.00000    
      6410 MEMB     36       POPE     H2S      HDA2A    0.690000E-01   1.00800           0   0.00000       0.00000    
      6411 MEMB     36       POPE     LP1A     LPD     -0.349000       0.00000          -1   0.00000       0.00000    
      6412 MEMB     36       POPE     LP1B     LPD     -0.258000       0.00000          -1   0.00000       0.00000    
      6413 MEMB     36       POPE     LPMA     LPD     -0.170000       0.00000          -1   0.00000       0.00000    
      6414 MEMB     36       POPE     LPMB     LPD     -0.170000       0.00000          -1   0.00000       0.00000    
      6415 MEMB     36       POPE     C3       CD32C     2.41230       11.6110           0  -1.79700      0.410000    
      6416 MEMB     36       POPE     DC3      DRUD     -2.32630      0.400000           0   0.00000       0.00000    
      6417 MEMB     36       POPE     HX       HDA2A    0.116000       1.00800           0   0.00000       0.00000    
      6418 MEMB     36       POPE     HY       HDA2A    0.116000       1.00800           0   0.00000       0.00000    
      6419 MEMB     36       POPE     O31      OD30CL    1.48470       15.5994           0 -0.732000      0.601000    
      6420 MEMB     36       POPE     DO31     DRUD     -1.48470      0.400000           0   0.00000       0.00000    
      6421 MEMB     36       POPE     C31      CD2O3B    2.72820       11.6110           0  -1.37000       1.74700    
      6422 MEMB     36       POPE     DC31     DRUD     -2.03120      0.400000           0   0.00000       0.00000    
      6423 MEMB     36       POPE     O32      OD2C3B    1.64990       15.5994           0 -0.904000      0.565000    
      6424 MEMB     36       POPE     DO32     DRUD     -1.64990      0.400000           0   0.00000       0.00000    
      6425 MEMB     36       POPE     C32      CD32C     2.24380       11.6110           0  -1.99300      0.410000    
      6426 MEMB     36       POPE     DC32     DRUD     -2.44980      0.400000           0   0.00000       0.00000    
      6427 MEMB     36       POPE     H2X      HDA2A    0.690000E-01   1.00800           0   0.00000       0.00000    
      6428 MEMB     36       POPE     H2Y      HDA2A    0.690000E-01   1.00800           0   0.00000       0.00000    
      6429 MEMB     36       POPE     LP1C     LPD     -0.349000       0.00000          -1   0.00000       0.00000    
      6430 MEMB     36       POPE     LP1D     LPD     -0.258000       0.00000          -1   0.00000       0.00000    
      6431 MEMB     36       POPE     LPMC     LPD     -0.170000       0.00000          -1   0.00000       0.00000    
      6432 MEMB     36       POPE     LPMD     LPD     -0.170000       0.00000          -1   0.00000       0.00000    
      6433 MEMB     36       POPE     C23      CD32A     2.07980       11.6110           0  -1.66000       1.30000    
      6434 MEMB     36       POPE     DC23     DRUD     -2.23580      0.400000           0   0.00000       0.00000    
      6435 MEMB     36       POPE     H3R      HDA2A    0.780000E-01   1.00800           0   0.00000       0.00000    
      6436 MEMB     36       POPE     H3S      HDA2A    0.780000E-01   1.00800           0   0.00000       0.00000    
      6437 MEMB     36       POPE     C24      CD32A     2.07980       11.6110           0  -1.66000       1.30000    
      6438 MEMB     36       POPE     DC24     DRUD     -2.23580      0.400000           0   0.00000       0.00000    
      6439 MEMB     36       POPE     H4R      HDA2A    0.780000E-01   1.00800           0   0.00000       0.00000    
      6440 MEMB     36       POPE     H4S      HDA2A    0.780000E-01   1.00800           0   0.00000       0.00000    
      6441 MEMB     36       POPE     C25      CD32A     2.07980       11.6110           0  -1.66000       1.30000    
      6442 MEMB     36       POPE     DC25     DRUD     -2.23580      0.400000           0   0.00000       0.00000    
      6443 MEMB     36       POPE     H5R      HDA2A    0.780000E-01   1.00800           0   0.00000       0.00000    
      6444 MEMB     36       POPE     H5S      HDA2A    0.780000E-01   1.00800           0   0.00000       0.00000    
      6445 MEMB     36       POPE     C26      CD32A     2.07980       11.6110           0  -1.66000       1.30000    
      6446 MEMB     36       POPE     DC26     DRUD     -2.23580      0.400000           0   0.00000       0.00000    
      6447 MEMB     36       POPE     H6R      HDA2A    0.780000E-01   1.00800           0   0.00000       0.00000    
      6448 MEMB     36       POPE     H6S      HDA2A    0.780000E-01   1.00800           0   0.00000       0.00000    
      6449 MEMB     36       POPE     C27      CD32A     2.07980       11.6110           0  -1.66000       1.30000    
      6450 MEMB     36       POPE     DC27     DRUD     -2.23580      0.400000           0   0.00000       0.00000    
      6451 MEMB     36       POPE     H7R      HDA2A    0.780000E-01   1.00800           0   0.00000       0.00000    
      6452 MEMB     36       POPE     H7S      HDA2A    0.780000E-01   1.00800           0   0.00000       0.00000    
      6453 MEMB     36       POPE     C28      CD32A     2.07980       11.6110           0  -1.66000       1.30000    
      6454 MEMB     36       POPE     DC28     DRUD     -2.23580      0.400000           0   0.00000       0.00000    
      6455 MEMB     36       POPE     H8R      HDA2A    0.780000E-01   1.00800           0   0.00000       0.00000    
      6456 MEMB     36       POPE     H8S      HDA2A    0.780000E-01   1.00800           0   0.00000       0.00000    
      6457 MEMB     36       POPE     C29      CD2C1A    2.33700       11.6110           0  -1.99000      0.750000    
      6458 MEMB     36       POPE     DC29     DRUD     -2.44800      0.400000           0   0.00000       0.00000    
      6459 MEMB     36       POPE     H91      HD2C1A   0.111000       1.00800           0   0.00000       0.00000    
      6460 MEMB     36       POPE     C210     CD2C1A    2.33700       11.6110           0  -1.99000      0.750000    
      6461 MEMB     36       POPE     DC210    DRUD     -2.44800      0.400000           0   0.00000       0.00000    
      6462 MEMB     36       POPE     H101     HD2C1A   0.111000       1.00800           0   0.00000       0.00000    
      6463 MEMB     36       POPE     C211     CD32A     2.07980       11.6110           0  -1.66000       1.30000    
      6464 MEMB     36       POPE     DC211    DRUD     -2.23580      0.400000           0   0.00000       0.00000    
      6465 MEMB     36       POPE     H11R     HDA2A    0.780000E-01   1.00800           0   0.00000       0.00000    
      6466 MEMB     36       POPE     H11S     HDA2A    0.780000E-01   1.00800           0   0.00000       0.00000    
      6467 MEMB     36       POPE     C212     CD32A     2.07980       11.6110           0  -1.66000       1.30000    
      6468 MEMB     36       POPE     DC212    DRUD     -2.23580      0.400000           0   0.00000       0.00000    
      6469 MEMB     36       POPE     H12R     HDA2A    0.780000E-01   1.00800           0   0.00000       0.00000    
      6470 MEMB     36       POPE     H12S     HDA2A    0.780000E-01   1.00800           0   0.00000       0.00000    
      6471 MEMB     36       POPE     C213     CD32A     2.07980       11.6110           0  -1.66000       1.30000    
      6472 MEMB     36       POPE     DC213    DRUD     -2.23580      0.400000           0   0.00000       0.00000    
      6473 MEMB     36       POPE     H13R     HDA2A    0.780000E-01   1.00800           0   0.00000       0.00000    
      6474 MEMB     36       POPE     H13S     HDA2A    0.780000E-01   1.00800           0   0.00000       0.00000    
      6475 MEMB     36       POPE     C214     CD32A     2.07980       11.6110           0  -1.66000       1.30000    
      6476 MEMB     36       POPE     DC214    DRUD     -2.23580      0.400000           0   0.00000       0.00000    
      6477 MEMB     36       POPE     H14R     HDA2A    0.780000E-01   1.00800           0   0.00000       0.00000    
      6478 MEMB     36       POPE     H14S     HDA2A    0.780000E-01   1.00800           0   0.00000       0.00000    
      6479 MEMB     36       POPE     C215     CD32A     2.07980       11.6110           0  -1.66000       1.30000    
      6480 MEMB     36       POPE     DC215    DRUD     -2.23580      0.400000           0   0.00000       0.00000    
      6481 MEMB     36       POPE     H15R     HDA2A    0.780000E-01   1.00800           0   0.00000       0.00000    
      6482 MEMB     36       POPE     H15S     HDA2A    0.780000E-01   1.00800           0   0.00000       0.00000    
      6483 MEMB     36       POPE     C216     CD32A     2.07980       11.6110           0  -1.66000       1.30000    
      6484 MEMB     36       POPE     DC216    DRUD     -2.23580      0.400000           0   0.00000       0.00000    
      6485 MEMB     36       POPE     H16R     HDA2A    0.780000E-01   1.00800           0   0.00000       0.00000    
      6486 MEMB     36       POPE     H16S     HDA2A    0.780000E-01   1.00800           0   0.00000       0.00000    
      6487 MEMB     36       POPE     C217     CD32A     2.07980       11.6110           0  -1.66000       1.30000    
      6488 MEMB     36       POPE     DC217    DRUD     -2.23580      0.400000           0   0.00000       0.00000    
      6489 MEMB     36       POPE     H17R     HDA2A    0.780000E-01   1.00800           0   0.00000       0.00000    
      6490 MEMB     36       POPE     H17S     HDA2A    0.780000E-01   1.00800           0   0.00000       0.00000    
      6491 MEMB     36       POPE     C218     CD33A     2.30820       11.6110           0  -2.05100       1.30000    
      6492 MEMB     36       POPE     DC218    DRUD     -2.48520      0.400000           0   0.00000       0.00000    
      6493 MEMB     36       POPE     H18R     HDA3A    0.590000E-01   1.00800           0   0.00000       0.00000    
      6494 MEMB     36       POPE     H18S     HDA3A    0.590000E-01   1.00800           0   0.00000       0.00000    
      6495 MEMB     36       POPE     H18T     HDA3A    0.590000E-01   1.00800           0   0.00000       0.00000    
      6496 MEMB     36       POPE     C33      CD32A     2.07980       11.6110           0  -1.66000       1.30000    
      6497 MEMB     36       POPE     DC33     DRUD     -2.23580      0.400000           0   0.00000       0.00000    
      6498 MEMB     36       POPE     H3X      HDA2A    0.780000E-01   1.00800           0   0.00000       0.00000    
      6499 MEMB     36       POPE     H3Y      HDA2A    0.780000E-01   1.00800           0   0.00000       0.00000    
      6500 MEMB     36       POPE     C34      CD32A     2.07980       11.6110           0  -1.66000       1.30000    
      6501 MEMB     36       POPE     DC34     DRUD     -2.23580      0.400000           0   0.00000       0.00000    
      6502 MEMB     36       POPE     H4X      HDA2A    0.780000E-01   1.00800           0   0.00000       0.00000    
      6503 MEMB     36       POPE     H4Y      HDA2A    0.780000E-01   1.00800           0   0.00000       0.00000    
      6504 MEMB     36       POPE     C35      CD32A     2.07980       11.6110           0  -1.66000       1.30000    
      6505 MEMB     36       POPE     DC35     DRUD     -2.23580      0.400000           0   0.00000       0.00000    
      6506 MEMB     36       POPE     H5X      HDA2A    0.780000E-01   1.00800           0   0.00000       0.00000    
      6507 MEMB     36       POPE     H5Y      HDA2A    0.780000E-01   1.00800           0   0.00000       0.00000    
      6508 MEMB     36       POPE     C36      CD32A     2.07980       11.6110           0  -1.66000       1.30000    
      6509 MEMB     36       POPE     DC36     DRUD     -2.23580      0.400000           0   0.00000       0.00000    
      6510 MEMB     36       POPE     H6X      HDA2A    0.780000E-01   1.00800           0   0.00000       0.00000    
      6511 MEMB     36       POPE     H6Y      HDA2A    0.780000E-01   1.00800           0   0.00000       0.00000    
      6512 MEMB     36       POPE     C37      CD32A     2.07980       11.6110           0  -1.66000       1.30000    
      6513 MEMB     36       POPE     DC37     DRUD     -2.23580      0.400000           0   0.00000       0.00000    
      6514 MEMB     36       POPE     H7X      HDA2A    0.780000E-01   1.00800           0   0.00000       0.00000    
      6515 MEMB     36       POPE     H7Y      HDA2A    0.780000E-01   1.00800           0   0.00000       0.00000    
      6516 MEMB     36       POPE     C38      CD32A     2.07980       11.6110           0  -1.66000       1.30000    
      6517 MEMB     36       POPE     DC38     DRUD     -2.23580      0.400000           0   0.00000       0.00000    
      6518 MEMB     36       POPE     H8X      HDA2A    0.780000E-01   1.00800           0   0.00000       0.00000    
      6519 MEMB     36       POPE     H8Y      HDA2A    0.780000E-01   1.00800           0   0.00000       0.00000    
      6520 MEMB     36       POPE     C39      CD32A     2.07980       11.6110           0  -1.66000       1.30000    
      6521 MEMB     36       POPE     DC39     DRUD     -2.23580      0.400000           0   0.00000       0.00000    
      6522 MEMB     36       POPE     H9X      HDA2A    0.780000E-01   1.00800           0   0.00000       0.00000    
      6523 MEMB     36       POPE     H9Y      HDA2A    0.780000E-01   1.00800           0   0.00000       0.00000    
      6524 MEMB     36       POPE     C310     CD32A     2.07980       11.6110           0  -1.66000       1.30000    
      6525 MEMB     36       POPE     DC310    DRUD     -2.23580      0.400000           0   0.00000       0.00000    
      6526 MEMB     36       POPE     H10X     HDA2A    0.780000E-01   1.00800           0   0.00000       0.00000    
      6527 MEMB     36       POPE     H10Y     HDA2A    0.780000E-01   1.00800           0   0.00000       0.00000    
      6528 MEMB     36       POPE     C311     CD32A     2.07980       11.6110           0  -1.66000       1.30000    
      6529 MEMB     36       POPE     DC311    DRUD     -2.23580      0.400000           0   0.00000       0.00000    
      6530 MEMB     36       POPE     H11X     HDA2A    0.780000E-01   1.00800           0   0.00000       0.00000    
      6531 MEMB     36       POPE     H11Y     HDA2A    0.780000E-01   1.00800           0   0.00000       0.00000    
      6532 MEMB     36       POPE     C312     CD32A     2.07980       11.6110           0  -1.66000       1.30000    
      6533 MEMB     36       POPE     DC312    DRUD     -2.23580      0.400000           0   0.00000       0.00000    
      6534 MEMB     36       POPE     H12X     HDA2A    0.780000E-01   1.00800           0   0.00000       0.00000    
      6535 MEMB     36       POPE     H12Y     HDA2A    0.780000E-01   1.00800           0   0.00000       0.00000    
      6536 MEMB     36       POPE     C313     CD32A     2.07980       11.6110           0  -1.66000       1.30000    
      6537 MEMB     36       POPE     DC313    DRUD     -2.23580      0.400000           0   0.00000       0.00000    
      6538 MEMB     36       POPE     H13X     HDA2A    0.780000E-01   1.00800           0   0.00000       0.00000    
      6539 MEMB     36       POPE     H13Y     HDA2A    0.780000E-01   1.00800           0   0.00000       0.00000    
      6540 MEMB     36       POPE     C314     CD32A     2.07980       11.6110           0  -1.66000       1.30000    
      6541 MEMB     36       POPE     DC314    DRUD     -2.23580      0.400000           0   0.00000       0.00000    
      6542 MEMB     36       POPE     H14X     HDA2A    0.780000E-01   1.00800           0   0.00000       0.00000    
      6543 MEMB     36       POPE     H14Y     HDA2A    0.780000E-01   1.00800           0   0.00000       0.00000    
      6544 MEMB     36       POPE     C315     CD32A     2.07980       11.6110           0  -1.66000       1.30000    
      6545 MEMB     36       POPE     DC315    DRUD     -2.23580      0.400000           0   0.00000       0.00000    
      6546 MEMB     36       POPE     H15X     HDA2A    0.780000E-01   1.00800           0   0.00000       0.00000    
      6547 MEMB     36       POPE     H15Y     HDA2A    0.780000E-01   1.00800           0   0.00000       0.00000    
      6548 MEMB     36       POPE     C316     CD33A     2.30820       11.6110           0  -2.05100       1.30000    
      6549 MEMB     36       POPE     DC316    DRUD     -2.48520      0.400000           0   0.00000       0.00000    
      6550 MEMB     36       POPE     H16X     HDA3A    0.590000E-01   1.00800           0   0.00000       0.00000    
      6551 MEMB     36       POPE     H16Y     HDA3A    0.590000E-01   1.00800           0   0.00000       0.00000    
      6552 MEMB     36       POPE     H16Z     HDA3A    0.590000E-01   1.00800           0   0.00000       0.00000    
      6553 MEMB     37       POPE     N        ND3P3A    1.62810       13.6070           0  -1.29800      0.895000    
      6554 MEMB     37       POPE     DN       DRUD     -1.97710      0.400000           0   0.00000       0.00000    
      6555 MEMB     37       POPE     HN1      HDP1B    0.340000       1.00800           0   0.00000       0.00000    
      6556 MEMB     37       POPE     HN2      HDP1B    0.340000       1.00800           0   0.00000       0.00000    
      6557 MEMB     37       POPE     HN3      HDP1B    0.340000       1.00800           0   0.00000       0.00000    
      6558 MEMB     37       POPE     C12      CD32A     2.27610       11.6110           0  -1.65600      0.895000    
      6559 MEMB     37       POPE     DC12     DRUD     -2.23310      0.400000           0   0.00000       0.00000    
      6560 MEMB     37       POPE     H12A     HDA2A    0.143000       1.00800           0   0.00000       0.00000    
      6561 MEMB     37       POPE     H12B     HDA2A    0.143000       1.00800           0   0.00000       0.00000    
      6562 MEMB     37       POPE     C11      CD32A     2.42220       11.6110           0  -1.64200      0.862000    
      6563 MEMB     37       POPE     DC11     DRUD     -2.22370      0.400000           0   0.00000       0.00000    
      6564 MEMB     37       POPE     H11A     HDA2A    0.260000E-01   1.00800           0   0.00000       0.00000    
      6565 MEMB     37       POPE     H11B     HDA2A    0.260000E-01   1.00800           0   0.00000       0.00000    
      6566 MEMB     37       POPE     P        PD1A      2.90360       30.5740           0 -0.974000       2.09800    
      6567 MEMB     37       POPE     DP       DRUD     -1.71260      0.400000           0   0.00000       0.00000    
      6568 MEMB     37       POPE     O13      OD2C2B   0.798400       15.5994           0 -0.931000       1.08300    
      6569 MEMB     37       POPE     DO13     DRUD     -1.67440      0.400000           0   0.00000       0.00000    
      6570 MEMB     37       POPE     O14      OD2C2B   0.798400       15.5994           0 -0.931000       1.08300    
      6571 MEMB     37       POPE     DO14     DRUD     -1.67440      0.400000           0   0.00000       0.00000    
      6572 MEMB     37       POPE     O11      OD30B     1.17720       15.5994           0 -0.901000      0.181000    
      6573 MEMB     37       POPE     DO11     DRUD     -1.64720      0.400000           0   0.00000       0.00000    
      6574 MEMB     37       POPE     O12      OD30B     1.17720       15.5994           0 -0.901000      0.181000    
      6575 MEMB     37       POPE     DO12     DRUD     -1.64720      0.400000           0   0.00000       0.00000    
      6576 MEMB     37       POPE     C1       CD32A     2.42220       11.6110           0  -1.64200      0.862000    
      6577 MEMB     37       POPE     DC1      DRUD     -2.22370      0.400000           0   0.00000       0.00000    
      6578 MEMB     37       POPE     HA       HDA2A    0.260000E-01   1.00800           0   0.00000       0.00000    
      6579 MEMB     37       POPE     HB       HDA2A    0.260000E-01   1.00800           0   0.00000       0.00000    
      6580 MEMB     37       POPE     C2       CD31C     2.52830       11.6110           0  -1.79700      0.410000    
      6581 MEMB     37       POPE     DC2      DRUD     -2.32630      0.400000           0   0.00000       0.00000    
      6582 MEMB     37       POPE     HS       HDA1A    0.116000       1.00800           0   0.00000       0.00000    
      6583 MEMB     37       POPE     O21      OD30CL    1.48470       15.5994           0 -0.732000      0.601000    
      6584 MEMB     37       POPE     DO21     DRUD     -1.48470      0.400000           0   0.00000       0.00000    
      6585 MEMB     37       POPE     C21      CD2O3B    2.72820       11.6110           0  -1.37000       1.74700    
      6586 MEMB     37       POPE     DC21     DRUD     -2.03120      0.400000           0   0.00000       0.00000    
      6587 MEMB     37       POPE     O22      OD2C3B    1.64990       15.5994           0 -0.904000      0.565000    
      6588 MEMB     37       POPE     DO22     DRUD     -1.64990      0.400000           0   0.00000       0.00000    
      6589 MEMB     37       POPE     C22      CD32C     2.24380       11.6110           0  -1.99300      0.410000    
      6590 MEMB     37       POPE     DC22     DRUD     -2.44980      0.400000           0   0.00000       0.00000    
      6591 MEMB     37       POPE     H2R      HDA2A    0.690000E-01   1.00800           0   0.00000       0.00000    
      6592 MEMB     37       POPE     H2S      HDA2A    0.690000E-01   1.00800           0   0.00000       0.00000    
      6593 MEMB     37       POPE     LP1A     LPD     -0.349000       0.00000          -1   0.00000       0.00000    
      6594 MEMB     37       POPE     LP1B     LPD     -0.258000       0.00000          -1   0.00000       0.00000    
      6595 MEMB     37       POPE     LPMA     LPD     -0.170000       0.00000          -1   0.00000       0.00000    
      6596 MEMB     37       POPE     LPMB     LPD     -0.170000       0.00000          -1   0.00000       0.00000    
      6597 MEMB     37       POPE     C3       CD32C     2.41230       11.6110           0  -1.79700      0.410000    
      6598 MEMB     37       POPE     DC3      DRUD     -2.32630      0.400000           0   0.00000       0.00000    
      6599 MEMB     37       POPE     HX       HDA2A    0.116000       1.00800           0   0.00000       0.00000    
      6600 MEMB     37       POPE     HY       HDA2A    0.116000       1.00800           0   0.00000       0.00000    
      6601 MEMB     37       POPE     O31      OD30CL    1.48470       15.5994           0 -0.732000      0.601000    
      6602 MEMB     37       POPE     DO31     DRUD     -1.48470      0.400000           0   0.00000       0.00000    
      6603 MEMB     37       POPE     C31      CD2O3B    2.72820       11.6110           0  -1.37000       1.74700    
      6604 MEMB     37       POPE     DC31     DRUD     -2.03120      0.400000           0   0.00000       0.00000    
      6605 MEMB     37       POPE     O32      OD2C3B    1.64990       15.5994           0 -0.904000      0.565000    
      6606 MEMB     37       POPE     DO32     DRUD     -1.64990      0.400000           0   0.00000       0.00000    
      6607 MEMB     37       POPE     C32      CD32C     2.24380       11.6110           0  -1.99300      0.410000    
      6608 MEMB     37       POPE     DC32     DRUD     -2.44980      0.400000           0   0.00000       0.00000    
      6609 MEMB     37       POPE     H2X      HDA2A    0.690000E-01   1.00800           0   0.00000       0.00000    
      6610 MEMB     37       POPE     H2Y      HDA2A    0.690000E-01   1.00800           0   0.00000       0.00000    
      6611 MEMB     37       POPE     LP1C     LPD     -0.349000       0.00000          -1   0.00000       0.00000    
      6612 MEMB     37       POPE     LP1D     LPD     -0.258000       0.00000          -1   0.00000       0.00000    
      6613 MEMB     37       POPE     LPMC     LPD     -0.170000       0.00000          -1   0.00000       0.00000    
      6614 MEMB     37       POPE     LPMD     LPD     -0.170000       0.00000          -1   0.00000       0.00000    
      6615 MEMB     37       POPE     C23      CD32A     2.07980       11.6110           0  -1.66000       1.30000    
      6616 MEMB     37       POPE     DC23     DRUD     -2.23580      0.400000           0   0.00000       0.00000    
      6617 MEMB     37       POPE     H3R      HDA2A    0.780000E-01   1.00800           0   0.00000       0.00000    
      6618 MEMB     37       POPE     H3S      HDA2A    0.780000E-01   1.00800           0   0.00000       0.00000    
      6619 MEMB     37       POPE     C24      CD32A     2.07980       11.6110           0  -1.66000       1.30000    
      6620 MEMB     37       POPE     DC24     DRUD     -2.23580      0.400000           0   0.00000       0.00000    
      6621 MEMB     37       POPE     H4R      HDA2A    0.780000E-01   1.00800           0   0.00000       0.00000    
      6622 MEMB     37       POPE     H4S      HDA2A    0.780000E-01   1.00800           0   0.00000       0.00000    
      6623 MEMB     37       POPE     C25      CD32A     2.07980       11.6110           0  -1.66000       1.30000    
      6624 MEMB     37       POPE     DC25     DRUD     -2.23580      0.400000           0   0.00000       0.00000    
      6625 MEMB     37       POPE     H5R      HDA2A    0.780000E-01   1.00800           0   0.00000       0.00000    
      6626 MEMB     37       POPE     H5S      HDA2A    0.780000E-01   1.00800           0   0.00000       0.00000    
      6627 MEMB     37       POPE     C26      CD32A     2.07980       11.6110           0  -1.66000       1.30000    
      6628 MEMB     37       POPE     DC26     DRUD     -2.23580      0.400000           0   0.00000       0.00000    
      6629 MEMB     37       POPE     H6R      HDA2A    0.780000E-01   1.00800           0   0.00000       0.00000    
      6630 MEMB     37       POPE     H6S      HDA2A    0.780000E-01   1.00800           0   0.00000       0.00000    
      6631 MEMB     37       POPE     C27      CD32A     2.07980       11.6110           0  -1.66000       1.30000    
      6632 MEMB     37       POPE     DC27     DRUD     -2.23580      0.400000           0   0.00000       0.00000    
      6633 MEMB     37       POPE     H7R      HDA2A    0.780000E-01   1.00800           0   0.00000       0.00000    
      6634 MEMB     37       POPE     H7S      HDA2A    0.780000E-01   1.00800           0   0.00000       0.00000    
      6635 MEMB     37       POPE     C28      CD32A     2.07980       11.6110           0  -1.66000       1.30000    
      6636 MEMB     37       POPE     DC28     DRUD     -2.23580      0.400000           0   0.00000       0.00000    
      6637 MEMB     37       POPE     H8R      HDA2A    0.780000E-01   1.00800           0   0.00000       0.00000    
      6638 MEMB     37       POPE     H8S      HDA2A    0.780000E-01   1.00800           0   0.00000       0.00000    
      6639 MEMB     37       POPE     C29      CD2C1A    2.33700       11.6110           0  -1.99000      0.750000    
      6640 MEMB     37       POPE     DC29     DRUD     -2.44800      0.400000           0   0.00000       0.00000    
      6641 MEMB     37       POPE     H91      HD2C1A   0.111000       1.00800           0   0.00000       0.00000    
      6642 MEMB     37       POPE     C210     CD2C1A    2.33700       11.6110           0  -1.99000      0.750000    
      6643 MEMB     37       POPE     DC210    DRUD     -2.44800      0.400000           0   0.00000       0.00000    
      6644 MEMB     37       POPE     H101     HD2C1A   0.111000       1.00800           0   0.00000       0.00000    
      6645 MEMB     37       POPE     C211     CD32A     2.07980       11.6110           0  -1.66000       1.30000    
      6646 MEMB     37       POPE     DC211    DRUD     -2.23580      0.400000           0   0.00000       0.00000    
      6647 MEMB     37       POPE     H11R     HDA2A    0.780000E-01   1.00800           0   0.00000       0.00000    
      6648 MEMB     37       POPE     H11S     HDA2A    0.780000E-01   1.00800           0   0.00000       0.00000    
      6649 MEMB     37       POPE     C212     CD32A     2.07980       11.6110           0  -1.66000       1.30000    
      6650 MEMB     37       POPE     DC212    DRUD     -2.23580      0.400000           0   0.00000       0.00000    
      6651 MEMB     37       POPE     H12R     HDA2A    0.780000E-01   1.00800           0   0.00000       0.00000    
      6652 MEMB     37       POPE     H12S     HDA2A    0.780000E-01   1.00800           0   0.00000       0.00000    
      6653 MEMB     37       POPE     C213     CD32A     2.07980       11.6110           0  -1.66000       1.30000    
      6654 MEMB     37       POPE     DC213    DRUD     -2.23580      0.400000           0   0.00000       0.00000    
      6655 MEMB     37       POPE     H13R     HDA2A    0.780000E-01   1.00800           0   0.00000       0.00000    
      6656 MEMB     37       POPE     H13S     HDA2A    0.780000E-01   1.00800           0   0.00000       0.00000    
      6657 MEMB     37       POPE     C214     CD32A     2.07980       11.6110           0  -1.66000       1.30000    
      6658 MEMB     37       POPE     DC214    DRUD     -2.23580      0.400000           0   0.00000       0.00000    
      6659 MEMB     37       POPE     H14R     HDA2A    0.780000E-01   1.00800           0   0.00000       0.00000    
      6660 MEMB     37       POPE     H14S     HDA2A    0.780000E-01   1.00800           0   0.00000       0.00000    
      6661 MEMB     37       POPE     C215     CD32A     2.07980       11.6110           0  -1.66000       1.30000    
      6662 MEMB     37       POPE     DC215    DRUD     -2.23580      0.400000           0   0.00000       0.00000    
      6663 MEMB     37       POPE     H15R     HDA2A    0.780000E-01   1.00800           0   0.00000       0.00000    
      6664 MEMB     37       POPE     H15S     HDA2A    0.780000E-01   1.00800           0   0.00000       0.00000    
      6665 MEMB     37       POPE     C216     CD32A     2.07980       11.6110           0  -1.66000       1.30000    
      6666 MEMB     37       POPE     DC216    DRUD     -2.23580      0.400000           0   0.00000       0.00000    
      6667 MEMB     37       POPE     H16R     HDA2A    0.780000E-01   1.00800           0   0.00000       0.00000    
      6668 MEMB     37       POPE     H16S     HDA2A    0.780000E-01   1.00800           0   0.00000       0.00000    
      6669 MEMB     37       POPE     C217     CD32A     2.07980       11.6110           0  -1.66000       1.30000    
      6670 MEMB     37       POPE     DC217    DRUD     -2.23580      0.400000           0   0.00000       0.00000    
      6671 MEMB     37       POPE     H17R     HDA2A    0.780000E-01   1.00800           0   0.00000       0.00000    
      6672 MEMB     37       POPE     H17S     HDA2A    0.780000E-01   1.00800           0   0.00000       0.00000    
      6673 MEMB     37       POPE     C218     CD33A     2.30820       11.6110           0  -2.05100       1.30000    
      6674 MEMB     37       POPE     DC218    DRUD     -2.48520      0.400000           0   0.00000       0.00000    
      6675 MEMB     37       POPE     H18R     HDA3A    0.590000E-01   1.00800           0   0.00000       0.00000    
      6676 MEMB     37       POPE     H18S     HDA3A    0.590000E-01   1.00800           0   0.00000       0.00000    
      6677 MEMB     37       POPE     H18T     HDA3A    0.590000E-01   1.00800           0   0.00000       0.00000    
      6678 MEMB     37       POPE     C33      CD32A     2.07980       11.6110           0  -1.66000       1.30000    
      6679 MEMB     37       POPE     DC33     DRUD     -2.23580      0.400000           0   0.00000       0.00000    
      6680 MEMB     37       POPE     H3X      HDA2A    0.780000E-01   1.00800           0   0.00000       0.00000    
      6681 MEMB     37       POPE     H3Y      HDA2A    0.780000E-01   1.00800           0   0.00000       0.00000    
      6682 MEMB     37       POPE     C34      CD32A     2.07980       11.6110           0  -1.66000       1.30000    
      6683 MEMB     37       POPE     DC34     DRUD     -2.23580      0.400000           0   0.00000       0.00000    
      6684 MEMB     37       POPE     H4X      HDA2A    0.780000E-01   1.00800           0   0.00000       0.00000    
      6685 MEMB     37       POPE     H4Y      HDA2A    0.780000E-01   1.00800           0   0.00000       0.00000    
      6686 MEMB     37       POPE     C35      CD32A     2.07980       11.6110           0  -1.66000       1.30000    
      6687 MEMB     37       POPE     DC35     DRUD     -2.23580      0.400000           0   0.00000       0.00000    
      6688 MEMB     37       POPE     H5X      HDA2A    0.780000E-01   1.00800           0   0.00000       0.00000    
      6689 MEMB     37       POPE     H5Y      HDA2A    0.780000E-01   1.00800           0   0.00000       0.00000    
      6690 MEMB     37       POPE     C36      CD32A     2.07980       11.6110           0  -1.66000       1.30000    
      6691 MEMB     37       POPE     DC36     DRUD     -2.23580      0.400000           0   0.00000       0.00000    
      6692 MEMB     37       POPE     H6X      HDA2A    0.780000E-01   1.00800           0   0.00000       0.00000    
      6693 MEMB     37       POPE     H6Y      HDA2A    0.780000E-01   1.00800           0   0.00000       0.00000    
      6694 MEMB     37       POPE     C37      CD32A     2.07980       11.6110           0  -1.66000       1.30000    
      6695 MEMB     37       POPE     DC37     DRUD     -2.23580      0.400000           0   0.00000       0.00000    
      6696 MEMB     37       POPE     H7X      HDA2A    0.780000E-01   1.00800           0   0.00000       0.00000    
      6697 MEMB     37       POPE     H7Y      HDA2A    0.780000E-01   1.00800           0   0.00000       0.00000    
      6698 MEMB     37       POPE     C38      CD32A     2.07980       11.6110           0  -1.66000       1.30000    
      6699 MEMB     37       POPE     DC38     DRUD     -2.23580      0.400000           0   0.00000       0.00000    
      6700 MEMB     37       POPE     H8X      HDA2A    0.780000E-01   1.00800           0   0.00000       0.00000    
      6701 MEMB     37       POPE     H8Y      HDA2A    0.780000E-01   1.00800           0   0.00000       0.00000    
      6702 MEMB     37       POPE     C39      CD32A     2.07980       11.6110           0  -1.66000       1.30000    
      6703 MEMB     37       POPE     DC39     DRUD     -2.23580      0.400000           0   0.00000       0.00000    
      6704 MEMB     37       POPE     H9X      HDA2A    0.780000E-01   1.00800           0   0.00000       0.00000    
      6705 MEMB     37       POPE     H9Y      HDA2A    0.780000E-01   1.00800           0   0.00000       0.00000    
      6706 MEMB     37       POPE     C310     CD32A     2.07980       11.6110           0  -1.66000       1.30000    
      6707 MEMB     37       POPE     DC310    DRUD     -2.23580      0.400000           0   0.00000       0.00000    
      6708 MEMB     37       POPE     H10X     HDA2A    0.780000E-01   1.00800           0   0.00000       0.00000    
      6709 MEMB     37       POPE     H10Y     HDA2A    0.780000E-01   1.00800           0   0.00000       0.00000    
      6710 MEMB     37       POPE     C311     CD32A     2.07980       11.6110           0  -1.66000       1.30000    
      6711 MEMB     37       POPE     DC311    DRUD     -2.23580      0.400000           0   0.00000       0.00000    
      6712 MEMB     37       POPE     H11X     HDA2A    0.780000E-01   1.00800           0   0.00000       0.00000    
      6713 MEMB     37       POPE     H11Y     HDA2A    0.780000E-01   1.00800           0   0.00000       0.00000    
      6714 MEMB     37       POPE     C312     CD32A     2.07980       11.6110           0  -1.66000       1.30000    
      6715 MEMB     37       POPE     DC312    DRUD     -2.23580      0.400000           0   0.00000       0.00000    
      6716 MEMB     37       POPE     H12X     HDA2A    0.780000E-01   1.00800           0   0.00000       0.00000    
      6717 MEMB     37       POPE     H12Y     HDA2A    0.780000E-01   1.00800           0   0.00000       0.00000    
      6718 MEMB     37       POPE     C313     CD32A     2.07980       11.6110           0  -1.66000       1.30000    
      6719 MEMB     37       POPE     DC313    DRUD     -2.23580      0.400000           0   0.00000       0.00000    
      6720 MEMB     37       POPE     H13X     HDA2A    0.780000E-01   1.00800           0   0.00000       0.00000    
      6721 MEMB     37       POPE     H13Y     HDA2A    0.780000E-01   1.00800           0   0.00000       0.00000    
      6722 MEMB     37       POPE     C314     CD32A     2.07980       11.6110           0  -1.66000       1.30000    
      6723 MEMB     37       POPE     DC314    DRUD     -2.23580      0.400000           0   0.00000       0.00000    
      6724 MEMB     37       POPE     H14X     HDA2A    0.780000E-01   1.00800           0   0.00000       0.00000    
      6725 MEMB     37       POPE     H14Y     HDA2A    0.780000E-01   1.00800           0   0.00000       0.00000    
      6726 MEMB     37       POPE     C315     CD32A     2.07980       11.6110           0  -1.66000       1.30000    
      6727 MEMB     37       POPE     DC315    DRUD     -2.23580      0.400000           0   0.00000       0.00000    
      6728 MEMB     37       POPE     H15X     HDA2A    0.780000E-01   1.00800           0   0.00000       0.00000    
      6729 MEMB     37       POPE     H15Y     HDA2A    0.780000E-01   1.00800           0   0.00000       0.00000    
      6730 MEMB     37       POPE     C316     CD33A     2.30820       11.6110           0  -2.05100       1.30000    
      6731 MEMB     37       POPE     DC316    DRUD     -2.48520      0.400000           0   0.00000       0.00000    
      6732 MEMB     37       POPE     H16X     HDA3A    0.590000E-01   1.00800           0   0.00000       0.00000    
      6733 MEMB     37       POPE     H16Y     HDA3A    0.590000E-01   1.00800           0   0.00000       0.00000    
      6734 MEMB     37       POPE     H16Z     HDA3A    0.590000E-01   1.00800           0   0.00000       0.00000    
      6735 MEMB     38       POPE     N        ND3P3A    1.62810       13.6070           0  -1.29800      0.895000    
      6736 MEMB     38       POPE     DN       DRUD     -1.97710      0.400000           0   0.00000       0.00000    
      6737 MEMB     38       POPE     HN1      HDP1B    0.340000       1.00800           0   0.00000       0.00000    
      6738 MEMB     38       POPE     HN2      HDP1B    0.340000       1.00800           0   0.00000       0.00000    
      6739 MEMB     38       POPE     HN3      HDP1B    0.340000       1.00800           0   0.00000       0.00000    
      6740 MEMB     38       POPE     C12      CD32A     2.27610       11.6110           0  -1.65600      0.895000    
      6741 MEMB     38       POPE     DC12     DRUD     -2.23310      0.400000           0   0.00000       0.00000    
      6742 MEMB     38       POPE     H12A     HDA2A    0.143000       1.00800           0   0.00000       0.00000    
      6743 MEMB     38       POPE     H12B     HDA2A    0.143000       1.00800           0   0.00000       0.00000    
      6744 MEMB     38       POPE     C11      CD32A     2.42220       11.6110           0  -1.64200      0.862000    
      6745 MEMB     38       POPE     DC11     DRUD     -2.22370      0.400000           0   0.00000       0.00000    
      6746 MEMB     38       POPE     H11A     HDA2A    0.260000E-01   1.00800           0   0.00000       0.00000    
      6747 MEMB     38       POPE     H11B     HDA2A    0.260000E-01   1.00800           0   0.00000       0.00000    
      6748 MEMB     38       POPE     P        PD1A      2.90360       30.5740           0 -0.974000       2.09800    
      6749 MEMB     38       POPE     DP       DRUD     -1.71260      0.400000           0   0.00000       0.00000    
      6750 MEMB     38       POPE     O13      OD2C2B   0.798400       15.5994           0 -0.931000       1.08300    
      6751 MEMB     38       POPE     DO13     DRUD     -1.67440      0.400000           0   0.00000       0.00000    
      6752 MEMB     38       POPE     O14      OD2C2B   0.798400       15.5994           0 -0.931000       1.08300    
      6753 MEMB     38       POPE     DO14     DRUD     -1.67440      0.400000           0   0.00000       0.00000    
      6754 MEMB     38       POPE     O11      OD30B     1.17720       15.5994           0 -0.901000      0.181000    
      6755 MEMB     38       POPE     DO11     DRUD     -1.64720      0.400000           0   0.00000       0.00000    
      6756 MEMB     38       POPE     O12      OD30B     1.17720       15.5994           0 -0.901000      0.181000    
      6757 MEMB     38       POPE     DO12     DRUD     -1.64720      0.400000           0   0.00000       0.00000    
      6758 MEMB     38       POPE     C1       CD32A     2.42220       11.6110           0  -1.64200      0.862000    
      6759 MEMB     38       POPE     DC1      DRUD     -2.22370      0.400000           0   0.00000       0.00000    
      6760 MEMB     38       POPE     HA       HDA2A    0.260000E-01   1.00800           0   0.00000       0.00000    
      6761 MEMB     38       POPE     HB       HDA2A    0.260000E-01   1.00800           0   0.00000       0.00000    
      6762 MEMB     38       POPE     C2       CD31C     2.52830       11.6110           0  -1.79700      0.410000    
      6763 MEMB     38       POPE     DC2      DRUD     -2.32630      0.400000           0   0.00000       0.00000    
      6764 MEMB     38       POPE     HS       HDA1A    0.116000       1.00800           0   0.00000       0.00000    
      6765 MEMB     38       POPE     O21      OD30CL    1.48470       15.5994           0 -0.732000      0.601000    
      6766 MEMB     38       POPE     DO21     DRUD     -1.48470      0.400000           0   0.00000       0.00000    
      6767 MEMB     38       POPE     C21      CD2O3B    2.72820       11.6110           0  -1.37000       1.74700    
      6768 MEMB     38       POPE     DC21     DRUD     -2.03120      0.400000           0   0.00000       0.00000    
      6769 MEMB     38       POPE     O22      OD2C3B    1.64990       15.5994           0 -0.904000      0.565000    
      6770 MEMB     38       POPE     DO22     DRUD     -1.64990      0.400000           0   0.00000       0.00000    
      6771 MEMB     38       POPE     C22      CD32C     2.24380       11.6110           0  -1.99300      0.410000    
      6772 MEMB     38       POPE     DC22     DRUD     -2.44980      0.400000           0   0.00000       0.00000    
      6773 MEMB     38       POPE     H2R      HDA2A    0.690000E-01   1.00800           0   0.00000       0.00000    
      6774 MEMB     38       POPE     H2S      HDA2A    0.690000E-01   1.00800           0   0.00000       0.00000    
      6775 MEMB     38       POPE     LP1A     LPD     -0.349000       0.00000          -1   0.00000       0.00000    
      6776 MEMB     38       POPE     LP1B     LPD     -0.258000       0.00000          -1   0.00000       0.00000    
      6777 MEMB     38       POPE     LPMA     LPD     -0.170000       0.00000          -1   0.00000       0.00000    
      6778 MEMB     38       POPE     LPMB     LPD     -0.170000       0.00000          -1   0.00000       0.00000    
      6779 MEMB     38       POPE     C3       CD32C     2.41230       11.6110           0  -1.79700      0.410000    
      6780 MEMB     38       POPE     DC3      DRUD     -2.32630      0.400000           0   0.00000       0.00000    
      6781 MEMB     38       POPE     HX       HDA2A    0.116000       1.00800           0   0.00000       0.00000    
      6782 MEMB     38       POPE     HY       HDA2A    0.116000       1.00800           0   0.00000       0.00000    
      6783 MEMB     38       POPE     O31      OD30CL    1.48470       15.5994           0 -0.732000      0.601000    
      6784 MEMB     38       POPE     DO31     DRUD     -1.48470      0.400000           0   0.00000       0.00000    
      6785 MEMB     38       POPE     C31      CD2O3B    2.72820       11.6110           0  -1.37000       1.74700    
      6786 MEMB     38       POPE     DC31     DRUD     -2.03120      0.400000           0   0.00000       0.00000    
      6787 MEMB     38       POPE     O32      OD2C3B    1.64990       15.5994           0 -0.904000      0.565000    
      6788 MEMB     38       POPE     DO32     DRUD     -1.64990      0.400000           0   0.00000       0.00000    
      6789 MEMB     38       POPE     C32      CD32C     2.24380       11.6110           0  -1.99300      0.410000    
      6790 MEMB     38       POPE     DC32     DRUD     -2.44980      0.400000           0   0.00000       0.00000    
      6791 MEMB     38       POPE     H2X      HDA2A    0.690000E-01   1.00800           0   0.00000       0.00000    
      6792 MEMB     38       POPE     H2Y      HDA2A    0.690000E-01   1.00800           0   0.00000       0.00000    
      6793 MEMB     38       POPE     LP1C     LPD     -0.349000       0.00000          -1   0.00000       0.00000    
      6794 MEMB     38       POPE     LP1D     LPD     -0.258000       0.00000          -1   0.00000       0.00000    
      6795 MEMB     38       POPE     LPMC     LPD     -0.170000       0.00000          -1   0.00000       0.00000    
      6796 MEMB     38       POPE     LPMD     LPD     -0.170000       0.00000          -1   0.00000       0.00000    
      6797 MEMB     38       POPE     C23      CD32A     2.07980       11.6110           0  -1.66000       1.30000    
      6798 MEMB     38       POPE     DC23     DRUD     -2.23580      0.400000           0   0.00000       0.00000    
      6799 MEMB     38       POPE     H3R      HDA2A    0.780000E-01   1.00800           0   0.00000       0.00000    
      6800 MEMB     38       POPE     H3S      HDA2A    0.780000E-01   1.00800           0   0.00000       0.00000    
      6801 MEMB     38       POPE     C24      CD32A     2.07980       11.6110           0  -1.66000       1.30000    
      6802 MEMB     38       POPE     DC24     DRUD     -2.23580      0.400000           0   0.00000       0.00000    
      6803 MEMB     38       POPE     H4R      HDA2A    0.780000E-01   1.00800           0   0.00000       0.00000    
      6804 MEMB     38       POPE     H4S      HDA2A    0.780000E-01   1.00800           0   0.00000       0.00000    
      6805 MEMB     38       POPE     C25      CD32A     2.07980       11.6110           0  -1.66000       1.30000    
      6806 MEMB     38       POPE     DC25     DRUD     -2.23580      0.400000           0   0.00000       0.00000    
      6807 MEMB     38       POPE     H5R      HDA2A    0.780000E-01   1.00800           0   0.00000       0.00000    
      6808 MEMB     38       POPE     H5S      HDA2A    0.780000E-01   1.00800           0   0.00000       0.00000    
      6809 MEMB     38       POPE     C26      CD32A     2.07980       11.6110           0  -1.66000       1.30000    
      6810 MEMB     38       POPE     DC26     DRUD     -2.23580      0.400000           0   0.00000       0.00000    
      6811 MEMB     38       POPE     H6R      HDA2A    0.780000E-01   1.00800           0   0.00000       0.00000    
      6812 MEMB     38       POPE     H6S      HDA2A    0.780000E-01   1.00800           0   0.00000       0.00000    
      6813 MEMB     38       POPE     C27      CD32A     2.07980       11.6110           0  -1.66000       1.30000    
      6814 MEMB     38       POPE     DC27     DRUD     -2.23580      0.400000           0   0.00000       0.00000    
      6815 MEMB     38       POPE     H7R      HDA2A    0.780000E-01   1.00800           0   0.00000       0.00000    
      6816 MEMB     38       POPE     H7S      HDA2A    0.780000E-01   1.00800           0   0.00000       0.00000    
      6817 MEMB     38       POPE     C28      CD32A     2.07980       11.6110           0  -1.66000       1.30000    
      6818 MEMB     38       POPE     DC28     DRUD     -2.23580      0.400000           0   0.00000       0.00000    
      6819 MEMB     38       POPE     H8R      HDA2A    0.780000E-01   1.00800           0   0.00000       0.00000    
      6820 MEMB     38       POPE     H8S      HDA2A    0.780000E-01   1.00800           0   0.00000       0.00000    
      6821 MEMB     38       POPE     C29      CD2C1A    2.33700       11.6110           0  -1.99000      0.750000    
      6822 MEMB     38       POPE     DC29     DRUD     -2.44800      0.400000           0   0.00000       0.00000    
      6823 MEMB     38       POPE     H91      HD2C1A   0.111000       1.00800           0   0.00000       0.00000    
      6824 MEMB     38       POPE     C210     CD2C1A    2.33700       11.6110           0  -1.99000      0.750000    
      6825 MEMB     38       POPE     DC210    DRUD     -2.44800      0.400000           0   0.00000       0.00000    
      6826 MEMB     38       POPE     H101     HD2C1A   0.111000       1.00800           0   0.00000       0.00000    
      6827 MEMB     38       POPE     C211     CD32A     2.07980       11.6110           0  -1.66000       1.30000    
      6828 MEMB     38       POPE     DC211    DRUD     -2.23580      0.400000           0   0.00000       0.00000    
      6829 MEMB     38       POPE     H11R     HDA2A    0.780000E-01   1.00800           0   0.00000       0.00000    
      6830 MEMB     38       POPE     H11S     HDA2A    0.780000E-01   1.00800           0   0.00000       0.00000    
      6831 MEMB     38       POPE     C212     CD32A     2.07980       11.6110           0  -1.66000       1.30000    
      6832 MEMB     38       POPE     DC212    DRUD     -2.23580      0.400000           0   0.00000       0.00000    
      6833 MEMB     38       POPE     H12R     HDA2A    0.780000E-01   1.00800           0   0.00000       0.00000    
      6834 MEMB     38       POPE     H12S     HDA2A    0.780000E-01   1.00800           0   0.00000       0.00000    
      6835 MEMB     38       POPE     C213     CD32A     2.07980       11.6110           0  -1.66000       1.30000    
      6836 MEMB     38       POPE     DC213    DRUD     -2.23580      0.400000           0   0.00000       0.00000    
      6837 MEMB     38       POPE     H13R     HDA2A    0.780000E-01   1.00800           0   0.00000       0.00000    
      6838 MEMB     38       POPE     H13S     HDA2A    0.780000E-01   1.00800           0   0.00000       0.00000    
      6839 MEMB     38       POPE     C214     CD32A     2.07980       11.6110           0  -1.66000       1.30000    
      6840 MEMB     38       POPE     DC214    DRUD     -2.23580      0.400000           0   0.00000       0.00000    
      6841 MEMB     38       POPE     H14R     HDA2A    0.780000E-01   1.00800           0   0.00000       0.00000    
      6842 MEMB     38       POPE     H14S     HDA2A    0.780000E-01   1.00800           0   0.00000       0.00000    
      6843 MEMB     38       POPE     C215     CD32A     2.07980       11.6110           0  -1.66000       1.30000    
      6844 MEMB     38       POPE     DC215    DRUD     -2.23580      0.400000           0   0.00000       0.00000    
      6845 MEMB     38       POPE     H15R     HDA2A    0.780000E-01   1.00800           0   0.00000       0.00000    
      6846 MEMB     38       POPE     H15S     HDA2A    0.780000E-01   1.00800           0   0.00000       0.00000    
      6847 MEMB     38       POPE     C216     CD32A     2.07980       11.6110           0  -1.66000       1.30000    
      6848 MEMB     38       POPE     DC216    DRUD     -2.23580      0.400000           0   0.00000       0.00000    
      6849 MEMB     38       POPE     H16R     HDA2A    0.780000E-01   1.00800           0   0.00000       0.00000    
      6850 MEMB     38       POPE     H16S     HDA2A    0.780000E-01   1.00800           0   0.00000       0.00000    
      6851 MEMB     38       POPE     C217     CD32A     2.07980       11.6110           0  -1.66000       1.30000    
      6852 MEMB     38       POPE     DC217    DRUD     -2.23580      0.400000           0   0.00000       0.00000    
      6853 MEMB     38       POPE     H17R     HDA2A    0.780000E-01   1.00800           0   0.00000       0.00000    
      6854 MEMB     38       POPE     H17S     HDA2A    0.780000E-01   1.00800           0   0.00000       0.00000    
      6855 MEMB     38       POPE     C218     CD33A     2.30820       11.6110           0  -2.05100       1.30000    
      6856 MEMB     38       POPE     DC218    DRUD     -2.48520      0.400000           0   0.00000       0.00000    
      6857 MEMB     38       POPE     H18R     HDA3A    0.590000E-01   1.00800           0   0.00000       0.00000    
      6858 MEMB     38       POPE     H18S     HDA3A    0.590000E-01   1.00800           0   0.00000       0.00000    
      6859 MEMB     38       POPE     H18T     HDA3A    0.590000E-01   1.00800           0   0.00000       0.00000    
      6860 MEMB     38       POPE     C33      CD32A     2.07980       11.6110           0  -1.66000       1.30000    
      6861 MEMB     38       POPE     DC33     DRUD     -2.23580      0.400000           0   0.00000       0.00000    
      6862 MEMB     38       POPE     H3X      HDA2A    0.780000E-01   1.00800           0   0.00000       0.00000    
      6863 MEMB     38       POPE     H3Y      HDA2A    0.780000E-01   1.00800           0   0.00000       0.00000    
      6864 MEMB     38       POPE     C34      CD32A     2.07980       11.6110           0  -1.66000       1.30000    
      6865 MEMB     38       POPE     DC34     DRUD     -2.23580      0.400000           0   0.00000       0.00000    
      6866 MEMB     38       POPE     H4X      HDA2A    0.780000E-01   1.00800           0   0.00000       0.00000    
      6867 MEMB     38       POPE     H4Y      HDA2A    0.780000E-01   1.00800           0   0.00000       0.00000    
      6868 MEMB     38       POPE     C35      CD32A     2.07980       11.6110           0  -1.66000       1.30000    
      6869 MEMB     38       POPE     DC35     DRUD     -2.23580      0.400000           0   0.00000       0.00000    
      6870 MEMB     38       POPE     H5X      HDA2A    0.780000E-01   1.00800           0   0.00000       0.00000    
      6871 MEMB     38       POPE     H5Y      HDA2A    0.780000E-01   1.00800           0   0.00000       0.00000    
      6872 MEMB     38       POPE     C36      CD32A     2.07980       11.6110           0  -1.66000       1.30000    
      6873 MEMB     38       POPE     DC36     DRUD     -2.23580      0.400000           0   0.00000       0.00000    
      6874 MEMB     38       POPE     H6X      HDA2A    0.780000E-01   1.00800           0   0.00000       0.00000    
      6875 MEMB     38       POPE     H6Y      HDA2A    0.780000E-01   1.00800           0   0.00000       0.00000    
      6876 MEMB     38       POPE     C37      CD32A     2.07980       11.6110           0  -1.66000       1.30000    
      6877 MEMB     38       POPE     DC37     DRUD     -2.23580      0.400000           0   0.00000       0.00000    
      6878 MEMB     38       POPE     H7X      HDA2A    0.780000E-01   1.00800           0   0.00000       0.00000    
      6879 MEMB     38       POPE     H7Y      HDA2A    0.780000E-01   1.00800           0   0.00000       0.00000    
      6880 MEMB     38       POPE     C38      CD32A     2.07980       11.6110           0  -1.66000       1.30000    
      6881 MEMB     38       POPE     DC38     DRUD     -2.23580      0.400000           0   0.00000       0.00000    
      6882 MEMB     38       POPE     H8X      HDA2A    0.780000E-01   1.00800           0   0.00000       0.00000    
      6883 MEMB     38       POPE     H8Y      HDA2A    0.780000E-01   1.00800           0   0.00000       0.00000    
      6884 MEMB     38       POPE     C39      CD32A     2.07980       11.6110           0  -1.66000       1.30000    
      6885 MEMB     38       POPE     DC39     DRUD     -2.23580      0.400000           0   0.00000       0.00000    
      6886 MEMB     38       POPE     H9X      HDA2A    0.780000E-01   1.00800           0   0.00000       0.00000    
      6887 MEMB     38       POPE     H9Y      HDA2A    0.780000E-01   1.00800           0   0.00000       0.00000    
      6888 MEMB     38       POPE     C310     CD32A     2.07980       11.6110           0  -1.66000       1.30000    
      6889 MEMB     38       POPE     DC310    DRUD     -2.23580      0.400000           0   0.00000       0.00000    
      6890 MEMB     38       POPE     H10X     HDA2A    0.780000E-01   1.00800           0   0.00000       0.00000    
      6891 MEMB     38       POPE     H10Y     HDA2A    0.780000E-01   1.00800           0   0.00000       0.00000    
      6892 MEMB     38       POPE     C311     CD32A     2.07980       11.6110           0  -1.66000       1.30000    
      6893 MEMB     38       POPE     DC311    DRUD     -2.23580      0.400000           0   0.00000       0.00000    
      6894 MEMB     38       POPE     H11X     HDA2A    0.780000E-01   1.00800           0   0.00000       0.00000    
      6895 MEMB     38       POPE     H11Y     HDA2A    0.780000E-01   1.00800           0   0.00000       0.00000    
      6896 MEMB     38       POPE     C312     CD32A     2.07980       11.6110           0  -1.66000       1.30000    
      6897 MEMB     38       POPE     DC312    DRUD     -2.23580      0.400000           0   0.00000       0.00000    
      6898 MEMB     38       POPE     H12X     HDA2A    0.780000E-01   1.00800           0   0.00000       0.00000    
      6899 MEMB     38       POPE     H12Y     HDA2A    0.780000E-01   1.00800           0   0.00000       0.00000    
      6900 MEMB     38       POPE     C313     CD32A     2.07980       11.6110           0  -1.66000       1.30000    
      6901 MEMB     38       POPE     DC313    DRUD     -2.23580      0.400000           0   0.00000       0.00000    
      6902 MEMB     38       POPE     H13X     HDA2A    0.780000E-01   1.00800           0   0.00000       0.00000    
      6903 MEMB     38       POPE     H13Y     HDA2A    0.780000E-01   1.00800           0   0.00000       0.00000    
      6904 MEMB     38       POPE     C314     CD32A     2.07980       11.6110           0  -1.66000       1.30000    
      6905 MEMB     38       POPE     DC314    DRUD     -2.23580      0.400000           0   0.00000       0.00000    
      6906 MEMB     38       POPE     H14X     HDA2A    0.780000E-01   1.00800           0   0.00000       0.00000    
      6907 MEMB     38       POPE     H14Y     HDA2A    0.780000E-01   1.00800           0   0.00000       0.00000    
      6908 MEMB     38       POPE     C315     CD32A     2.07980       11.6110           0  -1.66000       1.30000    
      6909 MEMB     38       POPE     DC315    DRUD     -2.23580      0.400000           0   0.00000       0.00000    
      6910 MEMB     38       POPE     H15X     HDA2A    0.780000E-01   1.00800           0   0.00000       0.00000    
      6911 MEMB     38       POPE     H15Y     HDA2A    0.780000E-01   1.00800           0   0.00000       0.00000    
      6912 MEMB     38       POPE     C316     CD33A     2.30820       11.6110           0  -2.05100       1.30000    
      6913 MEMB     38       POPE     DC316    DRUD     -2.48520      0.400000           0   0.00000       0.00000    
      6914 MEMB     38       POPE     H16X     HDA3A    0.590000E-01   1.00800           0   0.00000       0.00000    
      6915 MEMB     38       POPE     H16Y     HDA3A    0.590000E-01   1.00800           0   0.00000       0.00000    
      6916 MEMB     38       POPE     H16Z     HDA3A    0.590000E-01   1.00800           0   0.00000       0.00000    
      6917 MEMB     39       POPE     N        ND3P3A    1.62810       13.6070           0  -1.29800      0.895000    
      6918 MEMB     39       POPE     DN       DRUD     -1.97710      0.400000           0   0.00000       0.00000    
      6919 MEMB     39       POPE     HN1      HDP1B    0.340000       1.00800           0   0.00000       0.00000    
      6920 MEMB     39       POPE     HN2      HDP1B    0.340000       1.00800           0   0.00000       0.00000    
      6921 MEMB     39       POPE     HN3      HDP1B    0.340000       1.00800           0   0.00000       0.00000    
      6922 MEMB     39       POPE     C12      CD32A     2.27610       11.6110           0  -1.65600      0.895000    
      6923 MEMB     39       POPE     DC12     DRUD     -2.23310      0.400000           0   0.00000       0.00000    
      6924 MEMB     39       POPE     H12A     HDA2A    0.143000       1.00800           0   0.00000       0.00000    
      6925 MEMB     39       POPE     H12B     HDA2A    0.143000       1.00800           0   0.00000       0.00000    
      6926 MEMB     39       POPE     C11      CD32A     2.42220       11.6110           0  -1.64200      0.862000    
      6927 MEMB     39       POPE     DC11     DRUD     -2.22370      0.400000           0   0.00000       0.00000    
      6928 MEMB     39       POPE     H11A     HDA2A    0.260000E-01   1.00800           0   0.00000       0.00000    
      6929 MEMB     39       POPE     H11B     HDA2A    0.260000E-01   1.00800           0   0.00000       0.00000    
      6930 MEMB     39       POPE     P        PD1A      2.90360       30.5740           0 -0.974000       2.09800    
      6931 MEMB     39       POPE     DP       DRUD     -1.71260      0.400000           0   0.00000       0.00000    
      6932 MEMB     39       POPE     O13      OD2C2B   0.798400       15.5994           0 -0.931000       1.08300    
      6933 MEMB     39       POPE     DO13     DRUD     -1.67440      0.400000           0   0.00000       0.00000    
      6934 MEMB     39       POPE     O14      OD2C2B   0.798400       15.5994           0 -0.931000       1.08300    
      6935 MEMB     39       POPE     DO14     DRUD     -1.67440      0.400000           0   0.00000       0.00000    
      6936 MEMB     39       POPE     O11      OD30B     1.17720       15.5994           0 -0.901000      0.181000    
      6937 MEMB     39       POPE     DO11     DRUD     -1.64720      0.400000           0   0.00000       0.00000    
      6938 MEMB     39       POPE     O12      OD30B     1.17720       15.5994           0 -0.901000      0.181000    
      6939 MEMB     39       POPE     DO12     DRUD     -1.64720      0.400000           0   0.00000       0.00000    
      6940 MEMB     39       POPE     C1       CD32A     2.42220       11.6110           0  -1.64200      0.862000    
      6941 MEMB     39       POPE     DC1      DRUD     -2.22370      0.400000           0   0.00000       0.00000    
      6942 MEMB     39       POPE     HA       HDA2A    0.260000E-01   1.00800           0   0.00000       0.00000    
      6943 MEMB     39       POPE     HB       HDA2A    0.260000E-01   1.00800           0   0.00000       0.00000    
      6944 MEMB     39       POPE     C2       CD31C     2.52830       11.6110           0  -1.79700      0.410000    
      6945 MEMB     39       POPE     DC2      DRUD     -2.32630      0.400000           0   0.00000       0.00000    
      6946 MEMB     39       POPE     HS       HDA1A    0.116000       1.00800           0   0.00000       0.00000    
      6947 MEMB     39       POPE     O21      OD30CL    1.48470       15.5994           0 -0.732000      0.601000    
      6948 MEMB     39       POPE     DO21     DRUD     -1.48470      0.400000           0   0.00000       0.00000    
      6949 MEMB     39       POPE     C21      CD2O3B    2.72820       11.6110           0  -1.37000       1.74700    
      6950 MEMB     39       POPE     DC21     DRUD     -2.03120      0.400000           0   0.00000       0.00000    
      6951 MEMB     39       POPE     O22      OD2C3B    1.64990       15.5994           0 -0.904000      0.565000    
      6952 MEMB     39       POPE     DO22     DRUD     -1.64990      0.400000           0   0.00000       0.00000    
      6953 MEMB     39       POPE     C22      CD32C     2.24380       11.6110           0  -1.99300      0.410000    
      6954 MEMB     39       POPE     DC22     DRUD     -2.44980      0.400000           0   0.00000       0.00000    
      6955 MEMB     39       POPE     H2R      HDA2A    0.690000E-01   1.00800           0   0.00000       0.00000    
      6956 MEMB     39       POPE     H2S      HDA2A    0.690000E-01   1.00800           0   0.00000       0.00000    
      6957 MEMB     39       POPE     LP1A     LPD     -0.349000       0.00000          -1   0.00000       0.00000    
      6958 MEMB     39       POPE     LP1B     LPD     -0.258000       0.00000          -1   0.00000       0.00000    
      6959 MEMB     39       POPE     LPMA     LPD     -0.170000       0.00000          -1   0.00000       0.00000    
      6960 MEMB     39       POPE     LPMB     LPD     -0.170000       0.00000          -1   0.00000       0.00000    
      6961 MEMB     39       POPE     C3       CD32C     2.41230       11.6110           0  -1.79700      0.410000    
      6962 MEMB     39       POPE     DC3      DRUD     -2.32630      0.400000           0   0.00000       0.00000    
      6963 MEMB     39       POPE     HX       HDA2A    0.116000       1.00800           0   0.00000       0.00000    
      6964 MEMB     39       POPE     HY       HDA2A    0.116000       1.00800           0   0.00000       0.00000    
      6965 MEMB     39       POPE     O31      OD30CL    1.48470       15.5994           0 -0.732000      0.601000    
      6966 MEMB     39       POPE     DO31     DRUD     -1.48470      0.400000           0   0.00000       0.00000    
      6967 MEMB     39       POPE     C31      CD2O3B    2.72820       11.6110           0  -1.37000       1.74700    
      6968 MEMB     39       POPE     DC31     DRUD     -2.03120      0.400000           0   0.00000       0.00000    
      6969 MEMB     39       POPE     O32      OD2C3B    1.64990       15.5994           0 -0.904000      0.565000    
      6970 MEMB     39       POPE     DO32     DRUD     -1.64990      0.400000           0   0.00000       0.00000    
      6971 MEMB     39       POPE     C32      CD32C     2.24380       11.6110           0  -1.99300      0.410000    
      6972 MEMB     39       POPE     DC32     DRUD     -2.44980      0.400000           0   0.00000       0.00000    
      6973 MEMB     39       POPE     H2X      HDA2A    0.690000E-01   1.00800           0   0.00000       0.00000    
      6974 MEMB     39       POPE     H2Y      HDA2A    0.690000E-01   1.00800           0   0.00000       0.00000    
      6975 MEMB     39       POPE     LP1C     LPD     -0.349000       0.00000          -1   0.00000       0.00000    
      6976 MEMB     39       POPE     LP1D     LPD     -0.258000       0.00000          -1   0.00000       0.00000    
      6977 MEMB     39       POPE     LPMC     LPD     -0.170000       0.00000          -1   0.00000       0.00000    
      6978 MEMB     39       POPE     LPMD     LPD     -0.170000       0.00000          -1   0.00000       0.00000    
      6979 MEMB     39       POPE     C23      CD32A     2.07980       11.6110           0  -1.66000       1.30000    
      6980 MEMB     39       POPE     DC23     DRUD     -2.23580      0.400000           0   0.00000       0.00000    
      6981 MEMB     39       POPE     H3R      HDA2A    0.780000E-01   1.00800           0   0.00000       0.00000    
      6982 MEMB     39       POPE     H3S      HDA2A    0.780000E-01   1.00800           0   0.00000       0.00000    
      6983 MEMB     39       POPE     C24      CD32A     2.07980       11.6110           0  -1.66000       1.30000    
      6984 MEMB     39       POPE     DC24     DRUD     -2.23580      0.400000           0   0.00000       0.00000    
      6985 MEMB     39       POPE     H4R      HDA2A    0.780000E-01   1.00800           0   0.00000       0.00000    
      6986 MEMB     39       POPE     H4S      HDA2A    0.780000E-01   1.00800           0   0.00000       0.00000    
      6987 MEMB     39       POPE     C25      CD32A     2.07980       11.6110           0  -1.66000       1.30000    
      6988 MEMB     39       POPE     DC25     DRUD     -2.23580      0.400000           0   0.00000       0.00000    
      6989 MEMB     39       POPE     H5R      HDA2A    0.780000E-01   1.00800           0   0.00000       0.00000    
      6990 MEMB     39       POPE     H5S      HDA2A    0.780000E-01   1.00800           0   0.00000       0.00000    
      6991 MEMB     39       POPE     C26      CD32A     2.07980       11.6110           0  -1.66000       1.30000    
      6992 MEMB     39       POPE     DC26     DRUD     -2.23580      0.400000           0   0.00000       0.00000    
      6993 MEMB     39       POPE     H6R      HDA2A    0.780000E-01   1.00800           0   0.00000       0.00000    
      6994 MEMB     39       POPE     H6S      HDA2A    0.780000E-01   1.00800           0   0.00000       0.00000    
      6995 MEMB     39       POPE     C27      CD32A     2.07980       11.6110           0  -1.66000       1.30000    
      6996 MEMB     39       POPE     DC27     DRUD     -2.23580      0.400000           0   0.00000       0.00000    
      6997 MEMB     39       POPE     H7R      HDA2A    0.780000E-01   1.00800           0   0.00000       0.00000    
      6998 MEMB     39       POPE     H7S      HDA2A    0.780000E-01   1.00800           0   0.00000       0.00000    
      6999 MEMB     39       POPE     C28      CD32A     2.07980       11.6110           0  -1.66000       1.30000    
      7000 MEMB     39       POPE     DC28     DRUD     -2.23580      0.400000           0   0.00000       0.00000    
      7001 MEMB     39       POPE     H8R      HDA2A    0.780000E-01   1.00800           0   0.00000       0.00000    
      7002 MEMB     39       POPE     H8S      HDA2A    0.780000E-01   1.00800           0   0.00000       0.00000    
      7003 MEMB     39       POPE     C29      CD2C1A    2.33700       11.6110           0  -1.99000      0.750000    
      7004 MEMB     39       POPE     DC29     DRUD     -2.44800      0.400000           0   0.00000       0.00000    
      7005 MEMB     39       POPE     H91      HD2C1A   0.111000       1.00800           0   0.00000       0.00000    
      7006 MEMB     39       POPE     C210     CD2C1A    2.33700       11.6110           0  -1.99000      0.750000    
      7007 MEMB     39       POPE     DC210    DRUD     -2.44800      0.400000           0   0.00000       0.00000    
      7008 MEMB     39       POPE     H101     HD2C1A   0.111000       1.00800           0   0.00000       0.00000    
      7009 MEMB     39       POPE     C211     CD32A     2.07980       11.6110           0  -1.66000       1.30000    
      7010 MEMB     39       POPE     DC211    DRUD     -2.23580      0.400000           0   0.00000       0.00000    
      7011 MEMB     39       POPE     H11R     HDA2A    0.780000E-01   1.00800           0   0.00000       0.00000    
      7012 MEMB     39       POPE     H11S     HDA2A    0.780000E-01   1.00800           0   0.00000       0.00000    
      7013 MEMB     39       POPE     C212     CD32A     2.07980       11.6110           0  -1.66000       1.30000    
      7014 MEMB     39       POPE     DC212    DRUD     -2.23580      0.400000           0   0.00000       0.00000    
      7015 MEMB     39       POPE     H12R     HDA2A    0.780000E-01   1.00800           0   0.00000       0.00000    
      7016 MEMB     39       POPE     H12S     HDA2A    0.780000E-01   1.00800           0   0.00000       0.00000    
      7017 MEMB     39       POPE     C213     CD32A     2.07980       11.6110           0  -1.66000       1.30000    
      7018 MEMB     39       POPE     DC213    DRUD     -2.23580      0.400000           0   0.00000       0.00000    
      7019 MEMB     39       POPE     H13R     HDA2A    0.780000E-01   1.00800           0   0.00000       0.00000    
      7020 MEMB     39       POPE     H13S     HDA2A    0.780000E-01   1.00800           0   0.00000       0.00000    
      7021 MEMB     39       POPE     C214     CD32A     2.07980       11.6110           0  -1.66000       1.30000    
      7022 MEMB     39       POPE     DC214    DRUD     -2.23580      0.400000           0   0.00000       0.00000    
      7023 MEMB     39       POPE     H14R     HDA2A    0.780000E-01   1.00800           0   0.00000       0.00000    
      7024 MEMB     39       POPE     H14S     HDA2A    0.780000E-01   1.00800           0   0.00000       0.00000    
      7025 MEMB     39       POPE     C215     CD32A     2.07980       11.6110           0  -1.66000       1.30000    
      7026 MEMB     39       POPE     DC215    DRUD     -2.23580      0.400000           0   0.00000       0.00000    
      7027 MEMB     39       POPE     H15R     HDA2A    0.780000E-01   1.00800           0   0.00000       0.00000    
      7028 MEMB     39       POPE     H15S     HDA2A    0.780000E-01   1.00800           0   0.00000       0.00000    
      7029 MEMB     39       POPE     C216     CD32A     2.07980       11.6110           0  -1.66000       1.30000    
      7030 MEMB     39       POPE     DC216    DRUD     -2.23580      0.400000           0   0.00000       0.00000    
      7031 MEMB     39       POPE     H16R     HDA2A    0.780000E-01   1.00800           0   0.00000       0.00000    
      7032 MEMB     39       POPE     H16S     HDA2A    0.780000E-01   1.00800           0   0.00000       0.00000    
      7033 MEMB     39       POPE     C217     CD32A     2.07980       11.6110           0  -1.66000       1.30000    
      7034 MEMB     39       POPE     DC217    DRUD     -2.23580      0.400000           0   0.00000       0.00000    
      7035 MEMB     39       POPE     H17R     HDA2A    0.780000E-01   1.00800           0   0.00000       0.00000    
      7036 MEMB     39       POPE     H17S     HDA2A    0.780000E-01   1.00800           0   0.00000       0.00000    
      7037 MEMB     39       POPE     C218     CD33A     2.30820       11.6110           0  -2.05100       1.30000    
      7038 MEMB     39       POPE     DC218    DRUD     -2.48520      0.400000           0   0.00000       0.00000    
      7039 MEMB     39       POPE     H18R     HDA3A    0.590000E-01   1.00800           0   0.00000       0.00000    
      7040 MEMB     39       POPE     H18S     HDA3A    0.590000E-01   1.00800           0   0.00000       0.00000    
      7041 MEMB     39       POPE     H18T     HDA3A    0.590000E-01   1.00800           0   0.00000       0.00000    
      7042 MEMB     39       POPE     C33      CD32A     2.07980       11.6110           0  -1.66000       1.30000    
      7043 MEMB     39       POPE     DC33     DRUD     -2.23580      0.400000           0   0.00000       0.00000    
      7044 MEMB     39       POPE     H3X      HDA2A    0.780000E-01   1.00800           0   0.00000       0.00000    
      7045 MEMB     39       POPE     H3Y      HDA2A    0.780000E-01   1.00800           0   0.00000       0.00000    
      7046 MEMB     39       POPE     C34      CD32A     2.07980       11.6110           0  -1.66000       1.30000    
      7047 MEMB     39       POPE     DC34     DRUD     -2.23580      0.400000           0   0.00000       0.00000    
      7048 MEMB     39       POPE     H4X      HDA2A    0.780000E-01   1.00800           0   0.00000       0.00000    
      7049 MEMB     39       POPE     H4Y      HDA2A    0.780000E-01   1.00800           0   0.00000       0.00000    
      7050 MEMB     39       POPE     C35      CD32A     2.07980       11.6110           0  -1.66000       1.30000    
      7051 MEMB     39       POPE     DC35     DRUD     -2.23580      0.400000           0   0.00000       0.00000    
      7052 MEMB     39       POPE     H5X      HDA2A    0.780000E-01   1.00800           0   0.00000       0.00000    
      7053 MEMB     39       POPE     H5Y      HDA2A    0.780000E-01   1.00800           0   0.00000       0.00000    
      7054 MEMB     39       POPE     C36      CD32A     2.07980       11.6110           0  -1.66000       1.30000    
      7055 MEMB     39       POPE     DC36     DRUD     -2.23580      0.400000           0   0.00000       0.00000    
      7056 MEMB     39       POPE     H6X      HDA2A    0.780000E-01   1.00800           0   0.00000       0.00000    
      7057 MEMB     39       POPE     H6Y      HDA2A    0.780000E-01   1.00800           0   0.00000       0.00000    
      7058 MEMB     39       POPE     C37      CD32A     2.07980       11.6110           0  -1.66000       1.30000    
      7059 MEMB     39       POPE     DC37     DRUD     -2.23580      0.400000           0   0.00000       0.00000    
      7060 MEMB     39       POPE     H7X      HDA2A    0.780000E-01   1.00800           0   0.00000       0.00000    
      7061 MEMB     39       POPE     H7Y      HDA2A    0.780000E-01   1.00800           0   0.00000       0.00000    
      7062 MEMB     39       POPE     C38      CD32A     2.07980       11.6110           0  -1.66000       1.30000    
      7063 MEMB     39       POPE     DC38     DRUD     -2.23580      0.400000           0   0.00000       0.00000    
      7064 MEMB     39       POPE     H8X      HDA2A    0.780000E-01   1.00800           0   0.00000       0.00000    
      7065 MEMB     39       POPE     H8Y      HDA2A    0.780000E-01   1.00800           0   0.00000       0.00000    
      7066 MEMB     39       POPE     C39      CD32A     2.07980       11.6110           0  -1.66000       1.30000    
      7067 MEMB     39       POPE     DC39     DRUD     -2.23580      0.400000           0   0.00000       0.00000    
      7068 MEMB     39       POPE     H9X      HDA2A    0.780000E-01   1.00800           0   0.00000       0.00000    
      7069 MEMB     39       POPE     H9Y      HDA2A    0.780000E-01   1.00800           0   0.00000       0.00000    
      7070 MEMB     39       POPE     C310     CD32A     2.07980       11.6110           0  -1.66000       1.30000    
      7071 MEMB     39       POPE     DC310    DRUD     -2.23580      0.400000           0   0.00000       0.00000    
      7072 MEMB     39       POPE     H10X     HDA2A    0.780000E-01   1.00800           0   0.00000       0.00000    
      7073 MEMB     39       POPE     H10Y     HDA2A    0.780000E-01   1.00800           0   0.00000       0.00000    
      7074 MEMB     39       POPE     C311     CD32A     2.07980       11.6110           0  -1.66000       1.30000    
      7075 MEMB     39       POPE     DC311    DRUD     -2.23580      0.400000           0   0.00000       0.00000    
      7076 MEMB     39       POPE     H11X     HDA2A    0.780000E-01   1.00800           0   0.00000       0.00000    
      7077 MEMB     39       POPE     H11Y     HDA2A    0.780000E-01   1.00800           0   0.00000       0.00000    
      7078 MEMB     39       POPE     C312     CD32A     2.07980       11.6110           0  -1.66000       1.30000    
      7079 MEMB     39       POPE     DC312    DRUD     -2.23580      0.400000           0   0.00000       0.00000    
      7080 MEMB     39       POPE     H12X     HDA2A    0.780000E-01   1.00800           0   0.00000       0.00000    
      7081 MEMB     39       POPE     H12Y     HDA2A    0.780000E-01   1.00800           0   0.00000       0.00000    
      7082 MEMB     39       POPE     C313     CD32A     2.07980       11.6110           0  -1.66000       1.30000    
      7083 MEMB     39       POPE     DC313    DRUD     -2.23580      0.400000           0   0.00000       0.00000    
      7084 MEMB     39       POPE     H13X     HDA2A    0.780000E-01   1.00800           0   0.00000       0.00000    
      7085 MEMB     39       POPE     H13Y     HDA2A    0.780000E-01   1.00800           0   0.00000       0.00000    
      7086 MEMB     39       POPE     C314     CD32A     2.07980       11.6110           0  -1.66000       1.30000    
      7087 MEMB     39       POPE     DC314    DRUD     -2.23580      0.400000           0   0.00000       0.00000    
      7088 MEMB     39       POPE     H14X     HDA2A    0.780000E-01   1.00800           0   0.00000       0.00000    
      7089 MEMB     39       POPE     H14Y     HDA2A    0.780000E-01   1.00800           0   0.00000       0.00000    
      7090 MEMB     39       POPE     C315     CD32A     2.07980       11.6110           0  -1.66000       1.30000    
      7091 MEMB     39       POPE     DC315    DRUD     -2.23580      0.400000           0   0.00000       0.00000    
      7092 MEMB     39       POPE     H15X     HDA2A    0.780000E-01   1.00800           0   0.00000       0.00000    
      7093 MEMB     39       POPE     H15Y     HDA2A    0.780000E-01   1.00800           0   0.00000       0.00000    
      7094 MEMB     39       POPE     C316     CD33A     2.30820       11.6110           0  -2.05100       1.30000    
      7095 MEMB     39       POPE     DC316    DRUD     -2.48520      0.400000           0   0.00000       0.00000    
      7096 MEMB     39       POPE     H16X     HDA3A    0.590000E-01   1.00800           0   0.00000       0.00000    
      7097 MEMB     39       POPE     H16Y     HDA3A    0.590000E-01   1.00800           0   0.00000       0.00000    
      7098 MEMB     39       POPE     H16Z     HDA3A    0.590000E-01   1.00800           0   0.00000       0.00000    
      7099 MEMB     40       POPE     N        ND3P3A    1.62810       13.6070           0  -1.29800      0.895000    
      7100 MEMB     40       POPE     DN       DRUD     -1.97710      0.400000           0   0.00000       0.00000    
      7101 MEMB     40       POPE     HN1      HDP1B    0.340000       1.00800           0   0.00000       0.00000    
      7102 MEMB     40       POPE     HN2      HDP1B    0.340000       1.00800           0   0.00000       0.00000    
      7103 MEMB     40       POPE     HN3      HDP1B    0.340000       1.00800           0   0.00000       0.00000    
      7104 MEMB     40       POPE     C12      CD32A     2.27610       11.6110           0  -1.65600      0.895000    
      7105 MEMB     40       POPE     DC12     DRUD     -2.23310      0.400000           0   0.00000       0.00000    
      7106 MEMB     40       POPE     H12A     HDA2A    0.143000       1.00800           0   0.00000       0.00000    
      7107 MEMB     40       POPE     H12B     HDA2A    0.143000       1.00800           0   0.00000       0.00000    
      7108 MEMB     40       POPE     C11      CD32A     2.42220       11.6110           0  -1.64200      0.862000    
      7109 MEMB     40       POPE     DC11     DRUD     -2.22370      0.400000           0   0.00000       0.00000    
      7110 MEMB     40       POPE     H11A     HDA2A    0.260000E-01   1.00800           0   0.00000       0.00000    
      7111 MEMB     40       POPE     H11B     HDA2A    0.260000E-01   1.00800           0   0.00000       0.00000    
      7112 MEMB     40       POPE     P        PD1A      2.90360       30.5740           0 -0.974000       2.09800    
      7113 MEMB     40       POPE     DP       DRUD     -1.71260      0.400000           0   0.00000       0.00000    
      7114 MEMB     40       POPE     O13      OD2C2B   0.798400       15.5994           0 -0.931000       1.08300    
      7115 MEMB     40       POPE     DO13     DRUD     -1.67440      0.400000           0   0.00000       0.00000    
      7116 MEMB     40       POPE     O14      OD2C2B   0.798400       15.5994           0 -0.931000       1.08300    
      7117 MEMB     40       POPE     DO14     DRUD     -1.67440      0.400000           0   0.00000       0.00000    
      7118 MEMB     40       POPE     O11      OD30B     1.17720       15.5994           0 -0.901000      0.181000    
      7119 MEMB     40       POPE     DO11     DRUD     -1.64720      0.400000           0   0.00000       0.00000    
      7120 MEMB     40       POPE     O12      OD30B     1.17720       15.5994           0 -0.901000      0.181000    
      7121 MEMB     40       POPE     DO12     DRUD     -1.64720      0.400000           0   0.00000       0.00000    
      7122 MEMB     40       POPE     C1       CD32A     2.42220       11.6110           0  -1.64200      0.862000    
      7123 MEMB     40       POPE     DC1      DRUD     -2.22370      0.400000           0   0.00000       0.00000    
      7124 MEMB     40       POPE     HA       HDA2A    0.260000E-01   1.00800           0   0.00000       0.00000    
      7125 MEMB     40       POPE     HB       HDA2A    0.260000E-01   1.00800           0   0.00000       0.00000    
      7126 MEMB     40       POPE     C2       CD31C     2.52830       11.6110           0  -1.79700      0.410000    
      7127 MEMB     40       POPE     DC2      DRUD     -2.32630      0.400000           0   0.00000       0.00000    
      7128 MEMB     40       POPE     HS       HDA1A    0.116000       1.00800           0   0.00000       0.00000    
      7129 MEMB     40       POPE     O21      OD30CL    1.48470       15.5994           0 -0.732000      0.601000    
      7130 MEMB     40       POPE     DO21     DRUD     -1.48470      0.400000           0   0.00000       0.00000    
      7131 MEMB     40       POPE     C21      CD2O3B    2.72820       11.6110           0  -1.37000       1.74700    
      7132 MEMB     40       POPE     DC21     DRUD     -2.03120      0.400000           0   0.00000       0.00000    
      7133 MEMB     40       POPE     O22      OD2C3B    1.64990       15.5994           0 -0.904000      0.565000    
      7134 MEMB     40       POPE     DO22     DRUD     -1.64990      0.400000           0   0.00000       0.00000    
      7135 MEMB     40       POPE     C22      CD32C     2.24380       11.6110           0  -1.99300      0.410000    
      7136 MEMB     40       POPE     DC22     DRUD     -2.44980      0.400000           0   0.00000       0.00000    
      7137 MEMB     40       POPE     H2R      HDA2A    0.690000E-01   1.00800           0   0.00000       0.00000    
      7138 MEMB     40       POPE     H2S      HDA2A    0.690000E-01   1.00800           0   0.00000       0.00000    
      7139 MEMB     40       POPE     LP1A     LPD     -0.349000       0.00000          -1   0.00000       0.00000    
      7140 MEMB     40       POPE     LP1B     LPD     -0.258000       0.00000          -1   0.00000       0.00000    
      7141 MEMB     40       POPE     LPMA     LPD     -0.170000       0.00000          -1   0.00000       0.00000    
      7142 MEMB     40       POPE     LPMB     LPD     -0.170000       0.00000          -1   0.00000       0.00000    
      7143 MEMB     40       POPE     C3       CD32C     2.41230       11.6110           0  -1.79700      0.410000    
      7144 MEMB     40       POPE     DC3      DRUD     -2.32630      0.400000           0   0.00000       0.00000    
      7145 MEMB     40       POPE     HX       HDA2A    0.116000       1.00800           0   0.00000       0.00000    
      7146 MEMB     40       POPE     HY       HDA2A    0.116000       1.00800           0   0.00000       0.00000    
      7147 MEMB     40       POPE     O31      OD30CL    1.48470       15.5994           0 -0.732000      0.601000    
      7148 MEMB     40       POPE     DO31     DRUD     -1.48470      0.400000           0   0.00000       0.00000    
      7149 MEMB     40       POPE     C31      CD2O3B    2.72820       11.6110           0  -1.37000       1.74700    
      7150 MEMB     40       POPE     DC31     DRUD     -2.03120      0.400000           0   0.00000       0.00000    
      7151 MEMB     40       POPE     O32      OD2C3B    1.64990       15.5994           0 -0.904000      0.565000    
      7152 MEMB     40       POPE     DO32     DRUD     -1.64990      0.400000           0   0.00000       0.00000    
      7153 MEMB     40       POPE     C32      CD32C     2.24380       11.6110           0  -1.99300      0.410000    
      7154 MEMB     40       POPE     DC32     DRUD     -2.44980      0.400000           0   0.00000       0.00000    
      7155 MEMB     40       POPE     H2X      HDA2A    0.690000E-01   1.00800           0   0.00000       0.00000    
      7156 MEMB     40       POPE     H2Y      HDA2A    0.690000E-01   1.00800           0   0.00000       0.00000    
      7157 MEMB     40       POPE     LP1C     LPD     -0.349000       0.00000          -1   0.00000       0.00000    
      7158 MEMB     40       POPE     LP1D     LPD     -0.258000       0.00000          -1   0.00000       0.00000    
      7159 MEMB     40       POPE     LPMC     LPD     -0.170000       0.00000          -1   0.00000       0.00000    
      7160 MEMB     40       POPE     LPMD     LPD     -0.170000       0.00000          -1   0.00000       0.00000    
      7161 MEMB     40       POPE     C23      CD32A     2.07980       11.6110           0  -1.66000       1.30000    
      7162 MEMB     40       POPE     DC23     DRUD     -2.23580      0.400000           0   0.00000       0.00000    
      7163 MEMB     40       POPE     H3R      HDA2A    0.780000E-01   1.00800           0   0.00000       0.00000    
      7164 MEMB     40       POPE     H3S      HDA2A    0.780000E-01   1.00800           0   0.00000       0.00000    
      7165 MEMB     40       POPE     C24      CD32A     2.07980       11.6110           0  -1.66000       1.30000    
      7166 MEMB     40       POPE     DC24     DRUD     -2.23580      0.400000           0   0.00000       0.00000    
      7167 MEMB     40       POPE     H4R      HDA2A    0.780000E-01   1.00800           0   0.00000       0.00000    
      7168 MEMB     40       POPE     H4S      HDA2A    0.780000E-01   1.00800           0   0.00000       0.00000    
      7169 MEMB     40       POPE     C25      CD32A     2.07980       11.6110           0  -1.66000       1.30000    
      7170 MEMB     40       POPE     DC25     DRUD     -2.23580      0.400000           0   0.00000       0.00000    
      7171 MEMB     40       POPE     H5R      HDA2A    0.780000E-01   1.00800           0   0.00000       0.00000    
      7172 MEMB     40       POPE     H5S      HDA2A    0.780000E-01   1.00800           0   0.00000       0.00000    
      7173 MEMB     40       POPE     C26      CD32A     2.07980       11.6110           0  -1.66000       1.30000    
      7174 MEMB     40       POPE     DC26     DRUD     -2.23580      0.400000           0   0.00000       0.00000    
      7175 MEMB     40       POPE     H6R      HDA2A    0.780000E-01   1.00800           0   0.00000       0.00000    
      7176 MEMB     40       POPE     H6S      HDA2A    0.780000E-01   1.00800           0   0.00000       0.00000    
      7177 MEMB     40       POPE     C27      CD32A     2.07980       11.6110           0  -1.66000       1.30000    
      7178 MEMB     40       POPE     DC27     DRUD     -2.23580      0.400000           0   0.00000       0.00000    
      7179 MEMB     40       POPE     H7R      HDA2A    0.780000E-01   1.00800           0   0.00000       0.00000    
      7180 MEMB     40       POPE     H7S      HDA2A    0.780000E-01   1.00800           0   0.00000       0.00000    
      7181 MEMB     40       POPE     C28      CD32A     2.07980       11.6110           0  -1.66000       1.30000    
      7182 MEMB     40       POPE     DC28     DRUD     -2.23580      0.400000           0   0.00000       0.00000    
      7183 MEMB     40       POPE     H8R      HDA2A    0.780000E-01   1.00800           0   0.00000       0.00000    
      7184 MEMB     40       POPE     H8S      HDA2A    0.780000E-01   1.00800           0   0.00000       0.00000    
      7185 MEMB     40       POPE     C29      CD2C1A    2.33700       11.6110           0  -1.99000      0.750000    
      7186 MEMB     40       POPE     DC29     DRUD     -2.44800      0.400000           0   0.00000       0.00000    
      7187 MEMB     40       POPE     H91      HD2C1A   0.111000       1.00800           0   0.00000       0.00000    
      7188 MEMB     40       POPE     C210     CD2C1A    2.33700       11.6110           0  -1.99000      0.750000    
      7189 MEMB     40       POPE     DC210    DRUD     -2.44800      0.400000           0   0.00000       0.00000    
      7190 MEMB     40       POPE     H101     HD2C1A   0.111000       1.00800           0   0.00000       0.00000    
      7191 MEMB     40       POPE     C211     CD32A     2.07980       11.6110           0  -1.66000       1.30000    
      7192 MEMB     40       POPE     DC211    DRUD     -2.23580      0.400000           0   0.00000       0.00000    
      7193 MEMB     40       POPE     H11R     HDA2A    0.780000E-01   1.00800           0   0.00000       0.00000    
      7194 MEMB     40       POPE     H11S     HDA2A    0.780000E-01   1.00800           0   0.00000       0.00000    
      7195 MEMB     40       POPE     C212     CD32A     2.07980       11.6110           0  -1.66000       1.30000    
      7196 MEMB     40       POPE     DC212    DRUD     -2.23580      0.400000           0   0.00000       0.00000    
      7197 MEMB     40       POPE     H12R     HDA2A    0.780000E-01   1.00800           0   0.00000       0.00000    
      7198 MEMB     40       POPE     H12S     HDA2A    0.780000E-01   1.00800           0   0.00000       0.00000    
      7199 MEMB     40       POPE     C213     CD32A     2.07980       11.6110           0  -1.66000       1.30000    
      7200 MEMB     40       POPE     DC213    DRUD     -2.23580      0.400000           0   0.00000       0.00000    
      7201 MEMB     40       POPE     H13R     HDA2A    0.780000E-01   1.00800           0   0.00000       0.00000    
      7202 MEMB     40       POPE     H13S     HDA2A    0.780000E-01   1.00800           0   0.00000       0.00000    
      7203 MEMB     40       POPE     C214     CD32A     2.07980       11.6110           0  -1.66000       1.30000    
      7204 MEMB     40       POPE     DC214    DRUD     -2.23580      0.400000           0   0.00000       0.00000    
      7205 MEMB     40       POPE     H14R     HDA2A    0.780000E-01   1.00800           0   0.00000       0.00000    
      7206 MEMB     40       POPE     H14S     HDA2A    0.780000E-01   1.00800           0   0.00000       0.00000    
      7207 MEMB     40       POPE     C215     CD32A     2.07980       11.6110           0  -1.66000       1.30000    
      7208 MEMB     40       POPE     DC215    DRUD     -2.23580      0.400000           0   0.00000       0.00000    
      7209 MEMB     40       POPE     H15R     HDA2A    0.780000E-01   1.00800           0   0.00000       0.00000    
      7210 MEMB     40       POPE     H15S     HDA2A    0.780000E-01   1.00800           0   0.00000       0.00000    
      7211 MEMB     40       POPE     C216     CD32A     2.07980       11.6110           0  -1.66000       1.30000    
      7212 MEMB     40       POPE     DC216    DRUD     -2.23580      0.400000           0   0.00000       0.00000    
      7213 MEMB     40       POPE     H16R     HDA2A    0.780000E-01   1.00800           0   0.00000       0.00000    
      7214 MEMB     40       POPE     H16S     HDA2A    0.780000E-01   1.00800           0   0.00000       0.00000    
      7215 MEMB     40       POPE     C217     CD32A     2.07980       11.6110           0  -1.66000       1.30000    
      7216 MEMB     40       POPE     DC217    DRUD     -2.23580      0.400000           0   0.00000       0.00000    
      7217 MEMB     40       POPE     H17R     HDA2A    0.780000E-01   1.00800           0   0.00000       0.00000    
      7218 MEMB     40       POPE     H17S     HDA2A    0.780000E-01   1.00800           0   0.00000       0.00000    
      7219 MEMB     40       POPE     C218     CD33A     2.30820       11.6110           0  -2.05100       1.30000    
      7220 MEMB     40       POPE     DC218    DRUD     -2.48520      0.400000           0   0.00000       0.00000    
      7221 MEMB     40       POPE     H18R     HDA3A    0.590000E-01   1.00800           0   0.00000       0.00000    
      7222 MEMB     40       POPE     H18S     HDA3A    0.590000E-01   1.00800           0   0.00000       0.00000    
      7223 MEMB     40       POPE     H18T     HDA3A    0.590000E-01   1.00800           0   0.00000       0.00000    
      7224 MEMB     40       POPE     C33      CD32A     2.07980       11.6110           0  -1.66000       1.30000    
      7225 MEMB     40       POPE     DC33     DRUD     -2.23580      0.400000           0   0.00000       0.00000    
      7226 MEMB     40       POPE     H3X      HDA2A    0.780000E-01   1.00800           0   0.00000       0.00000    
      7227 MEMB     40       POPE     H3Y      HDA2A    0.780000E-01   1.00800           0   0.00000       0.00000    
      7228 MEMB     40       POPE     C34      CD32A     2.07980       11.6110           0  -1.66000       1.30000    
      7229 MEMB     40       POPE     DC34     DRUD     -2.23580      0.400000           0   0.00000       0.00000    
      7230 MEMB     40       POPE     H4X      HDA2A    0.780000E-01   1.00800           0   0.00000       0.00000    
      7231 MEMB     40       POPE     H4Y      HDA2A    0.780000E-01   1.00800           0   0.00000       0.00000    
      7232 MEMB     40       POPE     C35      CD32A     2.07980       11.6110           0  -1.66000       1.30000    
      7233 MEMB     40       POPE     DC35     DRUD     -2.23580      0.400000           0   0.00000       0.00000    
      7234 MEMB     40       POPE     H5X      HDA2A    0.780000E-01   1.00800           0   0.00000       0.00000    
      7235 MEMB     40       POPE     H5Y      HDA2A    0.780000E-01   1.00800           0   0.00000       0.00000    
      7236 MEMB     40       POPE     C36      CD32A     2.07980       11.6110           0  -1.66000       1.30000    
      7237 MEMB     40       POPE     DC36     DRUD     -2.23580      0.400000           0   0.00000       0.00000    
      7238 MEMB     40       POPE     H6X      HDA2A    0.780000E-01   1.00800           0   0.00000       0.00000    
      7239 MEMB     40       POPE     H6Y      HDA2A    0.780000E-01   1.00800           0   0.00000       0.00000    
      7240 MEMB     40       POPE     C37      CD32A     2.07980       11.6110           0  -1.66000       1.30000    
      7241 MEMB     40       POPE     DC37     DRUD     -2.23580      0.400000           0   0.00000       0.00000    
      7242 MEMB     40       POPE     H7X      HDA2A    0.780000E-01   1.00800           0   0.00000       0.00000    
      7243 MEMB     40       POPE     H7Y      HDA2A    0.780000E-01   1.00800           0   0.00000       0.00000    
      7244 MEMB     40       POPE     C38      CD32A     2.07980       11.6110           0  -1.66000       1.30000    
      7245 MEMB     40       POPE     DC38     DRUD     -2.23580      0.400000           0   0.00000       0.00000    
      7246 MEMB     40       POPE     H8X      HDA2A    0.780000E-01   1.00800           0   0.00000       0.00000    
      7247 MEMB     40       POPE     H8Y      HDA2A    0.780000E-01   1.00800           0   0.00000       0.00000    
      7248 MEMB     40       POPE     C39      CD32A     2.07980       11.6110           0  -1.66000       1.30000    
      7249 MEMB     40       POPE     DC39     DRUD     -2.23580      0.400000           0   0.00000       0.00000    
      7250 MEMB     40       POPE     H9X      HDA2A    0.780000E-01   1.00800           0   0.00000       0.00000    
      7251 MEMB     40       POPE     H9Y      HDA2A    0.780000E-01   1.00800           0   0.00000       0.00000    
      7252 MEMB     40       POPE     C310     CD32A     2.07980       11.6110           0  -1.66000       1.30000    
      7253 MEMB     40       POPE     DC310    DRUD     -2.23580      0.400000           0   0.00000       0.00000    
      7254 MEMB     40       POPE     H10X     HDA2A    0.780000E-01   1.00800           0   0.00000       0.00000    
      7255 MEMB     40       POPE     H10Y     HDA2A    0.780000E-01   1.00800           0   0.00000       0.00000    
      7256 MEMB     40       POPE     C311     CD32A     2.07980       11.6110           0  -1.66000       1.30000    
      7257 MEMB     40       POPE     DC311    DRUD     -2.23580      0.400000           0   0.00000       0.00000    
      7258 MEMB     40       POPE     H11X     HDA2A    0.780000E-01   1.00800           0   0.00000       0.00000    
      7259 MEMB     40       POPE     H11Y     HDA2A    0.780000E-01   1.00800           0   0.00000       0.00000    
      7260 MEMB     40       POPE     C312     CD32A     2.07980       11.6110           0  -1.66000       1.30000    
      7261 MEMB     40       POPE     DC312    DRUD     -2.23580      0.400000           0   0.00000       0.00000    
      7262 MEMB     40       POPE     H12X     HDA2A    0.780000E-01   1.00800           0   0.00000       0.00000    
      7263 MEMB     40       POPE     H12Y     HDA2A    0.780000E-01   1.00800           0   0.00000       0.00000    
      7264 MEMB     40       POPE     C313     CD32A     2.07980       11.6110           0  -1.66000       1.30000    
      7265 MEMB     40       POPE     DC313    DRUD     -2.23580      0.400000           0   0.00000       0.00000    
      7266 MEMB     40       POPE     H13X     HDA2A    0.780000E-01   1.00800           0   0.00000       0.00000    
      7267 MEMB     40       POPE     H13Y     HDA2A    0.780000E-01   1.00800           0   0.00000       0.00000    
      7268 MEMB     40       POPE     C314     CD32A     2.07980       11.6110           0  -1.66000       1.30000    
      7269 MEMB     40       POPE     DC314    DRUD     -2.23580      0.400000           0   0.00000       0.00000    
      7270 MEMB     40       POPE     H14X     HDA2A    0.780000E-01   1.00800           0   0.00000       0.00000    
      7271 MEMB     40       POPE     H14Y     HDA2A    0.780000E-01   1.00800           0   0.00000       0.00000    
      7272 MEMB     40       POPE     C315     CD32A     2.07980       11.6110           0  -1.66000       1.30000    
      7273 MEMB     40       POPE     DC315    DRUD     -2.23580      0.400000           0   0.00000       0.00000    
      7274 MEMB     40       POPE     H15X     HDA2A    0.780000E-01   1.00800           0   0.00000       0.00000    
      7275 MEMB     40       POPE     H15Y     HDA2A    0.780000E-01   1.00800           0   0.00000       0.00000    
      7276 MEMB     40       POPE     C316     CD33A     2.30820       11.6110           0  -2.05100       1.30000    
      7277 MEMB     40       POPE     DC316    DRUD     -2.48520      0.400000           0   0.00000       0.00000    
      7278 MEMB     40       POPE     H16X     HDA3A    0.590000E-01   1.00800           0   0.00000       0.00000    
      7279 MEMB     40       POPE     H16Y     HDA3A    0.590000E-01   1.00800           0   0.00000       0.00000    
      7280 MEMB     40       POPE     H16Z     HDA3A    0.590000E-01   1.00800           0   0.00000       0.00000    
      7281 MEMB     41       POPE     N        ND3P3A    1.62810       13.6070           0  -1.29800      0.895000    
      7282 MEMB     41       POPE     DN       DRUD     -1.97710      0.400000           0   0.00000       0.00000    
      7283 MEMB     41       POPE     HN1      HDP1B    0.340000       1.00800           0   0.00000       0.00000    
      7284 MEMB     41       POPE     HN2      HDP1B    0.340000       1.00800           0   0.00000       0.00000    
      7285 MEMB     41       POPE     HN3      HDP1B    0.340000       1.00800           0   0.00000       0.00000    
      7286 MEMB     41       POPE     C12      CD32A     2.27610       11.6110           0  -1.65600      0.895000    
      7287 MEMB     41       POPE     DC12     DRUD     -2.23310      0.400000           0   0.00000       0.00000    
      7288 MEMB     41       POPE     H12A     HDA2A    0.143000       1.00800           0   0.00000       0.00000    
      7289 MEMB     41       POPE     H12B     HDA2A    0.143000       1.00800           0   0.00000       0.00000    
      7290 MEMB     41       POPE     C11      CD32A     2.42220       11.6110           0  -1.64200      0.862000    
      7291 MEMB     41       POPE     DC11     DRUD     -2.22370      0.400000           0   0.00000       0.00000    
      7292 MEMB     41       POPE     H11A     HDA2A    0.260000E-01   1.00800           0   0.00000       0.00000    
      7293 MEMB     41       POPE     H11B     HDA2A    0.260000E-01   1.00800           0   0.00000       0.00000    
      7294 MEMB     41       POPE     P        PD1A      2.90360       30.5740           0 -0.974000       2.09800    
      7295 MEMB     41       POPE     DP       DRUD     -1.71260      0.400000           0   0.00000       0.00000    
      7296 MEMB     41       POPE     O13      OD2C2B   0.798400       15.5994           0 -0.931000       1.08300    
      7297 MEMB     41       POPE     DO13     DRUD     -1.67440      0.400000           0   0.00000       0.00000    
      7298 MEMB     41       POPE     O14      OD2C2B   0.798400       15.5994           0 -0.931000       1.08300    
      7299 MEMB     41       POPE     DO14     DRUD     -1.67440      0.400000           0   0.00000       0.00000    
      7300 MEMB     41       POPE     O11      OD30B     1.17720       15.5994           0 -0.901000      0.181000    
      7301 MEMB     41       POPE     DO11     DRUD     -1.64720      0.400000           0   0.00000       0.00000    
      7302 MEMB     41       POPE     O12      OD30B     1.17720       15.5994           0 -0.901000      0.181000    
      7303 MEMB     41       POPE     DO12     DRUD     -1.64720      0.400000           0   0.00000       0.00000    
      7304 MEMB     41       POPE     C1       CD32A     2.42220       11.6110           0  -1.64200      0.862000    
      7305 MEMB     41       POPE     DC1      DRUD     -2.22370      0.400000           0   0.00000       0.00000    
      7306 MEMB     41       POPE     HA       HDA2A    0.260000E-01   1.00800           0   0.00000       0.00000    
      7307 MEMB     41       POPE     HB       HDA2A    0.260000E-01   1.00800           0   0.00000       0.00000    
      7308 MEMB     41       POPE     C2       CD31C     2.52830       11.6110           0  -1.79700      0.410000    
      7309 MEMB     41       POPE     DC2      DRUD     -2.32630      0.400000           0   0.00000       0.00000    
      7310 MEMB     41       POPE     HS       HDA1A    0.116000       1.00800           0   0.00000       0.00000    
      7311 MEMB     41       POPE     O21      OD30CL    1.48470       15.5994           0 -0.732000      0.601000    
      7312 MEMB     41       POPE     DO21     DRUD     -1.48470      0.400000           0   0.00000       0.00000    
      7313 MEMB     41       POPE     C21      CD2O3B    2.72820       11.6110           0  -1.37000       1.74700    
      7314 MEMB     41       POPE     DC21     DRUD     -2.03120      0.400000           0   0.00000       0.00000    
      7315 MEMB     41       POPE     O22      OD2C3B    1.64990       15.5994           0 -0.904000      0.565000    
      7316 MEMB     41       POPE     DO22     DRUD     -1.64990      0.400000           0   0.00000       0.00000    
      7317 MEMB     41       POPE     C22      CD32C     2.24380       11.6110           0  -1.99300      0.410000    
      7318 MEMB     41       POPE     DC22     DRUD     -2.44980      0.400000           0   0.00000       0.00000    
      7319 MEMB     41       POPE     H2R      HDA2A    0.690000E-01   1.00800           0   0.00000       0.00000    
      7320 MEMB     41       POPE     H2S      HDA2A    0.690000E-01   1.00800           0   0.00000       0.00000    
      7321 MEMB     41       POPE     LP1A     LPD     -0.349000       0.00000          -1   0.00000       0.00000    
      7322 MEMB     41       POPE     LP1B     LPD     -0.258000       0.00000          -1   0.00000       0.00000    
      7323 MEMB     41       POPE     LPMA     LPD     -0.170000       0.00000          -1   0.00000       0.00000    
      7324 MEMB     41       POPE     LPMB     LPD     -0.170000       0.00000          -1   0.00000       0.00000    
      7325 MEMB     41       POPE     C3       CD32C     2.41230       11.6110           0  -1.79700      0.410000    
      7326 MEMB     41       POPE     DC3      DRUD     -2.32630      0.400000           0   0.00000       0.00000    
      7327 MEMB     41       POPE     HX       HDA2A    0.116000       1.00800           0   0.00000       0.00000    
      7328 MEMB     41       POPE     HY       HDA2A    0.116000       1.00800           0   0.00000       0.00000    
      7329 MEMB     41       POPE     O31      OD30CL    1.48470       15.5994           0 -0.732000      0.601000    
      7330 MEMB     41       POPE     DO31     DRUD     -1.48470      0.400000           0   0.00000       0.00000    
      7331 MEMB     41       POPE     C31      CD2O3B    2.72820       11.6110           0  -1.37000       1.74700    
      7332 MEMB     41       POPE     DC31     DRUD     -2.03120      0.400000           0   0.00000       0.00000    
      7333 MEMB     41       POPE     O32      OD2C3B    1.64990       15.5994           0 -0.904000      0.565000    
      7334 MEMB     41       POPE     DO32     DRUD     -1.64990      0.400000           0   0.00000       0.00000    
      7335 MEMB     41       POPE     C32      CD32C     2.24380       11.6110           0  -1.99300      0.410000    
      7336 MEMB     41       POPE     DC32     DRUD     -2.44980      0.400000           0   0.00000       0.00000    
      7337 MEMB     41       POPE     H2X      HDA2A    0.690000E-01   1.00800           0   0.00000       0.00000    
      7338 MEMB     41       POPE     H2Y      HDA2A    0.690000E-01   1.00800           0   0.00000       0.00000    
      7339 MEMB     41       POPE     LP1C     LPD     -0.349000       0.00000          -1   0.00000       0.00000    
      7340 MEMB     41       POPE     LP1D     LPD     -0.258000       0.00000          -1   0.00000       0.00000    
      7341 MEMB     41       POPE     LPMC     LPD     -0.170000       0.00000          -1   0.00000       0.00000    
      7342 MEMB     41       POPE     LPMD     LPD     -0.170000       0.00000          -1   0.00000       0.00000    
      7343 MEMB     41       POPE     C23      CD32A     2.07980       11.6110           0  -1.66000       1.30000    
      7344 MEMB     41       POPE     DC23     DRUD     -2.23580      0.400000           0   0.00000       0.00000    
      7345 MEMB     41       POPE     H3R      HDA2A    0.780000E-01   1.00800           0   0.00000       0.00000    
      7346 MEMB     41       POPE     H3S      HDA2A    0.780000E-01   1.00800           0   0.00000       0.00000    
      7347 MEMB     41       POPE     C24      CD32A     2.07980       11.6110           0  -1.66000       1.30000    
      7348 MEMB     41       POPE     DC24     DRUD     -2.23580      0.400000           0   0.00000       0.00000    
      7349 MEMB     41       POPE     H4R      HDA2A    0.780000E-01   1.00800           0   0.00000       0.00000    
      7350 MEMB     41       POPE     H4S      HDA2A    0.780000E-01   1.00800           0   0.00000       0.00000    
      7351 MEMB     41       POPE     C25      CD32A     2.07980       11.6110           0  -1.66000       1.30000    
      7352 MEMB     41       POPE     DC25     DRUD     -2.23580      0.400000           0   0.00000       0.00000    
      7353 MEMB     41       POPE     H5R      HDA2A    0.780000E-01   1.00800           0   0.00000       0.00000    
      7354 MEMB     41       POPE     H5S      HDA2A    0.780000E-01   1.00800           0   0.00000       0.00000    
      7355 MEMB     41       POPE     C26      CD32A     2.07980       11.6110           0  -1.66000       1.30000    
      7356 MEMB     41       POPE     DC26     DRUD     -2.23580      0.400000           0   0.00000       0.00000    
      7357 MEMB     41       POPE     H6R      HDA2A    0.780000E-01   1.00800           0   0.00000       0.00000    
      7358 MEMB     41       POPE     H6S      HDA2A    0.780000E-01   1.00800           0   0.00000       0.00000    
      7359 MEMB     41       POPE     C27      CD32A     2.07980       11.6110           0  -1.66000       1.30000    
      7360 MEMB     41       POPE     DC27     DRUD     -2.23580      0.400000           0   0.00000       0.00000    
      7361 MEMB     41       POPE     H7R      HDA2A    0.780000E-01   1.00800           0   0.00000       0.00000    
      7362 MEMB     41       POPE     H7S      HDA2A    0.780000E-01   1.00800           0   0.00000       0.00000    
      7363 MEMB     41       POPE     C28      CD32A     2.07980       11.6110           0  -1.66000       1.30000    
      7364 MEMB     41       POPE     DC28     DRUD     -2.23580      0.400000           0   0.00000       0.00000    
      7365 MEMB     41       POPE     H8R      HDA2A    0.780000E-01   1.00800           0   0.00000       0.00000    
      7366 MEMB     41       POPE     H8S      HDA2A    0.780000E-01   1.00800           0   0.00000       0.00000    
      7367 MEMB     41       POPE     C29      CD2C1A    2.33700       11.6110           0  -1.99000      0.750000    
      7368 MEMB     41       POPE     DC29     DRUD     -2.44800      0.400000           0   0.00000       0.00000    
      7369 MEMB     41       POPE     H91      HD2C1A   0.111000       1.00800           0   0.00000       0.00000    
      7370 MEMB     41       POPE     C210     CD2C1A    2.33700       11.6110           0  -1.99000      0.750000    
      7371 MEMB     41       POPE     DC210    DRUD     -2.44800      0.400000           0   0.00000       0.00000    
      7372 MEMB     41       POPE     H101     HD2C1A   0.111000       1.00800           0   0.00000       0.00000    
      7373 MEMB     41       POPE     C211     CD32A     2.07980       11.6110           0  -1.66000       1.30000    
      7374 MEMB     41       POPE     DC211    DRUD     -2.23580      0.400000           0   0.00000       0.00000    
      7375 MEMB     41       POPE     H11R     HDA2A    0.780000E-01   1.00800           0   0.00000       0.00000    
      7376 MEMB     41       POPE     H11S     HDA2A    0.780000E-01   1.00800           0   0.00000       0.00000    
      7377 MEMB     41       POPE     C212     CD32A     2.07980       11.6110           0  -1.66000       1.30000    
      7378 MEMB     41       POPE     DC212    DRUD     -2.23580      0.400000           0   0.00000       0.00000    
      7379 MEMB     41       POPE     H12R     HDA2A    0.780000E-01   1.00800           0   0.00000       0.00000    
      7380 MEMB     41       POPE     H12S     HDA2A    0.780000E-01   1.00800           0   0.00000       0.00000    
      7381 MEMB     41       POPE     C213     CD32A     2.07980       11.6110           0  -1.66000       1.30000    
      7382 MEMB     41       POPE     DC213    DRUD     -2.23580      0.400000           0   0.00000       0.00000    
      7383 MEMB     41       POPE     H13R     HDA2A    0.780000E-01   1.00800           0   0.00000       0.00000    
      7384 MEMB     41       POPE     H13S     HDA2A    0.780000E-01   1.00800           0   0.00000       0.00000    
      7385 MEMB     41       POPE     C214     CD32A     2.07980       11.6110           0  -1.66000       1.30000    
      7386 MEMB     41       POPE     DC214    DRUD     -2.23580      0.400000           0   0.00000       0.00000    
      7387 MEMB     41       POPE     H14R     HDA2A    0.780000E-01   1.00800           0   0.00000       0.00000    
      7388 MEMB     41       POPE     H14S     HDA2A    0.780000E-01   1.00800           0   0.00000       0.00000    
      7389 MEMB     41       POPE     C215     CD32A     2.07980       11.6110           0  -1.66000       1.30000    
      7390 MEMB     41       POPE     DC215    DRUD     -2.23580      0.400000           0   0.00000       0.00000    
      7391 MEMB     41       POPE     H15R     HDA2A    0.780000E-01   1.00800           0   0.00000       0.00000    
      7392 MEMB     41       POPE     H15S     HDA2A    0.780000E-01   1.00800           0   0.00000       0.00000    
      7393 MEMB     41       POPE     C216     CD32A     2.07980       11.6110           0  -1.66000       1.30000    
      7394 MEMB     41       POPE     DC216    DRUD     -2.23580      0.400000           0   0.00000       0.00000    
      7395 MEMB     41       POPE     H16R     HDA2A    0.780000E-01   1.00800           0   0.00000       0.00000    
      7396 MEMB     41       POPE     H16S     HDA2A    0.780000E-01   1.00800           0   0.00000       0.00000    
      7397 MEMB     41       POPE     C217     CD32A     2.07980       11.6110           0  -1.66000       1.30000    
      7398 MEMB     41       POPE     DC217    DRUD     -2.23580      0.400000           0   0.00000       0.00000    
      7399 MEMB     41       POPE     H17R     HDA2A    0.780000E-01   1.00800           0   0.00000       0.00000    
      7400 MEMB     41       POPE     H17S     HDA2A    0.780000E-01   1.00800           0   0.00000       0.00000    
      7401 MEMB     41       POPE     C218     CD33A     2.30820       11.6110           0  -2.05100       1.30000    
      7402 MEMB     41       POPE     DC218    DRUD     -2.48520      0.400000           0   0.00000       0.00000    
      7403 MEMB     41       POPE     H18R     HDA3A    0.590000E-01   1.00800           0   0.00000       0.00000    
      7404 MEMB     41       POPE     H18S     HDA3A    0.590000E-01   1.00800           0   0.00000       0.00000    
      7405 MEMB     41       POPE     H18T     HDA3A    0.590000E-01   1.00800           0   0.00000       0.00000    
      7406 MEMB     41       POPE     C33      CD32A     2.07980       11.6110           0  -1.66000       1.30000    
      7407 MEMB     41       POPE     DC33     DRUD     -2.23580      0.400000           0   0.00000       0.00000    
      7408 MEMB     41       POPE     H3X      HDA2A    0.780000E-01   1.00800           0   0.00000       0.00000    
      7409 MEMB     41       POPE     H3Y      HDA2A    0.780000E-01   1.00800           0   0.00000       0.00000    
      7410 MEMB     41       POPE     C34      CD32A     2.07980       11.6110           0  -1.66000       1.30000    
      7411 MEMB     41       POPE     DC34     DRUD     -2.23580      0.400000           0   0.00000       0.00000    
      7412 MEMB     41       POPE     H4X      HDA2A    0.780000E-01   1.00800           0   0.00000       0.00000    
      7413 MEMB     41       POPE     H4Y      HDA2A    0.780000E-01   1.00800           0   0.00000       0.00000    
      7414 MEMB     41       POPE     C35      CD32A     2.07980       11.6110           0  -1.66000       1.30000    
      7415 MEMB     41       POPE     DC35     DRUD     -2.23580      0.400000           0   0.00000       0.00000    
      7416 MEMB     41       POPE     H5X      HDA2A    0.780000E-01   1.00800           0   0.00000       0.00000    
      7417 MEMB     41       POPE     H5Y      HDA2A    0.780000E-01   1.00800           0   0.00000       0.00000    
      7418 MEMB     41       POPE     C36      CD32A     2.07980       11.6110           0  -1.66000       1.30000    
      7419 MEMB     41       POPE     DC36     DRUD     -2.23580      0.400000           0   0.00000       0.00000    
      7420 MEMB     41       POPE     H6X      HDA2A    0.780000E-01   1.00800           0   0.00000       0.00000    
      7421 MEMB     41       POPE     H6Y      HDA2A    0.780000E-01   1.00800           0   0.00000       0.00000    
      7422 MEMB     41       POPE     C37      CD32A     2.07980       11.6110           0  -1.66000       1.30000    
      7423 MEMB     41       POPE     DC37     DRUD     -2.23580      0.400000           0   0.00000       0.00000    
      7424 MEMB     41       POPE     H7X      HDA2A    0.780000E-01   1.00800           0   0.00000       0.00000    
      7425 MEMB     41       POPE     H7Y      HDA2A    0.780000E-01   1.00800           0   0.00000       0.00000    
      7426 MEMB     41       POPE     C38      CD32A     2.07980       11.6110           0  -1.66000       1.30000    
      7427 MEMB     41       POPE     DC38     DRUD     -2.23580      0.400000           0   0.00000       0.00000    
      7428 MEMB     41       POPE     H8X      HDA2A    0.780000E-01   1.00800           0   0.00000       0.00000    
      7429 MEMB     41       POPE     H8Y      HDA2A    0.780000E-01   1.00800           0   0.00000       0.00000    
      7430 MEMB     41       POPE     C39      CD32A     2.07980       11.6110           0  -1.66000       1.30000    
      7431 MEMB     41       POPE     DC39     DRUD     -2.23580      0.400000           0   0.00000       0.00000    
      7432 MEMB     41       POPE     H9X      HDA2A    0.780000E-01   1.00800           0   0.00000       0.00000    
      7433 MEMB     41       POPE     H9Y      HDA2A    0.780000E-01   1.00800           0   0.00000       0.00000    
      7434 MEMB     41       POPE     C310     CD32A     2.07980       11.6110           0  -1.66000       1.30000    
      7435 MEMB     41       POPE     DC310    DRUD     -2.23580      0.400000           0   0.00000       0.00000    
      7436 MEMB     41       POPE     H10X     HDA2A    0.780000E-01   1.00800           0   0.00000       0.00000    
      7437 MEMB     41       POPE     H10Y     HDA2A    0.780000E-01   1.00800           0   0.00000       0.00000    
      7438 MEMB     41       POPE     C311     CD32A     2.07980       11.6110           0  -1.66000       1.30000    
      7439 MEMB     41       POPE     DC311    DRUD     -2.23580      0.400000           0   0.00000       0.00000    
      7440 MEMB     41       POPE     H11X     HDA2A    0.780000E-01   1.00800           0   0.00000       0.00000    
      7441 MEMB     41       POPE     H11Y     HDA2A    0.780000E-01   1.00800           0   0.00000       0.00000    
      7442 MEMB     41       POPE     C312     CD32A     2.07980       11.6110           0  -1.66000       1.30000    
      7443 MEMB     41       POPE     DC312    DRUD     -2.23580      0.400000           0   0.00000       0.00000    
      7444 MEMB     41       POPE     H12X     HDA2A    0.780000E-01   1.00800           0   0.00000       0.00000    
      7445 MEMB     41       POPE     H12Y     HDA2A    0.780000E-01   1.00800           0   0.00000       0.00000    
      7446 MEMB     41       POPE     C313     CD32A     2.07980       11.6110           0  -1.66000       1.30000    
      7447 MEMB     41       POPE     DC313    DRUD     -2.23580      0.400000           0   0.00000       0.00000    
      7448 MEMB     41       POPE     H13X     HDA2A    0.780000E-01   1.00800           0   0.00000       0.00000    
      7449 MEMB     41       POPE     H13Y     HDA2A    0.780000E-01   1.00800           0   0.00000       0.00000    
      7450 MEMB     41       POPE     C314     CD32A     2.07980       11.6110           0  -1.66000       1.30000    
      7451 MEMB     41       POPE     DC314    DRUD     -2.23580      0.400000           0   0.00000       0.00000    
      7452 MEMB     41       POPE     H14X     HDA2A    0.780000E-01   1.00800           0   0.00000       0.00000    
      7453 MEMB     41       POPE     H14Y     HDA2A    0.780000E-01   1.00800           0   0.00000       0.00000    
      7454 MEMB     41       POPE     C315     CD32A     2.07980       11.6110           0  -1.66000       1.30000    
      7455 MEMB     41       POPE     DC315    DRUD     -2.23580      0.400000           0   0.00000       0.00000    
      7456 MEMB     41       POPE     H15X     HDA2A    0.780000E-01   1.00800           0   0.00000       0.00000    
      7457 MEMB     41       POPE     H15Y     HDA2A    0.780000E-01   1.00800           0   0.00000       0.00000    
      7458 MEMB     41       POPE     C316     CD33A     2.30820       11.6110           0  -2.05100       1.30000    
      7459 MEMB     41       POPE     DC316    DRUD     -2.48520      0.400000           0   0.00000       0.00000    
      7460 MEMB     41       POPE     H16X     HDA3A    0.590000E-01   1.00800           0   0.00000       0.00000    
      7461 MEMB     41       POPE     H16Y     HDA3A    0.590000E-01   1.00800           0   0.00000       0.00000    
      7462 MEMB     41       POPE     H16Z     HDA3A    0.590000E-01   1.00800           0   0.00000       0.00000    
      7463 MEMB     42       POPE     N        ND3P3A    1.62810       13.6070           0  -1.29800      0.895000    
      7464 MEMB     42       POPE     DN       DRUD     -1.97710      0.400000           0   0.00000       0.00000    
      7465 MEMB     42       POPE     HN1      HDP1B    0.340000       1.00800           0   0.00000       0.00000    
      7466 MEMB     42       POPE     HN2      HDP1B    0.340000       1.00800           0   0.00000       0.00000    
      7467 MEMB     42       POPE     HN3      HDP1B    0.340000       1.00800           0   0.00000       0.00000    
      7468 MEMB     42       POPE     C12      CD32A     2.27610       11.6110           0  -1.65600      0.895000    
      7469 MEMB     42       POPE     DC12     DRUD     -2.23310      0.400000           0   0.00000       0.00000    
      7470 MEMB     42       POPE     H12A     HDA2A    0.143000       1.00800           0   0.00000       0.00000    
      7471 MEMB     42       POPE     H12B     HDA2A    0.143000       1.00800           0   0.00000       0.00000    
      7472 MEMB     42       POPE     C11      CD32A     2.42220       11.6110           0  -1.64200      0.862000    
      7473 MEMB     42       POPE     DC11     DRUD     -2.22370      0.400000           0   0.00000       0.00000    
      7474 MEMB     42       POPE     H11A     HDA2A    0.260000E-01   1.00800           0   0.00000       0.00000    
      7475 MEMB     42       POPE     H11B     HDA2A    0.260000E-01   1.00800           0   0.00000       0.00000    
      7476 MEMB     42       POPE     P        PD1A      2.90360       30.5740           0 -0.974000       2.09800    
      7477 MEMB     42       POPE     DP       DRUD     -1.71260      0.400000           0   0.00000       0.00000    
      7478 MEMB     42       POPE     O13      OD2C2B   0.798400       15.5994           0 -0.931000       1.08300    
      7479 MEMB     42       POPE     DO13     DRUD     -1.67440      0.400000           0   0.00000       0.00000    
      7480 MEMB     42       POPE     O14      OD2C2B   0.798400       15.5994           0 -0.931000       1.08300    
      7481 MEMB     42       POPE     DO14     DRUD     -1.67440      0.400000           0   0.00000       0.00000    
      7482 MEMB     42       POPE     O11      OD30B     1.17720       15.5994           0 -0.901000      0.181000    
      7483 MEMB     42       POPE     DO11     DRUD     -1.64720      0.400000           0   0.00000       0.00000    
      7484 MEMB     42       POPE     O12      OD30B     1.17720       15.5994           0 -0.901000      0.181000    
      7485 MEMB     42       POPE     DO12     DRUD     -1.64720      0.400000           0   0.00000       0.00000    
      7486 MEMB     42       POPE     C1       CD32A     2.42220       11.6110           0  -1.64200      0.862000    
      7487 MEMB     42       POPE     DC1      DRUD     -2.22370      0.400000           0   0.00000       0.00000    
      7488 MEMB     42       POPE     HA       HDA2A    0.260000E-01   1.00800           0   0.00000       0.00000    
      7489 MEMB     42       POPE     HB       HDA2A    0.260000E-01   1.00800           0   0.00000       0.00000    
      7490 MEMB     42       POPE     C2       CD31C     2.52830       11.6110           0  -1.79700      0.410000    
      7491 MEMB     42       POPE     DC2      DRUD     -2.32630      0.400000           0   0.00000       0.00000    
      7492 MEMB     42       POPE     HS       HDA1A    0.116000       1.00800           0   0.00000       0.00000    
      7493 MEMB     42       POPE     O21      OD30CL    1.48470       15.5994           0 -0.732000      0.601000    
      7494 MEMB     42       POPE     DO21     DRUD     -1.48470      0.400000           0   0.00000       0.00000    
      7495 MEMB     42       POPE     C21      CD2O3B    2.72820       11.6110           0  -1.37000       1.74700    
      7496 MEMB     42       POPE     DC21     DRUD     -2.03120      0.400000           0   0.00000       0.00000    
      7497 MEMB     42       POPE     O22      OD2C3B    1.64990       15.5994           0 -0.904000      0.565000    
      7498 MEMB     42       POPE     DO22     DRUD     -1.64990      0.400000           0   0.00000       0.00000    
      7499 MEMB     42       POPE     C22      CD32C     2.24380       11.6110           0  -1.99300      0.410000    
      7500 MEMB     42       POPE     DC22     DRUD     -2.44980      0.400000           0   0.00000       0.00000    
      7501 MEMB     42       POPE     H2R      HDA2A    0.690000E-01   1.00800           0   0.00000       0.00000    
      7502 MEMB     42       POPE     H2S      HDA2A    0.690000E-01   1.00800           0   0.00000       0.00000    
      7503 MEMB     42       POPE     LP1A     LPD     -0.349000       0.00000          -1   0.00000       0.00000    
      7504 MEMB     42       POPE     LP1B     LPD     -0.258000       0.00000          -1   0.00000       0.00000    
      7505 MEMB     42       POPE     LPMA     LPD     -0.170000       0.00000          -1   0.00000       0.00000    
      7506 MEMB     42       POPE     LPMB     LPD     -0.170000       0.00000          -1   0.00000       0.00000    
      7507 MEMB     42       POPE     C3       CD32C     2.41230       11.6110           0  -1.79700      0.410000    
      7508 MEMB     42       POPE     DC3      DRUD     -2.32630      0.400000           0   0.00000       0.00000    
      7509 MEMB     42       POPE     HX       HDA2A    0.116000       1.00800           0   0.00000       0.00000    
      7510 MEMB     42       POPE     HY       HDA2A    0.116000       1.00800           0   0.00000       0.00000    
      7511 MEMB     42       POPE     O31      OD30CL    1.48470       15.5994           0 -0.732000      0.601000    
      7512 MEMB     42       POPE     DO31     DRUD     -1.48470      0.400000           0   0.00000       0.00000    
      7513 MEMB     42       POPE     C31      CD2O3B    2.72820       11.6110           0  -1.37000       1.74700    
      7514 MEMB     42       POPE     DC31     DRUD     -2.03120      0.400000           0   0.00000       0.00000    
      7515 MEMB     42       POPE     O32      OD2C3B    1.64990       15.5994           0 -0.904000      0.565000    
      7516 MEMB     42       POPE     DO32     DRUD     -1.64990      0.400000           0   0.00000       0.00000    
      7517 MEMB     42       POPE     C32      CD32C     2.24380       11.6110           0  -1.99300      0.410000    
      7518 MEMB     42       POPE     DC32     DRUD     -2.44980      0.400000           0   0.00000       0.00000    
      7519 MEMB     42       POPE     H2X      HDA2A    0.690000E-01   1.00800           0   0.00000       0.00000    
      7520 MEMB     42       POPE     H2Y      HDA2A    0.690000E-01   1.00800           0   0.00000       0.00000    
      7521 MEMB     42       POPE     LP1C     LPD     -0.349000       0.00000          -1   0.00000       0.00000    
      7522 MEMB     42       POPE     LP1D     LPD     -0.258000       0.00000          -1   0.00000       0.00000    
      7523 MEMB     42       POPE     LPMC     LPD     -0.170000       0.00000          -1   0.00000       0.00000    
      7524 MEMB     42       POPE     LPMD     LPD     -0.170000       0.00000          -1   0.00000       0.00000    
      7525 MEMB     42       POPE     C23      CD32A     2.07980       11.6110           0  -1.66000       1.30000    
      7526 MEMB     42       POPE     DC23     DRUD     -2.23580      0.400000           0   0.00000       0.00000    
      7527 MEMB     42       POPE     H3R      HDA2A    0.780000E-01   1.00800           0   0.00000       0.00000    
      7528 MEMB     42       POPE     H3S      HDA2A    0.780000E-01   1.00800           0   0.00000       0.00000    
      7529 MEMB     42       POPE     C24      CD32A     2.07980       11.6110           0  -1.66000       1.30000    
      7530 MEMB     42       POPE     DC24     DRUD     -2.23580      0.400000           0   0.00000       0.00000    
      7531 MEMB     42       POPE     H4R      HDA2A    0.780000E-01   1.00800           0   0.00000       0.00000    
      7532 MEMB     42       POPE     H4S      HDA2A    0.780000E-01   1.00800           0   0.00000       0.00000    
      7533 MEMB     42       POPE     C25      CD32A     2.07980       11.6110           0  -1.66000       1.30000    
      7534 MEMB     42       POPE     DC25     DRUD     -2.23580      0.400000           0   0.00000       0.00000    
      7535 MEMB     42       POPE     H5R      HDA2A    0.780000E-01   1.00800           0   0.00000       0.00000    
      7536 MEMB     42       POPE     H5S      HDA2A    0.780000E-01   1.00800           0   0.00000       0.00000    
      7537 MEMB     42       POPE     C26      CD32A     2.07980       11.6110           0  -1.66000       1.30000    
      7538 MEMB     42       POPE     DC26     DRUD     -2.23580      0.400000           0   0.00000       0.00000    
      7539 MEMB     42       POPE     H6R      HDA2A    0.780000E-01   1.00800           0   0.00000       0.00000    
      7540 MEMB     42       POPE     H6S      HDA2A    0.780000E-01   1.00800           0   0.00000       0.00000    
      7541 MEMB     42       POPE     C27      CD32A     2.07980       11.6110           0  -1.66000       1.30000    
      7542 MEMB     42       POPE     DC27     DRUD     -2.23580      0.400000           0   0.00000       0.00000    
      7543 MEMB     42       POPE     H7R      HDA2A    0.780000E-01   1.00800           0   0.00000       0.00000    
      7544 MEMB     42       POPE     H7S      HDA2A    0.780000E-01   1.00800           0   0.00000       0.00000    
      7545 MEMB     42       POPE     C28      CD32A     2.07980       11.6110           0  -1.66000       1.30000    
      7546 MEMB     42       POPE     DC28     DRUD     -2.23580      0.400000           0   0.00000       0.00000    
      7547 MEMB     42       POPE     H8R      HDA2A    0.780000E-01   1.00800           0   0.00000       0.00000    
      7548 MEMB     42       POPE     H8S      HDA2A    0.780000E-01   1.00800           0   0.00000       0.00000    
      7549 MEMB     42       POPE     C29      CD2C1A    2.33700       11.6110           0  -1.99000      0.750000    
      7550 MEMB     42       POPE     DC29     DRUD     -2.44800      0.400000           0   0.00000       0.00000    
      7551 MEMB     42       POPE     H91      HD2C1A   0.111000       1.00800           0   0.00000       0.00000    
      7552 MEMB     42       POPE     C210     CD2C1A    2.33700       11.6110           0  -1.99000      0.750000    
      7553 MEMB     42       POPE     DC210    DRUD     -2.44800      0.400000           0   0.00000       0.00000    
      7554 MEMB     42       POPE     H101     HD2C1A   0.111000       1.00800           0   0.00000       0.00000    
      7555 MEMB     42       POPE     C211     CD32A     2.07980       11.6110           0  -1.66000       1.30000    
      7556 MEMB     42       POPE     DC211    DRUD     -2.23580      0.400000           0   0.00000       0.00000    
      7557 MEMB     42       POPE     H11R     HDA2A    0.780000E-01   1.00800           0   0.00000       0.00000    
      7558 MEMB     42       POPE     H11S     HDA2A    0.780000E-01   1.00800           0   0.00000       0.00000    
      7559 MEMB     42       POPE     C212     CD32A     2.07980       11.6110           0  -1.66000       1.30000    
      7560 MEMB     42       POPE     DC212    DRUD     -2.23580      0.400000           0   0.00000       0.00000    
      7561 MEMB     42       POPE     H12R     HDA2A    0.780000E-01   1.00800           0   0.00000       0.00000    
      7562 MEMB     42       POPE     H12S     HDA2A    0.780000E-01   1.00800           0   0.00000       0.00000    
      7563 MEMB     42       POPE     C213     CD32A     2.07980       11.6110           0  -1.66000       1.30000    
      7564 MEMB     42       POPE     DC213    DRUD     -2.23580      0.400000           0   0.00000       0.00000    
      7565 MEMB     42       POPE     H13R     HDA2A    0.780000E-01   1.00800           0   0.00000       0.00000    
      7566 MEMB     42       POPE     H13S     HDA2A    0.780000E-01   1.00800           0   0.00000       0.00000    
      7567 MEMB     42       POPE     C214     CD32A     2.07980       11.6110           0  -1.66000       1.30000    
      7568 MEMB     42       POPE     DC214    DRUD     -2.23580      0.400000           0   0.00000       0.00000    
      7569 MEMB     42       POPE     H14R     HDA2A    0.780000E-01   1.00800           0   0.00000       0.00000    
      7570 MEMB     42       POPE     H14S     HDA2A    0.780000E-01   1.00800           0   0.00000       0.00000    
      7571 MEMB     42       POPE     C215     CD32A     2.07980       11.6110           0  -1.66000       1.30000    
      7572 MEMB     42       POPE     DC215    DRUD     -2.23580      0.400000           0   0.00000       0.00000    
      7573 MEMB     42       POPE     H15R     HDA2A    0.780000E-01   1.00800           0   0.00000       0.00000    
      7574 MEMB     42       POPE     H15S     HDA2A    0.780000E-01   1.00800           0   0.00000       0.00000    
      7575 MEMB     42       POPE     C216     CD32A     2.07980       11.6110           0  -1.66000       1.30000    
      7576 MEMB     42       POPE     DC216    DRUD     -2.23580      0.400000           0   0.00000       0.00000    
      7577 MEMB     42       POPE     H16R     HDA2A    0.780000E-01   1.00800           0   0.00000       0.00000    
      7578 MEMB     42       POPE     H16S     HDA2A    0.780000E-01   1.00800           0   0.00000       0.00000    
      7579 MEMB     42       POPE     C217     CD32A     2.07980       11.6110           0  -1.66000       1.30000    
      7580 MEMB     42       POPE     DC217    DRUD     -2.23580      0.400000           0   0.00000       0.00000    
      7581 MEMB     42       POPE     H17R     HDA2A    0.780000E-01   1.00800           0   0.00000       0.00000    
      7582 MEMB     42       POPE     H17S     HDA2A    0.780000E-01   1.00800           0   0.00000       0.00000    
      7583 MEMB     42       POPE     C218     CD33A     2.30820       11.6110           0  -2.05100       1.30000    
      7584 MEMB     42       POPE     DC218    DRUD     -2.48520      0.400000           0   0.00000       0.00000    
      7585 MEMB     42       POPE     H18R     HDA3A    0.590000E-01   1.00800           0   0.00000       0.00000    
      7586 MEMB     42       POPE     H18S     HDA3A    0.590000E-01   1.00800           0   0.00000       0.00000    
      7587 MEMB     42       POPE     H18T     HDA3A    0.590000E-01   1.00800           0   0.00000       0.00000    
      7588 MEMB     42       POPE     C33      CD32A     2.07980       11.6110           0  -1.66000       1.30000    
      7589 MEMB     42       POPE     DC33     DRUD     -2.23580      0.400000           0   0.00000       0.00000    
      7590 MEMB     42       POPE     H3X      HDA2A    0.780000E-01   1.00800           0   0.00000       0.00000    
      7591 MEMB     42       POPE     H3Y      HDA2A    0.780000E-01   1.00800           0   0.00000       0.00000    
      7592 MEMB     42       POPE     C34      CD32A     2.07980       11.6110           0  -1.66000       1.30000    
      7593 MEMB     42       POPE     DC34     DRUD     -2.23580      0.400000           0   0.00000       0.00000    
      7594 MEMB     42       POPE     H4X      HDA2A    0.780000E-01   1.00800           0   0.00000       0.00000    
      7595 MEMB     42       POPE     H4Y      HDA2A    0.780000E-01   1.00800           0   0.00000       0.00000    
      7596 MEMB     42       POPE     C35      CD32A     2.07980       11.6110           0  -1.66000       1.30000    
      7597 MEMB     42       POPE     DC35     DRUD     -2.23580      0.400000           0   0.00000       0.00000    
      7598 MEMB     42       POPE     H5X      HDA2A    0.780000E-01   1.00800           0   0.00000       0.00000    
      7599 MEMB     42       POPE     H5Y      HDA2A    0.780000E-01   1.00800           0   0.00000       0.00000    
      7600 MEMB     42       POPE     C36      CD32A     2.07980       11.6110           0  -1.66000       1.30000    
      7601 MEMB     42       POPE     DC36     DRUD     -2.23580      0.400000           0   0.00000       0.00000    
      7602 MEMB     42       POPE     H6X      HDA2A    0.780000E-01   1.00800           0   0.00000       0.00000    
      7603 MEMB     42       POPE     H6Y      HDA2A    0.780000E-01   1.00800           0   0.00000       0.00000    
      7604 MEMB     42       POPE     C37      CD32A     2.07980       11.6110           0  -1.66000       1.30000    
      7605 MEMB     42       POPE     DC37     DRUD     -2.23580      0.400000           0   0.00000       0.00000    
      7606 MEMB     42       POPE     H7X      HDA2A    0.780000E-01   1.00800           0   0.00000       0.00000    
      7607 MEMB     42       POPE     H7Y      HDA2A    0.780000E-01   1.00800           0   0.00000       0.00000    
      7608 MEMB     42       POPE     C38      CD32A     2.07980       11.6110           0  -1.66000       1.30000    
      7609 MEMB     42       POPE     DC38     DRUD     -2.23580      0.400000           0   0.00000       0.00000    
      7610 MEMB     42       POPE     H8X      HDA2A    0.780000E-01   1.00800           0   0.00000       0.00000    
      7611 MEMB     42       POPE     H8Y      HDA2A    0.780000E-01   1.00800           0   0.00000       0.00000    
      7612 MEMB     42       POPE     C39      CD32A     2.07980       11.6110           0  -1.66000       1.30000    
      7613 MEMB     42       POPE     DC39     DRUD     -2.23580      0.400000           0   0.00000       0.00000    
      7614 MEMB     42       POPE     H9X      HDA2A    0.780000E-01   1.00800           0   0.00000       0.00000    
      7615 MEMB     42       POPE     H9Y      HDA2A    0.780000E-01   1.00800           0   0.00000       0.00000    
      7616 MEMB     42       POPE     C310     CD32A     2.07980       11.6110           0  -1.66000       1.30000    
      7617 MEMB     42       POPE     DC310    DRUD     -2.23580      0.400000           0   0.00000       0.00000    
      7618 MEMB     42       POPE     H10X     HDA2A    0.780000E-01   1.00800           0   0.00000       0.00000    
      7619 MEMB     42       POPE     H10Y     HDA2A    0.780000E-01   1.00800           0   0.00000       0.00000    
      7620 MEMB     42       POPE     C311     CD32A     2.07980       11.6110           0  -1.66000       1.30000    
      7621 MEMB     42       POPE     DC311    DRUD     -2.23580      0.400000           0   0.00000       0.00000    
      7622 MEMB     42       POPE     H11X     HDA2A    0.780000E-01   1.00800           0   0.00000       0.00000    
      7623 MEMB     42       POPE     H11Y     HDA2A    0.780000E-01   1.00800           0   0.00000       0.00000    
      7624 MEMB     42       POPE     C312     CD32A     2.07980       11.6110           0  -1.66000       1.30000    
      7625 MEMB     42       POPE     DC312    DRUD     -2.23580      0.400000           0   0.00000       0.00000    
      7626 MEMB     42       POPE     H12X     HDA2A    0.780000E-01   1.00800           0   0.00000       0.00000    
      7627 MEMB     42       POPE     H12Y     HDA2A    0.780000E-01   1.00800           0   0.00000       0.00000    
      7628 MEMB     42       POPE     C313     CD32A     2.07980       11.6110           0  -1.66000       1.30000    
      7629 MEMB     42       POPE     DC313    DRUD     -2.23580      0.400000           0   0.00000       0.00000    
      7630 MEMB     42       POPE     H13X     HDA2A    0.780000E-01   1.00800           0   0.00000       0.00000    
      7631 MEMB     42       POPE     H13Y     HDA2A    0.780000E-01   1.00800           0   0.00000       0.00000    
      7632 MEMB     42       POPE     C314     CD32A     2.07980       11.6110           0  -1.66000       1.30000    
      7633 MEMB     42       POPE     DC314    DRUD     -2.23580      0.400000           0   0.00000       0.00000    
      7634 MEMB     42       POPE     H14X     HDA2A    0.780000E-01   1.00800           0   0.00000       0.00000    
      7635 MEMB     42       POPE     H14Y     HDA2A    0.780000E-01   1.00800           0   0.00000       0.00000    
      7636 MEMB     42       POPE     C315     CD32A     2.07980       11.6110           0  -1.66000       1.30000    
      7637 MEMB     42       POPE     DC315    DRUD     -2.23580      0.400000           0   0.00000       0.00000    
      7638 MEMB     42       POPE     H15X     HDA2A    0.780000E-01   1.00800           0   0.00000       0.00000    
      7639 MEMB     42       POPE     H15Y     HDA2A    0.780000E-01   1.00800           0   0.00000       0.00000    
      7640 MEMB     42       POPE     C316     CD33A     2.30820       11.6110           0  -2.05100       1.30000    
      7641 MEMB     42       POPE     DC316    DRUD     -2.48520      0.400000           0   0.00000       0.00000    
      7642 MEMB     42       POPE     H16X     HDA3A    0.590000E-01   1.00800           0   0.00000       0.00000    
      7643 MEMB     42       POPE     H16Y     HDA3A    0.590000E-01   1.00800           0   0.00000       0.00000    
      7644 MEMB     42       POPE     H16Z     HDA3A    0.590000E-01   1.00800           0   0.00000       0.00000    
      7645 MEMB     43       POPE     N        ND3P3A    1.62810       13.6070           0  -1.29800      0.895000    
      7646 MEMB     43       POPE     DN       DRUD     -1.97710      0.400000           0   0.00000       0.00000    
      7647 MEMB     43       POPE     HN1      HDP1B    0.340000       1.00800           0   0.00000       0.00000    
      7648 MEMB     43       POPE     HN2      HDP1B    0.340000       1.00800           0   0.00000       0.00000    
      7649 MEMB     43       POPE     HN3      HDP1B    0.340000       1.00800           0   0.00000       0.00000    
      7650 MEMB     43       POPE     C12      CD32A     2.27610       11.6110           0  -1.65600      0.895000    
      7651 MEMB     43       POPE     DC12     DRUD     -2.23310      0.400000           0   0.00000       0.00000    
      7652 MEMB     43       POPE     H12A     HDA2A    0.143000       1.00800           0   0.00000       0.00000    
      7653 MEMB     43       POPE     H12B     HDA2A    0.143000       1.00800           0   0.00000       0.00000    
      7654 MEMB     43       POPE     C11      CD32A     2.42220       11.6110           0  -1.64200      0.862000    
      7655 MEMB     43       POPE     DC11     DRUD     -2.22370      0.400000           0   0.00000       0.00000    
      7656 MEMB     43       POPE     H11A     HDA2A    0.260000E-01   1.00800           0   0.00000       0.00000    
      7657 MEMB     43       POPE     H11B     HDA2A    0.260000E-01   1.00800           0   0.00000       0.00000    
      7658 MEMB     43       POPE     P        PD1A      2.90360       30.5740           0 -0.974000       2.09800    
      7659 MEMB     43       POPE     DP       DRUD     -1.71260      0.400000           0   0.00000       0.00000    
      7660 MEMB     43       POPE     O13      OD2C2B   0.798400       15.5994           0 -0.931000       1.08300    
      7661 MEMB     43       POPE     DO13     DRUD     -1.67440      0.400000           0   0.00000       0.00000    
      7662 MEMB     43       POPE     O14      OD2C2B   0.798400       15.5994           0 -0.931000       1.08300    
      7663 MEMB     43       POPE     DO14     DRUD     -1.67440      0.400000           0   0.00000       0.00000    
      7664 MEMB     43       POPE     O11      OD30B     1.17720       15.5994           0 -0.901000      0.181000    
      7665 MEMB     43       POPE     DO11     DRUD     -1.64720      0.400000           0   0.00000       0.00000    
      7666 MEMB     43       POPE     O12      OD30B     1.17720       15.5994           0 -0.901000      0.181000    
      7667 MEMB     43       POPE     DO12     DRUD     -1.64720      0.400000           0   0.00000       0.00000    
      7668 MEMB     43       POPE     C1       CD32A     2.42220       11.6110           0  -1.64200      0.862000    
      7669 MEMB     43       POPE     DC1      DRUD     -2.22370      0.400000           0   0.00000       0.00000    
      7670 MEMB     43       POPE     HA       HDA2A    0.260000E-01   1.00800           0   0.00000       0.00000    
      7671 MEMB     43       POPE     HB       HDA2A    0.260000E-01   1.00800           0   0.00000       0.00000    
      7672 MEMB     43       POPE     C2       CD31C     2.52830       11.6110           0  -1.79700      0.410000    
      7673 MEMB     43       POPE     DC2      DRUD     -2.32630      0.400000           0   0.00000       0.00000    
      7674 MEMB     43       POPE     HS       HDA1A    0.116000       1.00800           0   0.00000       0.00000    
      7675 MEMB     43       POPE     O21      OD30CL    1.48470       15.5994           0 -0.732000      0.601000    
      7676 MEMB     43       POPE     DO21     DRUD     -1.48470      0.400000           0   0.00000       0.00000    
      7677 MEMB     43       POPE     C21      CD2O3B    2.72820       11.6110           0  -1.37000       1.74700    
      7678 MEMB     43       POPE     DC21     DRUD     -2.03120      0.400000           0   0.00000       0.00000    
      7679 MEMB     43       POPE     O22      OD2C3B    1.64990       15.5994           0 -0.904000      0.565000    
      7680 MEMB     43       POPE     DO22     DRUD     -1.64990      0.400000           0   0.00000       0.00000    
      7681 MEMB     43       POPE     C22      CD32C     2.24380       11.6110           0  -1.99300      0.410000    
      7682 MEMB     43       POPE     DC22     DRUD     -2.44980      0.400000           0   0.00000       0.00000    
      7683 MEMB     43       POPE     H2R      HDA2A    0.690000E-01   1.00800           0   0.00000       0.00000    
      7684 MEMB     43       POPE     H2S      HDA2A    0.690000E-01   1.00800           0   0.00000       0.00000    
      7685 MEMB     43       POPE     LP1A     LPD     -0.349000       0.00000          -1   0.00000       0.00000    
      7686 MEMB     43       POPE     LP1B     LPD     -0.258000       0.00000          -1   0.00000       0.00000    
      7687 MEMB     43       POPE     LPMA     LPD     -0.170000       0.00000          -1   0.00000       0.00000    
      7688 MEMB     43       POPE     LPMB     LPD     -0.170000       0.00000          -1   0.00000       0.00000    
      7689 MEMB     43       POPE     C3       CD32C     2.41230       11.6110           0  -1.79700      0.410000    
      7690 MEMB     43       POPE     DC3      DRUD     -2.32630      0.400000           0   0.00000       0.00000    
      7691 MEMB     43       POPE     HX       HDA2A    0.116000       1.00800           0   0.00000       0.00000    
      7692 MEMB     43       POPE     HY       HDA2A    0.116000       1.00800           0   0.00000       0.00000    
      7693 MEMB     43       POPE     O31      OD30CL    1.48470       15.5994           0 -0.732000      0.601000    
      7694 MEMB     43       POPE     DO31     DRUD     -1.48470      0.400000           0   0.00000       0.00000    
      7695 MEMB     43       POPE     C31      CD2O3B    2.72820       11.6110           0  -1.37000       1.74700    
      7696 MEMB     43       POPE     DC31     DRUD     -2.03120      0.400000           0   0.00000       0.00000    
      7697 MEMB     43       POPE     O32      OD2C3B    1.64990       15.5994           0 -0.904000      0.565000    
      7698 MEMB     43       POPE     DO32     DRUD     -1.64990      0.400000           0   0.00000       0.00000    
      7699 MEMB     43       POPE     C32      CD32C     2.24380       11.6110           0  -1.99300      0.410000    
      7700 MEMB     43       POPE     DC32     DRUD     -2.44980      0.400000           0   0.00000       0.00000    
      7701 MEMB     43       POPE     H2X      HDA2A    0.690000E-01   1.00800           0   0.00000       0.00000    
      7702 MEMB     43       POPE     H2Y      HDA2A    0.690000E-01   1.00800           0   0.00000       0.00000    
      7703 MEMB     43       POPE     LP1C     LPD     -0.349000       0.00000          -1   0.00000       0.00000    
      7704 MEMB     43       POPE     LP1D     LPD     -0.258000       0.00000          -1   0.00000       0.00000    
      7705 MEMB     43       POPE     LPMC     LPD     -0.170000       0.00000          -1   0.00000       0.00000    
      7706 MEMB     43       POPE     LPMD     LPD     -0.170000       0.00000          -1   0.00000       0.00000    
      7707 MEMB     43       POPE     C23      CD32A     2.07980       11.6110           0  -1.66000       1.30000    
      7708 MEMB     43       POPE     DC23     DRUD     -2.23580      0.400000           0   0.00000       0.00000    
      7709 MEMB     43       POPE     H3R      HDA2A    0.780000E-01   1.00800           0   0.00000       0.00000    
      7710 MEMB     43       POPE     H3S      HDA2A    0.780000E-01   1.00800           0   0.00000       0.00000    
      7711 MEMB     43       POPE     C24      CD32A     2.07980       11.6110           0  -1.66000       1.30000    
      7712 MEMB     43       POPE     DC24     DRUD     -2.23580      0.400000           0   0.00000       0.00000    
      7713 MEMB     43       POPE     H4R      HDA2A    0.780000E-01   1.00800           0   0.00000       0.00000    
      7714 MEMB     43       POPE     H4S      HDA2A    0.780000E-01   1.00800           0   0.00000       0.00000    
      7715 MEMB     43       POPE     C25      CD32A     2.07980       11.6110           0  -1.66000       1.30000    
      7716 MEMB     43       POPE     DC25     DRUD     -2.23580      0.400000           0   0.00000       0.00000    
      7717 MEMB     43       POPE     H5R      HDA2A    0.780000E-01   1.00800           0   0.00000       0.00000    
      7718 MEMB     43       POPE     H5S      HDA2A    0.780000E-01   1.00800           0   0.00000       0.00000    
      7719 MEMB     43       POPE     C26      CD32A     2.07980       11.6110           0  -1.66000       1.30000    
      7720 MEMB     43       POPE     DC26     DRUD     -2.23580      0.400000           0   0.00000       0.00000    
      7721 MEMB     43       POPE     H6R      HDA2A    0.780000E-01   1.00800           0   0.00000       0.00000    
      7722 MEMB     43       POPE     H6S      HDA2A    0.780000E-01   1.00800           0   0.00000       0.00000    
      7723 MEMB     43       POPE     C27      CD32A     2.07980       11.6110           0  -1.66000       1.30000    
      7724 MEMB     43       POPE     DC27     DRUD     -2.23580      0.400000           0   0.00000       0.00000    
      7725 MEMB     43       POPE     H7R      HDA2A    0.780000E-01   1.00800           0   0.00000       0.00000    
      7726 MEMB     43       POPE     H7S      HDA2A    0.780000E-01   1.00800           0   0.00000       0.00000    
      7727 MEMB     43       POPE     C28      CD32A     2.07980       11.6110           0  -1.66000       1.30000    
      7728 MEMB     43       POPE     DC28     DRUD     -2.23580      0.400000           0   0.00000       0.00000    
      7729 MEMB     43       POPE     H8R      HDA2A    0.780000E-01   1.00800           0   0.00000       0.00000    
      7730 MEMB     43       POPE     H8S      HDA2A    0.780000E-01   1.00800           0   0.00000       0.00000    
      7731 MEMB     43       POPE     C29      CD2C1A    2.33700       11.6110           0  -1.99000      0.750000    
      7732 MEMB     43       POPE     DC29     DRUD     -2.44800      0.400000           0   0.00000       0.00000    
      7733 MEMB     43       POPE     H91      HD2C1A   0.111000       1.00800           0   0.00000       0.00000    
      7734 MEMB     43       POPE     C210     CD2C1A    2.33700       11.6110           0  -1.99000      0.750000    
      7735 MEMB     43       POPE     DC210    DRUD     -2.44800      0.400000           0   0.00000       0.00000    
      7736 MEMB     43       POPE     H101     HD2C1A   0.111000       1.00800           0   0.00000       0.00000    
      7737 MEMB     43       POPE     C211     CD32A     2.07980       11.6110           0  -1.66000       1.30000    
      7738 MEMB     43       POPE     DC211    DRUD     -2.23580      0.400000           0   0.00000       0.00000    
      7739 MEMB     43       POPE     H11R     HDA2A    0.780000E-01   1.00800           0   0.00000       0.00000    
      7740 MEMB     43       POPE     H11S     HDA2A    0.780000E-01   1.00800           0   0.00000       0.00000    
      7741 MEMB     43       POPE     C212     CD32A     2.07980       11.6110           0  -1.66000       1.30000    
      7742 MEMB     43       POPE     DC212    DRUD     -2.23580      0.400000           0   0.00000       0.00000    
      7743 MEMB     43       POPE     H12R     HDA2A    0.780000E-01   1.00800           0   0.00000       0.00000    
      7744 MEMB     43       POPE     H12S     HDA2A    0.780000E-01   1.00800           0   0.00000       0.00000    
      7745 MEMB     43       POPE     C213     CD32A     2.07980       11.6110           0  -1.66000       1.30000    
      7746 MEMB     43       POPE     DC213    DRUD     -2.23580      0.400000           0   0.00000       0.00000    
      7747 MEMB     43       POPE     H13R     HDA2A    0.780000E-01   1.00800           0   0.00000       0.00000    
      7748 MEMB     43       POPE     H13S     HDA2A    0.780000E-01   1.00800           0   0.00000       0.00000    
      7749 MEMB     43       POPE     C214     CD32A     2.07980       11.6110           0  -1.66000       1.30000    
      7750 MEMB     43       POPE     DC214    DRUD     -2.23580      0.400000           0   0.00000       0.00000    
      7751 MEMB     43       POPE     H14R     HDA2A    0.780000E-01   1.00800           0   0.00000       0.00000    
      7752 MEMB     43       POPE     H14S     HDA2A    0.780000E-01   1.00800           0   0.00000       0.00000    
      7753 MEMB     43       POPE     C215     CD32A     2.07980       11.6110           0  -1.66000       1.30000    
      7754 MEMB     43       POPE     DC215    DRUD     -2.23580      0.400000           0   0.00000       0.00000    
      7755 MEMB     43       POPE     H15R     HDA2A    0.780000E-01   1.00800           0   0.00000       0.00000    
      7756 MEMB     43       POPE     H15S     HDA2A    0.780000E-01   1.00800           0   0.00000       0.00000    
      7757 MEMB     43       POPE     C216     CD32A     2.07980       11.6110           0  -1.66000       1.30000    
      7758 MEMB     43       POPE     DC216    DRUD     -2.23580      0.400000           0   0.00000       0.00000    
      7759 MEMB     43       POPE     H16R     HDA2A    0.780000E-01   1.00800           0   0.00000       0.00000    
      7760 MEMB     43       POPE     H16S     HDA2A    0.780000E-01   1.00800           0   0.00000       0.00000    
      7761 MEMB     43       POPE     C217     CD32A     2.07980       11.6110           0  -1.66000       1.30000    
      7762 MEMB     43       POPE     DC217    DRUD     -2.23580      0.400000           0   0.00000       0.00000    
      7763 MEMB     43       POPE     H17R     HDA2A    0.780000E-01   1.00800           0   0.00000       0.00000    
      7764 MEMB     43       POPE     H17S     HDA2A    0.780000E-01   1.00800           0   0.00000       0.00000    
      7765 MEMB     43       POPE     C218     CD33A     2.30820       11.6110           0  -2.05100       1.30000    
      7766 MEMB     43       POPE     DC218    DRUD     -2.48520      0.400000           0   0.00000       0.00000    
      7767 MEMB     43       POPE     H18R     HDA3A    0.590000E-01   1.00800           0   0.00000       0.00000    
      7768 MEMB     43       POPE     H18S     HDA3A    0.590000E-01   1.00800           0   0.00000       0.00000    
      7769 MEMB     43       POPE     H18T     HDA3A    0.590000E-01   1.00800           0   0.00000       0.00000    
      7770 MEMB     43       POPE     C33      CD32A     2.07980       11.6110           0  -1.66000       1.30000    
      7771 MEMB     43       POPE     DC33     DRUD     -2.23580      0.400000           0   0.00000       0.00000    
      7772 MEMB     43       POPE     H3X      HDA2A    0.780000E-01   1.00800           0   0.00000       0.00000    
      7773 MEMB     43       POPE     H3Y      HDA2A    0.780000E-01   1.00800           0   0.00000       0.00000    
      7774 MEMB     43       POPE     C34      CD32A     2.07980       11.6110           0  -1.66000       1.30000    
      7775 MEMB     43       POPE     DC34     DRUD     -2.23580      0.400000           0   0.00000       0.00000    
      7776 MEMB     43       POPE     H4X      HDA2A    0.780000E-01   1.00800           0   0.00000       0.00000    
      7777 MEMB     43       POPE     H4Y      HDA2A    0.780000E-01   1.00800           0   0.00000       0.00000    
      7778 MEMB     43       POPE     C35      CD32A     2.07980       11.6110           0  -1.66000       1.30000    
      7779 MEMB     43       POPE     DC35     DRUD     -2.23580      0.400000           0   0.00000       0.00000    
      7780 MEMB     43       POPE     H5X      HDA2A    0.780000E-01   1.00800           0   0.00000       0.00000    
      7781 MEMB     43       POPE     H5Y      HDA2A    0.780000E-01   1.00800           0   0.00000       0.00000    
      7782 MEMB     43       POPE     C36      CD32A     2.07980       11.6110           0  -1.66000       1.30000    
      7783 MEMB     43       POPE     DC36     DRUD     -2.23580      0.400000           0   0.00000       0.00000    
      7784 MEMB     43       POPE     H6X      HDA2A    0.780000E-01   1.00800           0   0.00000       0.00000    
      7785 MEMB     43       POPE     H6Y      HDA2A    0.780000E-01   1.00800           0   0.00000       0.00000    
      7786 MEMB     43       POPE     C37      CD32A     2.07980       11.6110           0  -1.66000       1.30000    
      7787 MEMB     43       POPE     DC37     DRUD     -2.23580      0.400000           0   0.00000       0.00000    
      7788 MEMB     43       POPE     H7X      HDA2A    0.780000E-01   1.00800           0   0.00000       0.00000    
      7789 MEMB     43       POPE     H7Y      HDA2A    0.780000E-01   1.00800           0   0.00000       0.00000    
      7790 MEMB     43       POPE     C38      CD32A     2.07980       11.6110           0  -1.66000       1.30000    
      7791 MEMB     43       POPE     DC38     DRUD     -2.23580      0.400000           0   0.00000       0.00000    
      7792 MEMB     43       POPE     H8X      HDA2A    0.780000E-01   1.00800           0   0.00000       0.00000    
      7793 MEMB     43       POPE     H8Y      HDA2A    0.780000E-01   1.00800           0   0.00000       0.00000    
      7794 MEMB     43       POPE     C39      CD32A     2.07980       11.6110           0  -1.66000       1.30000    
      7795 MEMB     43       POPE     DC39     DRUD     -2.23580      0.400000           0   0.00000       0.00000    
      7796 MEMB     43       POPE     H9X      HDA2A    0.780000E-01   1.00800           0   0.00000       0.00000    
      7797 MEMB     43       POPE     H9Y      HDA2A    0.780000E-01   1.00800           0   0.00000       0.00000    
      7798 MEMB     43       POPE     C310     CD32A     2.07980       11.6110           0  -1.66000       1.30000    
      7799 MEMB     43       POPE     DC310    DRUD     -2.23580      0.400000           0   0.00000       0.00000    
      7800 MEMB     43       POPE     H10X     HDA2A    0.780000E-01   1.00800           0   0.00000       0.00000    
      7801 MEMB     43       POPE     H10Y     HDA2A    0.780000E-01   1.00800           0   0.00000       0.00000    
      7802 MEMB     43       POPE     C311     CD32A     2.07980       11.6110           0  -1.66000       1.30000    
      7803 MEMB     43       POPE     DC311    DRUD     -2.23580      0.400000           0   0.00000       0.00000    
      7804 MEMB     43       POPE     H11X     HDA2A    0.780000E-01   1.00800           0   0.00000       0.00000    
      7805 MEMB     43       POPE     H11Y     HDA2A    0.780000E-01   1.00800           0   0.00000       0.00000    
      7806 MEMB     43       POPE     C312     CD32A     2.07980       11.6110           0  -1.66000       1.30000    
      7807 MEMB     43       POPE     DC312    DRUD     -2.23580      0.400000           0   0.00000       0.00000    
      7808 MEMB     43       POPE     H12X     HDA2A    0.780000E-01   1.00800           0   0.00000       0.00000    
      7809 MEMB     43       POPE     H12Y     HDA2A    0.780000E-01   1.00800           0   0.00000       0.00000    
      7810 MEMB     43       POPE     C313     CD32A     2.07980       11.6110           0  -1.66000       1.30000    
      7811 MEMB     43       POPE     DC313    DRUD     -2.23580      0.400000           0   0.00000       0.00000    
      7812 MEMB     43       POPE     H13X     HDA2A    0.780000E-01   1.00800           0   0.00000       0.00000    
      7813 MEMB     43       POPE     H13Y     HDA2A    0.780000E-01   1.00800           0   0.00000       0.00000    
      7814 MEMB     43       POPE     C314     CD32A     2.07980       11.6110           0  -1.66000       1.30000    
      7815 MEMB     43       POPE     DC314    DRUD     -2.23580      0.400000           0   0.00000       0.00000    
      7816 MEMB     43       POPE     H14X     HDA2A    0.780000E-01   1.00800           0   0.00000       0.00000    
      7817 MEMB     43       POPE     H14Y     HDA2A    0.780000E-01   1.00800           0   0.00000       0.00000    
      7818 MEMB     43       POPE     C315     CD32A     2.07980       11.6110           0  -1.66000       1.30000    
      7819 MEMB     43       POPE     DC315    DRUD     -2.23580      0.400000           0   0.00000       0.00000    
      7820 MEMB     43       POPE     H15X     HDA2A    0.780000E-01   1.00800           0   0.00000       0.00000    
      7821 MEMB     43       POPE     H15Y     HDA2A    0.780000E-01   1.00800           0   0.00000       0.00000    
      7822 MEMB     43       POPE     C316     CD33A     2.30820       11.6110           0  -2.05100       1.30000    
      7823 MEMB     43       POPE     DC316    DRUD     -2.48520      0.400000           0   0.00000       0.00000    
      7824 MEMB     43       POPE     H16X     HDA3A    0.590000E-01   1.00800           0   0.00000       0.00000    
      7825 MEMB     43       POPE     H16Y     HDA3A    0.590000E-01   1.00800           0   0.00000       0.00000    
      7826 MEMB     43       POPE     H16Z     HDA3A    0.590000E-01   1.00800           0   0.00000       0.00000    
      7827 MEMB     44       POPE     N        ND3P3A    1.62810       13.6070           0  -1.29800      0.895000    
      7828 MEMB     44       POPE     DN       DRUD     -1.97710      0.400000           0   0.00000       0.00000    
      7829 MEMB     44       POPE     HN1      HDP1B    0.340000       1.00800           0   0.00000       0.00000    
      7830 MEMB     44       POPE     HN2      HDP1B    0.340000       1.00800           0   0.00000       0.00000    
      7831 MEMB     44       POPE     HN3      HDP1B    0.340000       1.00800           0   0.00000       0.00000    
      7832 MEMB     44       POPE     C12      CD32A     2.27610       11.6110           0  -1.65600      0.895000    
      7833 MEMB     44       POPE     DC12     DRUD     -2.23310      0.400000           0   0.00000       0.00000    
      7834 MEMB     44       POPE     H12A     HDA2A    0.143000       1.00800           0   0.00000       0.00000    
      7835 MEMB     44       POPE     H12B     HDA2A    0.143000       1.00800           0   0.00000       0.00000    
      7836 MEMB     44       POPE     C11      CD32A     2.42220       11.6110           0  -1.64200      0.862000    
      7837 MEMB     44       POPE     DC11     DRUD     -2.22370      0.400000           0   0.00000       0.00000    
      7838 MEMB     44       POPE     H11A     HDA2A    0.260000E-01   1.00800           0   0.00000       0.00000    
      7839 MEMB     44       POPE     H11B     HDA2A    0.260000E-01   1.00800           0   0.00000       0.00000    
      7840 MEMB     44       POPE     P        PD1A      2.90360       30.5740           0 -0.974000       2.09800    
      7841 MEMB     44       POPE     DP       DRUD     -1.71260      0.400000           0   0.00000       0.00000    
      7842 MEMB     44       POPE     O13      OD2C2B   0.798400       15.5994           0 -0.931000       1.08300    
      7843 MEMB     44       POPE     DO13     DRUD     -1.67440      0.400000           0   0.00000       0.00000    
      7844 MEMB     44       POPE     O14      OD2C2B   0.798400       15.5994           0 -0.931000       1.08300    
      7845 MEMB     44       POPE     DO14     DRUD     -1.67440      0.400000           0   0.00000       0.00000    
      7846 MEMB     44       POPE     O11      OD30B     1.17720       15.5994           0 -0.901000      0.181000    
      7847 MEMB     44       POPE     DO11     DRUD     -1.64720      0.400000           0   0.00000       0.00000    
      7848 MEMB     44       POPE     O12      OD30B     1.17720       15.5994           0 -0.901000      0.181000    
      7849 MEMB     44       POPE     DO12     DRUD     -1.64720      0.400000           0   0.00000       0.00000    
      7850 MEMB     44       POPE     C1       CD32A     2.42220       11.6110           0  -1.64200      0.862000    
      7851 MEMB     44       POPE     DC1      DRUD     -2.22370      0.400000           0   0.00000       0.00000    
      7852 MEMB     44       POPE     HA       HDA2A    0.260000E-01   1.00800           0   0.00000       0.00000    
      7853 MEMB     44       POPE     HB       HDA2A    0.260000E-01   1.00800           0   0.00000       0.00000    
      7854 MEMB     44       POPE     C2       CD31C     2.52830       11.6110           0  -1.79700      0.410000    
      7855 MEMB     44       POPE     DC2      DRUD     -2.32630      0.400000           0   0.00000       0.00000    
      7856 MEMB     44       POPE     HS       HDA1A    0.116000       1.00800           0   0.00000       0.00000    
      7857 MEMB     44       POPE     O21      OD30CL    1.48470       15.5994           0 -0.732000      0.601000    
      7858 MEMB     44       POPE     DO21     DRUD     -1.48470      0.400000           0   0.00000       0.00000    
      7859 MEMB     44       POPE     C21      CD2O3B    2.72820       11.6110           0  -1.37000       1.74700    
      7860 MEMB     44       POPE     DC21     DRUD     -2.03120      0.400000           0   0.00000       0.00000    
      7861 MEMB     44       POPE     O22      OD2C3B    1.64990       15.5994           0 -0.904000      0.565000    
      7862 MEMB     44       POPE     DO22     DRUD     -1.64990      0.400000           0   0.00000       0.00000    
      7863 MEMB     44       POPE     C22      CD32C     2.24380       11.6110           0  -1.99300      0.410000    
      7864 MEMB     44       POPE     DC22     DRUD     -2.44980      0.400000           0   0.00000       0.00000    
      7865 MEMB     44       POPE     H2R      HDA2A    0.690000E-01   1.00800           0   0.00000       0.00000    
      7866 MEMB     44       POPE     H2S      HDA2A    0.690000E-01   1.00800           0   0.00000       0.00000    
      7867 MEMB     44       POPE     LP1A     LPD     -0.349000       0.00000          -1   0.00000       0.00000    
      7868 MEMB     44       POPE     LP1B     LPD     -0.258000       0.00000          -1   0.00000       0.00000    
      7869 MEMB     44       POPE     LPMA     LPD     -0.170000       0.00000          -1   0.00000       0.00000    
      7870 MEMB     44       POPE     LPMB     LPD     -0.170000       0.00000          -1   0.00000       0.00000    
      7871 MEMB     44       POPE     C3       CD32C     2.41230       11.6110           0  -1.79700      0.410000    
      7872 MEMB     44       POPE     DC3      DRUD     -2.32630      0.400000           0   0.00000       0.00000    
      7873 MEMB     44       POPE     HX       HDA2A    0.116000       1.00800           0   0.00000       0.00000    
      7874 MEMB     44       POPE     HY       HDA2A    0.116000       1.00800           0   0.00000       0.00000    
      7875 MEMB     44       POPE     O31      OD30CL    1.48470       15.5994           0 -0.732000      0.601000    
      7876 MEMB     44       POPE     DO31     DRUD     -1.48470      0.400000           0   0.00000       0.00000    
      7877 MEMB     44       POPE     C31      CD2O3B    2.72820       11.6110           0  -1.37000       1.74700    
      7878 MEMB     44       POPE     DC31     DRUD     -2.03120      0.400000           0   0.00000       0.00000    
      7879 MEMB     44       POPE     O32      OD2C3B    1.64990       15.5994           0 -0.904000      0.565000    
      7880 MEMB     44       POPE     DO32     DRUD     -1.64990      0.400000           0   0.00000       0.00000    
      7881 MEMB     44       POPE     C32      CD32C     2.24380       11.6110           0  -1.99300      0.410000    
      7882 MEMB     44       POPE     DC32     DRUD     -2.44980      0.400000           0   0.00000       0.00000    
      7883 MEMB     44       POPE     H2X      HDA2A    0.690000E-01   1.00800           0   0.00000       0.00000    
      7884 MEMB     44       POPE     H2Y      HDA2A    0.690000E-01   1.00800           0   0.00000       0.00000    
      7885 MEMB     44       POPE     LP1C     LPD     -0.349000       0.00000          -1   0.00000       0.00000    
      7886 MEMB     44       POPE     LP1D     LPD     -0.258000       0.00000          -1   0.00000       0.00000    
      7887 MEMB     44       POPE     LPMC     LPD     -0.170000       0.00000          -1   0.00000       0.00000    
      7888 MEMB     44       POPE     LPMD     LPD     -0.170000       0.00000          -1   0.00000       0.00000    
      7889 MEMB     44       POPE     C23      CD32A     2.07980       11.6110           0  -1.66000       1.30000    
      7890 MEMB     44       POPE     DC23     DRUD     -2.23580      0.400000           0   0.00000       0.00000    
      7891 MEMB     44       POPE     H3R      HDA2A    0.780000E-01   1.00800           0   0.00000       0.00000    
      7892 MEMB     44       POPE     H3S      HDA2A    0.780000E-01   1.00800           0   0.00000       0.00000    
      7893 MEMB     44       POPE     C24      CD32A     2.07980       11.6110           0  -1.66000       1.30000    
      7894 MEMB     44       POPE     DC24     DRUD     -2.23580      0.400000           0   0.00000       0.00000    
      7895 MEMB     44       POPE     H4R      HDA2A    0.780000E-01   1.00800           0   0.00000       0.00000    
      7896 MEMB     44       POPE     H4S      HDA2A    0.780000E-01   1.00800           0   0.00000       0.00000    
      7897 MEMB     44       POPE     C25      CD32A     2.07980       11.6110           0  -1.66000       1.30000    
      7898 MEMB     44       POPE     DC25     DRUD     -2.23580      0.400000           0   0.00000       0.00000    
      7899 MEMB     44       POPE     H5R      HDA2A    0.780000E-01   1.00800           0   0.00000       0.00000    
      7900 MEMB     44       POPE     H5S      HDA2A    0.780000E-01   1.00800           0   0.00000       0.00000    
      7901 MEMB     44       POPE     C26      CD32A     2.07980       11.6110           0  -1.66000       1.30000    
      7902 MEMB     44       POPE     DC26     DRUD     -2.23580      0.400000           0   0.00000       0.00000    
      7903 MEMB     44       POPE     H6R      HDA2A    0.780000E-01   1.00800           0   0.00000       0.00000    
      7904 MEMB     44       POPE     H6S      HDA2A    0.780000E-01   1.00800           0   0.00000       0.00000    
      7905 MEMB     44       POPE     C27      CD32A     2.07980       11.6110           0  -1.66000       1.30000    
      7906 MEMB     44       POPE     DC27     DRUD     -2.23580      0.400000           0   0.00000       0.00000    
      7907 MEMB     44       POPE     H7R      HDA2A    0.780000E-01   1.00800           0   0.00000       0.00000    
      7908 MEMB     44       POPE     H7S      HDA2A    0.780000E-01   1.00800           0   0.00000       0.00000    
      7909 MEMB     44       POPE     C28      CD32A     2.07980       11.6110           0  -1.66000       1.30000    
      7910 MEMB     44       POPE     DC28     DRUD     -2.23580      0.400000           0   0.00000       0.00000    
      7911 MEMB     44       POPE     H8R      HDA2A    0.780000E-01   1.00800           0   0.00000       0.00000    
      7912 MEMB     44       POPE     H8S      HDA2A    0.780000E-01   1.00800           0   0.00000       0.00000    
      7913 MEMB     44       POPE     C29      CD2C1A    2.33700       11.6110           0  -1.99000      0.750000    
      7914 MEMB     44       POPE     DC29     DRUD     -2.44800      0.400000           0   0.00000       0.00000    
      7915 MEMB     44       POPE     H91      HD2C1A   0.111000       1.00800           0   0.00000       0.00000    
      7916 MEMB     44       POPE     C210     CD2C1A    2.33700       11.6110           0  -1.99000      0.750000    
      7917 MEMB     44       POPE     DC210    DRUD     -2.44800      0.400000           0   0.00000       0.00000    
      7918 MEMB     44       POPE     H101     HD2C1A   0.111000       1.00800           0   0.00000       0.00000    
      7919 MEMB     44       POPE     C211     CD32A     2.07980       11.6110           0  -1.66000       1.30000    
      7920 MEMB     44       POPE     DC211    DRUD     -2.23580      0.400000           0   0.00000       0.00000    
      7921 MEMB     44       POPE     H11R     HDA2A    0.780000E-01   1.00800           0   0.00000       0.00000    
      7922 MEMB     44       POPE     H11S     HDA2A    0.780000E-01   1.00800           0   0.00000       0.00000    
      7923 MEMB     44       POPE     C212     CD32A     2.07980       11.6110           0  -1.66000       1.30000    
      7924 MEMB     44       POPE     DC212    DRUD     -2.23580      0.400000           0   0.00000       0.00000    
      7925 MEMB     44       POPE     H12R     HDA2A    0.780000E-01   1.00800           0   0.00000       0.00000    
      7926 MEMB     44       POPE     H12S     HDA2A    0.780000E-01   1.00800           0   0.00000       0.00000    
      7927 MEMB     44       POPE     C213     CD32A     2.07980       11.6110           0  -1.66000       1.30000    
      7928 MEMB     44       POPE     DC213    DRUD     -2.23580      0.400000           0   0.00000       0.00000    
      7929 MEMB     44       POPE     H13R     HDA2A    0.780000E-01   1.00800           0   0.00000       0.00000    
      7930 MEMB     44       POPE     H13S     HDA2A    0.780000E-01   1.00800           0   0.00000       0.00000    
      7931 MEMB     44       POPE     C214     CD32A     2.07980       11.6110           0  -1.66000       1.30000    
      7932 MEMB     44       POPE     DC214    DRUD     -2.23580      0.400000           0   0.00000       0.00000    
      7933 MEMB     44       POPE     H14R     HDA2A    0.780000E-01   1.00800           0   0.00000       0.00000    
      7934 MEMB     44       POPE     H14S     HDA2A    0.780000E-01   1.00800           0   0.00000       0.00000    
      7935 MEMB     44       POPE     C215     CD32A     2.07980       11.6110           0  -1.66000       1.30000    
      7936 MEMB     44       POPE     DC215    DRUD     -2.23580      0.400000           0   0.00000       0.00000    
      7937 MEMB     44       POPE     H15R     HDA2A    0.780000E-01   1.00800           0   0.00000       0.00000    
      7938 MEMB     44       POPE     H15S     HDA2A    0.780000E-01   1.00800           0   0.00000       0.00000    
      7939 MEMB     44       POPE     C216     CD32A     2.07980       11.6110           0  -1.66000       1.30000    
      7940 MEMB     44       POPE     DC216    DRUD     -2.23580      0.400000           0   0.00000       0.00000    
      7941 MEMB     44       POPE     H16R     HDA2A    0.780000E-01   1.00800           0   0.00000       0.00000    
      7942 MEMB     44       POPE     H16S     HDA2A    0.780000E-01   1.00800           0   0.00000       0.00000    
      7943 MEMB     44       POPE     C217     CD32A     2.07980       11.6110           0  -1.66000       1.30000    
      7944 MEMB     44       POPE     DC217    DRUD     -2.23580      0.400000           0   0.00000       0.00000    
      7945 MEMB     44       POPE     H17R     HDA2A    0.780000E-01   1.00800           0   0.00000       0.00000    
      7946 MEMB     44       POPE     H17S     HDA2A    0.780000E-01   1.00800           0   0.00000       0.00000    
      7947 MEMB     44       POPE     C218     CD33A     2.30820       11.6110           0  -2.05100       1.30000    
      7948 MEMB     44       POPE     DC218    DRUD     -2.48520      0.400000           0   0.00000       0.00000    
      7949 MEMB     44       POPE     H18R     HDA3A    0.590000E-01   1.00800           0   0.00000       0.00000    
      7950 MEMB     44       POPE     H18S     HDA3A    0.590000E-01   1.00800           0   0.00000       0.00000    
      7951 MEMB     44       POPE     H18T     HDA3A    0.590000E-01   1.00800           0   0.00000       0.00000    
      7952 MEMB     44       POPE     C33      CD32A     2.07980       11.6110           0  -1.66000       1.30000    
      7953 MEMB     44       POPE     DC33     DRUD     -2.23580      0.400000           0   0.00000       0.00000    
      7954 MEMB     44       POPE     H3X      HDA2A    0.780000E-01   1.00800           0   0.00000       0.00000    
      7955 MEMB     44       POPE     H3Y      HDA2A    0.780000E-01   1.00800           0   0.00000       0.00000    
      7956 MEMB     44       POPE     C34      CD32A     2.07980       11.6110           0  -1.66000       1.30000    
      7957 MEMB     44       POPE     DC34     DRUD     -2.23580      0.400000           0   0.00000       0.00000    
      7958 MEMB     44       POPE     H4X      HDA2A    0.780000E-01   1.00800           0   0.00000       0.00000    
      7959 MEMB     44       POPE     H4Y      HDA2A    0.780000E-01   1.00800           0   0.00000       0.00000    
      7960 MEMB     44       POPE     C35      CD32A     2.07980       11.6110           0  -1.66000       1.30000    
      7961 MEMB     44       POPE     DC35     DRUD     -2.23580      0.400000           0   0.00000       0.00000    
      7962 MEMB     44       POPE     H5X      HDA2A    0.780000E-01   1.00800           0   0.00000       0.00000    
      7963 MEMB     44       POPE     H5Y      HDA2A    0.780000E-01   1.00800           0   0.00000       0.00000    
      7964 MEMB     44       POPE     C36      CD32A     2.07980       11.6110           0  -1.66000       1.30000    
      7965 MEMB     44       POPE     DC36     DRUD     -2.23580      0.400000           0   0.00000       0.00000    
      7966 MEMB     44       POPE     H6X      HDA2A    0.780000E-01   1.00800           0   0.00000       0.00000    
      7967 MEMB     44       POPE     H6Y      HDA2A    0.780000E-01   1.00800           0   0.00000       0.00000    
      7968 MEMB     44       POPE     C37      CD32A     2.07980       11.6110           0  -1.66000       1.30000    
      7969 MEMB     44       POPE     DC37     DRUD     -2.23580      0.400000           0   0.00000       0.00000    
      7970 MEMB     44       POPE     H7X      HDA2A    0.780000E-01   1.00800           0   0.00000       0.00000    
      7971 MEMB     44       POPE     H7Y      HDA2A    0.780000E-01   1.00800           0   0.00000       0.00000    
      7972 MEMB     44       POPE     C38      CD32A     2.07980       11.6110           0  -1.66000       1.30000    
      7973 MEMB     44       POPE     DC38     DRUD     -2.23580      0.400000           0   0.00000       0.00000    
      7974 MEMB     44       POPE     H8X      HDA2A    0.780000E-01   1.00800           0   0.00000       0.00000    
      7975 MEMB     44       POPE     H8Y      HDA2A    0.780000E-01   1.00800           0   0.00000       0.00000    
      7976 MEMB     44       POPE     C39      CD32A     2.07980       11.6110           0  -1.66000       1.30000    
      7977 MEMB     44       POPE     DC39     DRUD     -2.23580      0.400000           0   0.00000       0.00000    
      7978 MEMB     44       POPE     H9X      HDA2A    0.780000E-01   1.00800           0   0.00000       0.00000    
      7979 MEMB     44       POPE     H9Y      HDA2A    0.780000E-01   1.00800           0   0.00000       0.00000    
      7980 MEMB     44       POPE     C310     CD32A     2.07980       11.6110           0  -1.66000       1.30000    
      7981 MEMB     44       POPE     DC310    DRUD     -2.23580      0.400000           0   0.00000       0.00000    
      7982 MEMB     44       POPE     H10X     HDA2A    0.780000E-01   1.00800           0   0.00000       0.00000    
      7983 MEMB     44       POPE     H10Y     HDA2A    0.780000E-01   1.00800           0   0.00000       0.00000    
      7984 MEMB     44       POPE     C311     CD32A     2.07980       11.6110           0  -1.66000       1.30000    
      7985 MEMB     44       POPE     DC311    DRUD     -2.23580      0.400000           0   0.00000       0.00000    
      7986 MEMB     44       POPE     H11X     HDA2A    0.780000E-01   1.00800           0   0.00000       0.00000    
      7987 MEMB     44       POPE     H11Y     HDA2A    0.780000E-01   1.00800           0   0.00000       0.00000    
      7988 MEMB     44       POPE     C312     CD32A     2.07980       11.6110           0  -1.66000       1.30000    
      7989 MEMB     44       POPE     DC312    DRUD     -2.23580      0.400000           0   0.00000       0.00000    
      7990 MEMB     44       POPE     H12X     HDA2A    0.780000E-01   1.00800           0   0.00000       0.00000    
      7991 MEMB     44       POPE     H12Y     HDA2A    0.780000E-01   1.00800           0   0.00000       0.00000    
      7992 MEMB     44       POPE     C313     CD32A     2.07980       11.6110           0  -1.66000       1.30000    
      7993 MEMB     44       POPE     DC313    DRUD     -2.23580      0.400000           0   0.00000       0.00000    
      7994 MEMB     44       POPE     H13X     HDA2A    0.780000E-01   1.00800           0   0.00000       0.00000    
      7995 MEMB     44       POPE     H13Y     HDA2A    0.780000E-01   1.00800           0   0.00000       0.00000    
      7996 MEMB     44       POPE     C314     CD32A     2.07980       11.6110           0  -1.66000       1.30000    
      7997 MEMB     44       POPE     DC314    DRUD     -2.23580      0.400000           0   0.00000       0.00000    
      7998 MEMB     44       POPE     H14X     HDA2A    0.780000E-01   1.00800           0   0.00000       0.00000    
      7999 MEMB     44       POPE     H14Y     HDA2A    0.780000E-01   1.00800           0   0.00000       0.00000    
      8000 MEMB     44       POPE     C315     CD32A     2.07980       11.6110           0  -1.66000       1.30000    
      8001 MEMB     44       POPE     DC315    DRUD     -2.23580      0.400000           0   0.00000       0.00000    
      8002 MEMB     44       POPE     H15X     HDA2A    0.780000E-01   1.00800           0   0.00000       0.00000    
      8003 MEMB     44       POPE     H15Y     HDA2A    0.780000E-01   1.00800           0   0.00000       0.00000    
      8004 MEMB     44       POPE     C316     CD33A     2.30820       11.6110           0  -2.05100       1.30000    
      8005 MEMB     44       POPE     DC316    DRUD     -2.48520      0.400000           0   0.00000       0.00000    
      8006 MEMB     44       POPE     H16X     HDA3A    0.590000E-01   1.00800           0   0.00000       0.00000    
      8007 MEMB     44       POPE     H16Y     HDA3A    0.590000E-01   1.00800           0   0.00000       0.00000    
      8008 MEMB     44       POPE     H16Z     HDA3A    0.590000E-01   1.00800           0   0.00000       0.00000    
      8009 MEMB     45       POPE     N        ND3P3A    1.62810       13.6070           0  -1.29800      0.895000    
      8010 MEMB     45       POPE     DN       DRUD     -1.97710      0.400000           0   0.00000       0.00000    
      8011 MEMB     45       POPE     HN1      HDP1B    0.340000       1.00800           0   0.00000       0.00000    
      8012 MEMB     45       POPE     HN2      HDP1B    0.340000       1.00800           0   0.00000       0.00000    
      8013 MEMB     45       POPE     HN3      HDP1B    0.340000       1.00800           0   0.00000       0.00000    
      8014 MEMB     45       POPE     C12      CD32A     2.27610       11.6110           0  -1.65600      0.895000    
      8015 MEMB     45       POPE     DC12     DRUD     -2.23310      0.400000           0   0.00000       0.00000    
      8016 MEMB     45       POPE     H12A     HDA2A    0.143000       1.00800           0   0.00000       0.00000    
      8017 MEMB     45       POPE     H12B     HDA2A    0.143000       1.00800           0   0.00000       0.00000    
      8018 MEMB     45       POPE     C11      CD32A     2.42220       11.6110           0  -1.64200      0.862000    
      8019 MEMB     45       POPE     DC11     DRUD     -2.22370      0.400000           0   0.00000       0.00000    
      8020 MEMB     45       POPE     H11A     HDA2A    0.260000E-01   1.00800           0   0.00000       0.00000    
      8021 MEMB     45       POPE     H11B     HDA2A    0.260000E-01   1.00800           0   0.00000       0.00000    
      8022 MEMB     45       POPE     P        PD1A      2.90360       30.5740           0 -0.974000       2.09800    
      8023 MEMB     45       POPE     DP       DRUD     -1.71260      0.400000           0   0.00000       0.00000    
      8024 MEMB     45       POPE     O13      OD2C2B   0.798400       15.5994           0 -0.931000       1.08300    
      8025 MEMB     45       POPE     DO13     DRUD     -1.67440      0.400000           0   0.00000       0.00000    
      8026 MEMB     45       POPE     O14      OD2C2B   0.798400       15.5994           0 -0.931000       1.08300    
      8027 MEMB     45       POPE     DO14     DRUD     -1.67440      0.400000           0   0.00000       0.00000    
      8028 MEMB     45       POPE     O11      OD30B     1.17720       15.5994           0 -0.901000      0.181000    
      8029 MEMB     45       POPE     DO11     DRUD     -1.64720      0.400000           0   0.00000       0.00000    
      8030 MEMB     45       POPE     O12      OD30B     1.17720       15.5994           0 -0.901000      0.181000    
      8031 MEMB     45       POPE     DO12     DRUD     -1.64720      0.400000           0   0.00000       0.00000    
      8032 MEMB     45       POPE     C1       CD32A     2.42220       11.6110           0  -1.64200      0.862000    
      8033 MEMB     45       POPE     DC1      DRUD     -2.22370      0.400000           0   0.00000       0.00000    
      8034 MEMB     45       POPE     HA       HDA2A    0.260000E-01   1.00800           0   0.00000       0.00000    
      8035 MEMB     45       POPE     HB       HDA2A    0.260000E-01   1.00800           0   0.00000       0.00000    
      8036 MEMB     45       POPE     C2       CD31C     2.52830       11.6110           0  -1.79700      0.410000    
      8037 MEMB     45       POPE     DC2      DRUD     -2.32630      0.400000           0   0.00000       0.00000    
      8038 MEMB     45       POPE     HS       HDA1A    0.116000       1.00800           0   0.00000       0.00000    
      8039 MEMB     45       POPE     O21      OD30CL    1.48470       15.5994           0 -0.732000      0.601000    
      8040 MEMB     45       POPE     DO21     DRUD     -1.48470      0.400000           0   0.00000       0.00000    
      8041 MEMB     45       POPE     C21      CD2O3B    2.72820       11.6110           0  -1.37000       1.74700    
      8042 MEMB     45       POPE     DC21     DRUD     -2.03120      0.400000           0   0.00000       0.00000    
      8043 MEMB     45       POPE     O22      OD2C3B    1.64990       15.5994           0 -0.904000      0.565000    
      8044 MEMB     45       POPE     DO22     DRUD     -1.64990      0.400000           0   0.00000       0.00000    
      8045 MEMB     45       POPE     C22      CD32C     2.24380       11.6110           0  -1.99300      0.410000    
      8046 MEMB     45       POPE     DC22     DRUD     -2.44980      0.400000           0   0.00000       0.00000    
      8047 MEMB     45       POPE     H2R      HDA2A    0.690000E-01   1.00800           0   0.00000       0.00000    
      8048 MEMB     45       POPE     H2S      HDA2A    0.690000E-01   1.00800           0   0.00000       0.00000    
      8049 MEMB     45       POPE     LP1A     LPD     -0.349000       0.00000          -1   0.00000       0.00000    
      8050 MEMB     45       POPE     LP1B     LPD     -0.258000       0.00000          -1   0.00000       0.00000    
      8051 MEMB     45       POPE     LPMA     LPD     -0.170000       0.00000          -1   0.00000       0.00000    
      8052 MEMB     45       POPE     LPMB     LPD     -0.170000       0.00000          -1   0.00000       0.00000    
      8053 MEMB     45       POPE     C3       CD32C     2.41230       11.6110           0  -1.79700      0.410000    
      8054 MEMB     45       POPE     DC3      DRUD     -2.32630      0.400000           0   0.00000       0.00000    
      8055 MEMB     45       POPE     HX       HDA2A    0.116000       1.00800           0   0.00000       0.00000    
      8056 MEMB     45       POPE     HY       HDA2A    0.116000       1.00800           0   0.00000       0.00000    
      8057 MEMB     45       POPE     O31      OD30CL    1.48470       15.5994           0 -0.732000      0.601000    
      8058 MEMB     45       POPE     DO31     DRUD     -1.48470      0.400000           0   0.00000       0.00000    
      8059 MEMB     45       POPE     C31      CD2O3B    2.72820       11.6110           0  -1.37000       1.74700    
      8060 MEMB     45       POPE     DC31     DRUD     -2.03120      0.400000           0   0.00000       0.00000    
      8061 MEMB     45       POPE     O32      OD2C3B    1.64990       15.5994           0 -0.904000      0.565000    
      8062 MEMB     45       POPE     DO32     DRUD     -1.64990      0.400000           0   0.00000       0.00000    
      8063 MEMB     45       POPE     C32      CD32C     2.24380       11.6110           0  -1.99300      0.410000    
      8064 MEMB     45       POPE     DC32     DRUD     -2.44980      0.400000           0   0.00000       0.00000    
      8065 MEMB     45       POPE     H2X      HDA2A    0.690000E-01   1.00800           0   0.00000       0.00000    
      8066 MEMB     45       POPE     H2Y      HDA2A    0.690000E-01   1.00800           0   0.00000       0.00000    
      8067 MEMB     45       POPE     LP1C     LPD     -0.349000       0.00000          -1   0.00000       0.00000    
      8068 MEMB     45       POPE     LP1D     LPD     -0.258000       0.00000          -1   0.00000       0.00000    
      8069 MEMB     45       POPE     LPMC     LPD     -0.170000       0.00000          -1   0.00000       0.00000    
      8070 MEMB     45       POPE     LPMD     LPD     -0.170000       0.00000          -1   0.00000       0.00000    
      8071 MEMB     45       POPE     C23      CD32A     2.07980       11.6110           0  -1.66000       1.30000    
      8072 MEMB     45       POPE     DC23     DRUD     -2.23580      0.400000           0   0.00000       0.00000    
      8073 MEMB     45       POPE     H3R      HDA2A    0.780000E-01   1.00800           0   0.00000       0.00000    
      8074 MEMB     45       POPE     H3S      HDA2A    0.780000E-01   1.00800           0   0.00000       0.00000    
      8075 MEMB     45       POPE     C24      CD32A     2.07980       11.6110           0  -1.66000       1.30000    
      8076 MEMB     45       POPE     DC24     DRUD     -2.23580      0.400000           0   0.00000       0.00000    
      8077 MEMB     45       POPE     H4R      HDA2A    0.780000E-01   1.00800           0   0.00000       0.00000    
      8078 MEMB     45       POPE     H4S      HDA2A    0.780000E-01   1.00800           0   0.00000       0.00000    
      8079 MEMB     45       POPE     C25      CD32A     2.07980       11.6110           0  -1.66000       1.30000    
      8080 MEMB     45       POPE     DC25     DRUD     -2.23580      0.400000           0   0.00000       0.00000    
      8081 MEMB     45       POPE     H5R      HDA2A    0.780000E-01   1.00800           0   0.00000       0.00000    
      8082 MEMB     45       POPE     H5S      HDA2A    0.780000E-01   1.00800           0   0.00000       0.00000    
      8083 MEMB     45       POPE     C26      CD32A     2.07980       11.6110           0  -1.66000       1.30000    
      8084 MEMB     45       POPE     DC26     DRUD     -2.23580      0.400000           0   0.00000       0.00000    
      8085 MEMB     45       POPE     H6R      HDA2A    0.780000E-01   1.00800           0   0.00000       0.00000    
      8086 MEMB     45       POPE     H6S      HDA2A    0.780000E-01   1.00800           0   0.00000       0.00000    
      8087 MEMB     45       POPE     C27      CD32A     2.07980       11.6110           0  -1.66000       1.30000    
      8088 MEMB     45       POPE     DC27     DRUD     -2.23580      0.400000           0   0.00000       0.00000    
      8089 MEMB     45       POPE     H7R      HDA2A    0.780000E-01   1.00800           0   0.00000       0.00000    
      8090 MEMB     45       POPE     H7S      HDA2A    0.780000E-01   1.00800           0   0.00000       0.00000    
      8091 MEMB     45       POPE     C28      CD32A     2.07980       11.6110           0  -1.66000       1.30000    
      8092 MEMB     45       POPE     DC28     DRUD     -2.23580      0.400000           0   0.00000       0.00000    
      8093 MEMB     45       POPE     H8R      HDA2A    0.780000E-01   1.00800           0   0.00000       0.00000    
      8094 MEMB     45       POPE     H8S      HDA2A    0.780000E-01   1.00800           0   0.00000       0.00000    
      8095 MEMB     45       POPE     C29      CD2C1A    2.33700       11.6110           0  -1.99000      0.750000    
      8096 MEMB     45       POPE     DC29     DRUD     -2.44800      0.400000           0   0.00000       0.00000    
      8097 MEMB     45       POPE     H91      HD2C1A   0.111000       1.00800           0   0.00000       0.00000    
      8098 MEMB     45       POPE     C210     CD2C1A    2.33700       11.6110           0  -1.99000      0.750000    
      8099 MEMB     45       POPE     DC210    DRUD     -2.44800      0.400000           0   0.00000       0.00000    
      8100 MEMB     45       POPE     H101     HD2C1A   0.111000       1.00800           0   0.00000       0.00000    
      8101 MEMB     45       POPE     C211     CD32A     2.07980       11.6110           0  -1.66000       1.30000    
      8102 MEMB     45       POPE     DC211    DRUD     -2.23580      0.400000           0   0.00000       0.00000    
      8103 MEMB     45       POPE     H11R     HDA2A    0.780000E-01   1.00800           0   0.00000       0.00000    
      8104 MEMB     45       POPE     H11S     HDA2A    0.780000E-01   1.00800           0   0.00000       0.00000    
      8105 MEMB     45       POPE     C212     CD32A     2.07980       11.6110           0  -1.66000       1.30000    
      8106 MEMB     45       POPE     DC212    DRUD     -2.23580      0.400000           0   0.00000       0.00000    
      8107 MEMB     45       POPE     H12R     HDA2A    0.780000E-01   1.00800           0   0.00000       0.00000    
      8108 MEMB     45       POPE     H12S     HDA2A    0.780000E-01   1.00800           0   0.00000       0.00000    
      8109 MEMB     45       POPE     C213     CD32A     2.07980       11.6110           0  -1.66000       1.30000    
      8110 MEMB     45       POPE     DC213    DRUD     -2.23580      0.400000           0   0.00000       0.00000    
      8111 MEMB     45       POPE     H13R     HDA2A    0.780000E-01   1.00800           0   0.00000       0.00000    
      8112 MEMB     45       POPE     H13S     HDA2A    0.780000E-01   1.00800           0   0.00000       0.00000    
      8113 MEMB     45       POPE     C214     CD32A     2.07980       11.6110           0  -1.66000       1.30000    
      8114 MEMB     45       POPE     DC214    DRUD     -2.23580      0.400000           0   0.00000       0.00000    
      8115 MEMB     45       POPE     H14R     HDA2A    0.780000E-01   1.00800           0   0.00000       0.00000    
      8116 MEMB     45       POPE     H14S     HDA2A    0.780000E-01   1.00800           0   0.00000       0.00000    
      8117 MEMB     45       POPE     C215     CD32A     2.07980       11.6110           0  -1.66000       1.30000    
      8118 MEMB     45       POPE     DC215    DRUD     -2.23580      0.400000           0   0.00000       0.00000    
      8119 MEMB     45       POPE     H15R     HDA2A    0.780000E-01   1.00800           0   0.00000       0.00000    
      8120 MEMB     45       POPE     H15S     HDA2A    0.780000E-01   1.00800           0   0.00000       0.00000    
      8121 MEMB     45       POPE     C216     CD32A     2.07980       11.6110           0  -1.66000       1.30000    
      8122 MEMB     45       POPE     DC216    DRUD     -2.23580      0.400000           0   0.00000       0.00000    
      8123 MEMB     45       POPE     H16R     HDA2A    0.780000E-01   1.00800           0   0.00000       0.00000    
      8124 MEMB     45       POPE     H16S     HDA2A    0.780000E-01   1.00800           0   0.00000       0.00000    
      8125 MEMB     45       POPE     C217     CD32A     2.07980       11.6110           0  -1.66000       1.30000    
      8126 MEMB     45       POPE     DC217    DRUD     -2.23580      0.400000           0   0.00000       0.00000    
      8127 MEMB     45       POPE     H17R     HDA2A    0.780000E-01   1.00800           0   0.00000       0.00000    
      8128 MEMB     45       POPE     H17S     HDA2A    0.780000E-01   1.00800           0   0.00000       0.00000    
      8129 MEMB     45       POPE     C218     CD33A     2.30820       11.6110           0  -2.05100       1.30000    
      8130 MEMB     45       POPE     DC218    DRUD     -2.48520      0.400000           0   0.00000       0.00000    
      8131 MEMB     45       POPE     H18R     HDA3A    0.590000E-01   1.00800           0   0.00000       0.00000    
      8132 MEMB     45       POPE     H18S     HDA3A    0.590000E-01   1.00800           0   0.00000       0.00000    
      8133 MEMB     45       POPE     H18T     HDA3A    0.590000E-01   1.00800           0   0.00000       0.00000    
      8134 MEMB     45       POPE     C33      CD32A     2.07980       11.6110           0  -1.66000       1.30000    
      8135 MEMB     45       POPE     DC33     DRUD     -2.23580      0.400000           0   0.00000       0.00000    
      8136 MEMB     45       POPE     H3X      HDA2A    0.780000E-01   1.00800           0   0.00000       0.00000    
      8137 MEMB     45       POPE     H3Y      HDA2A    0.780000E-01   1.00800           0   0.00000       0.00000    
      8138 MEMB     45       POPE     C34      CD32A     2.07980       11.6110           0  -1.66000       1.30000    
      8139 MEMB     45       POPE     DC34     DRUD     -2.23580      0.400000           0   0.00000       0.00000    
      8140 MEMB     45       POPE     H4X      HDA2A    0.780000E-01   1.00800           0   0.00000       0.00000    
      8141 MEMB     45       POPE     H4Y      HDA2A    0.780000E-01   1.00800           0   0.00000       0.00000    
      8142 MEMB     45       POPE     C35      CD32A     2.07980       11.6110           0  -1.66000       1.30000    
      8143 MEMB     45       POPE     DC35     DRUD     -2.23580      0.400000           0   0.00000       0.00000    
      8144 MEMB     45       POPE     H5X      HDA2A    0.780000E-01   1.00800           0   0.00000       0.00000    
      8145 MEMB     45       POPE     H5Y      HDA2A    0.780000E-01   1.00800           0   0.00000       0.00000    
      8146 MEMB     45       POPE     C36      CD32A     2.07980       11.6110           0  -1.66000       1.30000    
      8147 MEMB     45       POPE     DC36     DRUD     -2.23580      0.400000           0   0.00000       0.00000    
      8148 MEMB     45       POPE     H6X      HDA2A    0.780000E-01   1.00800           0   0.00000       0.00000    
      8149 MEMB     45       POPE     H6Y      HDA2A    0.780000E-01   1.00800           0   0.00000       0.00000    
      8150 MEMB     45       POPE     C37      CD32A     2.07980       11.6110           0  -1.66000       1.30000    
      8151 MEMB     45       POPE     DC37     DRUD     -2.23580      0.400000           0   0.00000       0.00000    
      8152 MEMB     45       POPE     H7X      HDA2A    0.780000E-01   1.00800           0   0.00000       0.00000    
      8153 MEMB     45       POPE     H7Y      HDA2A    0.780000E-01   1.00800           0   0.00000       0.00000    
      8154 MEMB     45       POPE     C38      CD32A     2.07980       11.6110           0  -1.66000       1.30000    
      8155 MEMB     45       POPE     DC38     DRUD     -2.23580      0.400000           0   0.00000       0.00000    
      8156 MEMB     45       POPE     H8X      HDA2A    0.780000E-01   1.00800           0   0.00000       0.00000    
      8157 MEMB     45       POPE     H8Y      HDA2A    0.780000E-01   1.00800           0   0.00000       0.00000    
      8158 MEMB     45       POPE     C39      CD32A     2.07980       11.6110           0  -1.66000       1.30000    
      8159 MEMB     45       POPE     DC39     DRUD     -2.23580      0.400000           0   0.00000       0.00000    
      8160 MEMB     45       POPE     H9X      HDA2A    0.780000E-01   1.00800           0   0.00000       0.00000    
      8161 MEMB     45       POPE     H9Y      HDA2A    0.780000E-01   1.00800           0   0.00000       0.00000    
      8162 MEMB     45       POPE     C310     CD32A     2.07980       11.6110           0  -1.66000       1.30000    
      8163 MEMB     45       POPE     DC310    DRUD     -2.23580      0.400000           0   0.00000       0.00000    
      8164 MEMB     45       POPE     H10X     HDA2A    0.780000E-01   1.00800           0   0.00000       0.00000    
      8165 MEMB     45       POPE     H10Y     HDA2A    0.780000E-01   1.00800           0   0.00000       0.00000    
      8166 MEMB     45       POPE     C311     CD32A     2.07980       11.6110           0  -1.66000       1.30000    
      8167 MEMB     45       POPE     DC311    DRUD     -2.23580      0.400000           0   0.00000       0.00000    
      8168 MEMB     45       POPE     H11X     HDA2A    0.780000E-01   1.00800           0   0.00000       0.00000    
      8169 MEMB     45       POPE     H11Y     HDA2A    0.780000E-01   1.00800           0   0.00000       0.00000    
      8170 MEMB     45       POPE     C312     CD32A     2.07980       11.6110           0  -1.66000       1.30000    
      8171 MEMB     45       POPE     DC312    DRUD     -2.23580      0.400000           0   0.00000       0.00000    
      8172 MEMB     45       POPE     H12X     HDA2A    0.780000E-01   1.00800           0   0.00000       0.00000    
      8173 MEMB     45       POPE     H12Y     HDA2A    0.780000E-01   1.00800           0   0.00000       0.00000    
      8174 MEMB     45       POPE     C313     CD32A     2.07980       11.6110           0  -1.66000       1.30000    
      8175 MEMB     45       POPE     DC313    DRUD     -2.23580      0.400000           0   0.00000       0.00000    
      8176 MEMB     45       POPE     H13X     HDA2A    0.780000E-01   1.00800           0   0.00000       0.00000    
      8177 MEMB     45       POPE     H13Y     HDA2A    0.780000E-01   1.00800           0   0.00000       0.00000    
      8178 MEMB     45       POPE     C314     CD32A     2.07980       11.6110           0  -1.66000       1.30000    
      8179 MEMB     45       POPE     DC314    DRUD     -2.23580      0.400000           0   0.00000       0.00000    
      8180 MEMB     45       POPE     H14X     HDA2A    0.780000E-01   1.00800           0   0.00000       0.00000    
      8181 MEMB     45       POPE     H14Y     HDA2A    0.780000E-01   1.00800           0   0.00000       0.00000    
      8182 MEMB     45       POPE     C315     CD32A     2.07980       11.6110           0  -1.66000       1.30000    
      8183 MEMB     45       POPE     DC315    DRUD     -2.23580      0.400000           0   0.00000       0.00000    
      8184 MEMB     45       POPE     H15X     HDA2A    0.780000E-01   1.00800           0   0.00000       0.00000    
      8185 MEMB     45       POPE     H15Y     HDA2A    0.780000E-01   1.00800           0   0.00000       0.00000    
      8186 MEMB     45       POPE     C316     CD33A     2.30820       11.6110           0  -2.05100       1.30000    
      8187 MEMB     45       POPE     DC316    DRUD     -2.48520      0.400000           0   0.00000       0.00000    
      8188 MEMB     45       POPE     H16X     HDA3A    0.590000E-01   1.00800           0   0.00000       0.00000    
      8189 MEMB     45       POPE     H16Y     HDA3A    0.590000E-01   1.00800           0   0.00000       0.00000    
      8190 MEMB     45       POPE     H16Z     HDA3A    0.590000E-01   1.00800           0   0.00000       0.00000    
      8191 MEMB     46       POPE     N        ND3P3A    1.62810       13.6070           0  -1.29800      0.895000    
      8192 MEMB     46       POPE     DN       DRUD     -1.97710      0.400000           0   0.00000       0.00000    
      8193 MEMB     46       POPE     HN1      HDP1B    0.340000       1.00800           0   0.00000       0.00000    
      8194 MEMB     46       POPE     HN2      HDP1B    0.340000       1.00800           0   0.00000       0.00000    
      8195 MEMB     46       POPE     HN3      HDP1B    0.340000       1.00800           0   0.00000       0.00000    
      8196 MEMB     46       POPE     C12      CD32A     2.27610       11.6110           0  -1.65600      0.895000    
      8197 MEMB     46       POPE     DC12     DRUD     -2.23310      0.400000           0   0.00000       0.00000    
      8198 MEMB     46       POPE     H12A     HDA2A    0.143000       1.00800           0   0.00000       0.00000    
      8199 MEMB     46       POPE     H12B     HDA2A    0.143000       1.00800           0   0.00000       0.00000    
      8200 MEMB     46       POPE     C11      CD32A     2.42220       11.6110           0  -1.64200      0.862000    
      8201 MEMB     46       POPE     DC11     DRUD     -2.22370      0.400000           0   0.00000       0.00000    
      8202 MEMB     46       POPE     H11A     HDA2A    0.260000E-01   1.00800           0   0.00000       0.00000    
      8203 MEMB     46       POPE     H11B     HDA2A    0.260000E-01   1.00800           0   0.00000       0.00000    
      8204 MEMB     46       POPE     P        PD1A      2.90360       30.5740           0 -0.974000       2.09800    
      8205 MEMB     46       POPE     DP       DRUD     -1.71260      0.400000           0   0.00000       0.00000    
      8206 MEMB     46       POPE     O13      OD2C2B   0.798400       15.5994           0 -0.931000       1.08300    
      8207 MEMB     46       POPE     DO13     DRUD     -1.67440      0.400000           0   0.00000       0.00000    
      8208 MEMB     46       POPE     O14      OD2C2B   0.798400       15.5994           0 -0.931000       1.08300    
      8209 MEMB     46       POPE     DO14     DRUD     -1.67440      0.400000           0   0.00000       0.00000    
      8210 MEMB     46       POPE     O11      OD30B     1.17720       15.5994           0 -0.901000      0.181000    
      8211 MEMB     46       POPE     DO11     DRUD     -1.64720      0.400000           0   0.00000       0.00000    
      8212 MEMB     46       POPE     O12      OD30B     1.17720       15.5994           0 -0.901000      0.181000    
      8213 MEMB     46       POPE     DO12     DRUD     -1.64720      0.400000           0   0.00000       0.00000    
      8214 MEMB     46       POPE     C1       CD32A     2.42220       11.6110           0  -1.64200      0.862000    
      8215 MEMB     46       POPE     DC1      DRUD     -2.22370      0.400000           0   0.00000       0.00000    
      8216 MEMB     46       POPE     HA       HDA2A    0.260000E-01   1.00800           0   0.00000       0.00000    
      8217 MEMB     46       POPE     HB       HDA2A    0.260000E-01   1.00800           0   0.00000       0.00000    
      8218 MEMB     46       POPE     C2       CD31C     2.52830       11.6110           0  -1.79700      0.410000    
      8219 MEMB     46       POPE     DC2      DRUD     -2.32630      0.400000           0   0.00000       0.00000    
      8220 MEMB     46       POPE     HS       HDA1A    0.116000       1.00800           0   0.00000       0.00000    
      8221 MEMB     46       POPE     O21      OD30CL    1.48470       15.5994           0 -0.732000      0.601000    
      8222 MEMB     46       POPE     DO21     DRUD     -1.48470      0.400000           0   0.00000       0.00000    
      8223 MEMB     46       POPE     C21      CD2O3B    2.72820       11.6110           0  -1.37000       1.74700    
      8224 MEMB     46       POPE     DC21     DRUD     -2.03120      0.400000           0   0.00000       0.00000    
      8225 MEMB     46       POPE     O22      OD2C3B    1.64990       15.5994           0 -0.904000      0.565000    
      8226 MEMB     46       POPE     DO22     DRUD     -1.64990      0.400000           0   0.00000       0.00000    
      8227 MEMB     46       POPE     C22      CD32C     2.24380       11.6110           0  -1.99300      0.410000    
      8228 MEMB     46       POPE     DC22     DRUD     -2.44980      0.400000           0   0.00000       0.00000    
      8229 MEMB     46       POPE     H2R      HDA2A    0.690000E-01   1.00800           0   0.00000       0.00000    
      8230 MEMB     46       POPE     H2S      HDA2A    0.690000E-01   1.00800           0   0.00000       0.00000    
      8231 MEMB     46       POPE     LP1A     LPD     -0.349000       0.00000          -1   0.00000       0.00000    
      8232 MEMB     46       POPE     LP1B     LPD     -0.258000       0.00000          -1   0.00000       0.00000    
      8233 MEMB     46       POPE     LPMA     LPD     -0.170000       0.00000          -1   0.00000       0.00000    
      8234 MEMB     46       POPE     LPMB     LPD     -0.170000       0.00000          -1   0.00000       0.00000    
      8235 MEMB     46       POPE     C3       CD32C     2.41230       11.6110           0  -1.79700      0.410000    
      8236 MEMB     46       POPE     DC3      DRUD     -2.32630      0.400000           0   0.00000       0.00000    
      8237 MEMB     46       POPE     HX       HDA2A    0.116000       1.00800           0   0.00000       0.00000    
      8238 MEMB     46       POPE     HY       HDA2A    0.116000       1.00800           0   0.00000       0.00000    
      8239 MEMB     46       POPE     O31      OD30CL    1.48470       15.5994           0 -0.732000      0.601000    
      8240 MEMB     46       POPE     DO31     DRUD     -1.48470      0.400000           0   0.00000       0.00000    
      8241 MEMB     46       POPE     C31      CD2O3B    2.72820       11.6110           0  -1.37000       1.74700    
      8242 MEMB     46       POPE     DC31     DRUD     -2.03120      0.400000           0   0.00000       0.00000    
      8243 MEMB     46       POPE     O32      OD2C3B    1.64990       15.5994           0 -0.904000      0.565000    
      8244 MEMB     46       POPE     DO32     DRUD     -1.64990      0.400000           0   0.00000       0.00000    
      8245 MEMB     46       POPE     C32      CD32C     2.24380       11.6110           0  -1.99300      0.410000    
      8246 MEMB     46       POPE     DC32     DRUD     -2.44980      0.400000           0   0.00000       0.00000    
      8247 MEMB     46       POPE     H2X      HDA2A    0.690000E-01   1.00800           0   0.00000       0.00000    
      8248 MEMB     46       POPE     H2Y      HDA2A    0.690000E-01   1.00800           0   0.00000       0.00000    
      8249 MEMB     46       POPE     LP1C     LPD     -0.349000       0.00000          -1   0.00000       0.00000    
      8250 MEMB     46       POPE     LP1D     LPD     -0.258000       0.00000          -1   0.00000       0.00000    
      8251 MEMB     46       POPE     LPMC     LPD     -0.170000       0.00000          -1   0.00000       0.00000    
      8252 MEMB     46       POPE     LPMD     LPD     -0.170000       0.00000          -1   0.00000       0.00000    
      8253 MEMB     46       POPE     C23      CD32A     2.07980       11.6110           0  -1.66000       1.30000    
      8254 MEMB     46       POPE     DC23     DRUD     -2.23580      0.400000           0   0.00000       0.00000    
      8255 MEMB     46       POPE     H3R      HDA2A    0.780000E-01   1.00800           0   0.00000       0.00000    
      8256 MEMB     46       POPE     H3S      HDA2A    0.780000E-01   1.00800           0   0.00000       0.00000    
      8257 MEMB     46       POPE     C24      CD32A     2.07980       11.6110           0  -1.66000       1.30000    
      8258 MEMB     46       POPE     DC24     DRUD     -2.23580      0.400000           0   0.00000       0.00000    
      8259 MEMB     46       POPE     H4R      HDA2A    0.780000E-01   1.00800           0   0.00000       0.00000    
      8260 MEMB     46       POPE     H4S      HDA2A    0.780000E-01   1.00800           0   0.00000       0.00000    
      8261 MEMB     46       POPE     C25      CD32A     2.07980       11.6110           0  -1.66000       1.30000    
      8262 MEMB     46       POPE     DC25     DRUD     -2.23580      0.400000           0   0.00000       0.00000    
      8263 MEMB     46       POPE     H5R      HDA2A    0.780000E-01   1.00800           0   0.00000       0.00000    
      8264 MEMB     46       POPE     H5S      HDA2A    0.780000E-01   1.00800           0   0.00000       0.00000    
      8265 MEMB     46       POPE     C26      CD32A     2.07980       11.6110           0  -1.66000       1.30000    
      8266 MEMB     46       POPE     DC26     DRUD     -2.23580      0.400000           0   0.00000       0.00000    
      8267 MEMB     46       POPE     H6R      HDA2A    0.780000E-01   1.00800           0   0.00000       0.00000    
      8268 MEMB     46       POPE     H6S      HDA2A    0.780000E-01   1.00800           0   0.00000       0.00000    
      8269 MEMB     46       POPE     C27      CD32A     2.07980       11.6110           0  -1.66000       1.30000    
      8270 MEMB     46       POPE     DC27     DRUD     -2.23580      0.400000           0   0.00000       0.00000    
      8271 MEMB     46       POPE     H7R      HDA2A    0.780000E-01   1.00800           0   0.00000       0.00000    
      8272 MEMB     46       POPE     H7S      HDA2A    0.780000E-01   1.00800           0   0.00000       0.00000    
      8273 MEMB     46       POPE     C28      CD32A     2.07980       11.6110           0  -1.66000       1.30000    
      8274 MEMB     46       POPE     DC28     DRUD     -2.23580      0.400000           0   0.00000       0.00000    
      8275 MEMB     46       POPE     H8R      HDA2A    0.780000E-01   1.00800           0   0.00000       0.00000    
      8276 MEMB     46       POPE     H8S      HDA2A    0.780000E-01   1.00800           0   0.00000       0.00000    
      8277 MEMB     46       POPE     C29      CD2C1A    2.33700       11.6110           0  -1.99000      0.750000    
      8278 MEMB     46       POPE     DC29     DRUD     -2.44800      0.400000           0   0.00000       0.00000    
      8279 MEMB     46       POPE     H91      HD2C1A   0.111000       1.00800           0   0.00000       0.00000    
      8280 MEMB     46       POPE     C210     CD2C1A    2.33700       11.6110           0  -1.99000      0.750000    
      8281 MEMB     46       POPE     DC210    DRUD     -2.44800      0.400000           0   0.00000       0.00000    
      8282 MEMB     46       POPE     H101     HD2C1A   0.111000       1.00800           0   0.00000       0.00000    
      8283 MEMB     46       POPE     C211     CD32A     2.07980       11.6110           0  -1.66000       1.30000    
      8284 MEMB     46       POPE     DC211    DRUD     -2.23580      0.400000           0   0.00000       0.00000    
      8285 MEMB     46       POPE     H11R     HDA2A    0.780000E-01   1.00800           0   0.00000       0.00000    
      8286 MEMB     46       POPE     H11S     HDA2A    0.780000E-01   1.00800           0   0.00000       0.00000    
      8287 MEMB     46       POPE     C212     CD32A     2.07980       11.6110           0  -1.66000       1.30000    
      8288 MEMB     46       POPE     DC212    DRUD     -2.23580      0.400000           0   0.00000       0.00000    
      8289 MEMB     46       POPE     H12R     HDA2A    0.780000E-01   1.00800           0   0.00000       0.00000    
      8290 MEMB     46       POPE     H12S     HDA2A    0.780000E-01   1.00800           0   0.00000       0.00000    
      8291 MEMB     46       POPE     C213     CD32A     2.07980       11.6110           0  -1.66000       1.30000    
      8292 MEMB     46       POPE     DC213    DRUD     -2.23580      0.400000           0   0.00000       0.00000    
      8293 MEMB     46       POPE     H13R     HDA2A    0.780000E-01   1.00800           0   0.00000       0.00000    
      8294 MEMB     46       POPE     H13S     HDA2A    0.780000E-01   1.00800           0   0.00000       0.00000    
      8295 MEMB     46       POPE     C214     CD32A     2.07980       11.6110           0  -1.66000       1.30000    
      8296 MEMB     46       POPE     DC214    DRUD     -2.23580      0.400000           0   0.00000       0.00000    
      8297 MEMB     46       POPE     H14R     HDA2A    0.780000E-01   1.00800           0   0.00000       0.00000    
      8298 MEMB     46       POPE     H14S     HDA2A    0.780000E-01   1.00800           0   0.00000       0.00000    
      8299 MEMB     46       POPE     C215     CD32A     2.07980       11.6110           0  -1.66000       1.30000    
      8300 MEMB     46       POPE     DC215    DRUD     -2.23580      0.400000           0   0.00000       0.00000    
      8301 MEMB     46       POPE     H15R     HDA2A    0.780000E-01   1.00800           0   0.00000       0.00000    
      8302 MEMB     46       POPE     H15S     HDA2A    0.780000E-01   1.00800           0   0.00000       0.00000    
      8303 MEMB     46       POPE     C216     CD32A     2.07980       11.6110           0  -1.66000       1.30000    
      8304 MEMB     46       POPE     DC216    DRUD     -2.23580      0.400000           0   0.00000       0.00000    
      8305 MEMB     46       POPE     H16R     HDA2A    0.780000E-01   1.00800           0   0.00000       0.00000    
      8306 MEMB     46       POPE     H16S     HDA2A    0.780000E-01   1.00800           0   0.00000       0.00000    
      8307 MEMB     46       POPE     C217     CD32A     2.07980       11.6110           0  -1.66000       1.30000    
      8308 MEMB     46       POPE     DC217    DRUD     -2.23580      0.400000           0   0.00000       0.00000    
      8309 MEMB     46       POPE     H17R     HDA2A    0.780000E-01   1.00800           0   0.00000       0.00000    
      8310 MEMB     46       POPE     H17S     HDA2A    0.780000E-01   1.00800           0   0.00000       0.00000    
      8311 MEMB     46       POPE     C218     CD33A     2.30820       11.6110           0  -2.05100       1.30000    
      8312 MEMB     46       POPE     DC218    DRUD     -2.48520      0.400000           0   0.00000       0.00000    
      8313 MEMB     46       POPE     H18R     HDA3A    0.590000E-01   1.00800           0   0.00000       0.00000    
      8314 MEMB     46       POPE     H18S     HDA3A    0.590000E-01   1.00800           0   0.00000       0.00000    
      8315 MEMB     46       POPE     H18T     HDA3A    0.590000E-01   1.00800           0   0.00000       0.00000    
      8316 MEMB     46       POPE     C33      CD32A     2.07980       11.6110           0  -1.66000       1.30000    
      8317 MEMB     46       POPE     DC33     DRUD     -2.23580      0.400000           0   0.00000       0.00000    
      8318 MEMB     46       POPE     H3X      HDA2A    0.780000E-01   1.00800           0   0.00000       0.00000    
      8319 MEMB     46       POPE     H3Y      HDA2A    0.780000E-01   1.00800           0   0.00000       0.00000    
      8320 MEMB     46       POPE     C34      CD32A     2.07980       11.6110           0  -1.66000       1.30000    
      8321 MEMB     46       POPE     DC34     DRUD     -2.23580      0.400000           0   0.00000       0.00000    
      8322 MEMB     46       POPE     H4X      HDA2A    0.780000E-01   1.00800           0   0.00000       0.00000    
      8323 MEMB     46       POPE     H4Y      HDA2A    0.780000E-01   1.00800           0   0.00000       0.00000    
      8324 MEMB     46       POPE     C35      CD32A     2.07980       11.6110           0  -1.66000       1.30000    
      8325 MEMB     46       POPE     DC35     DRUD     -2.23580      0.400000           0   0.00000       0.00000    
      8326 MEMB     46       POPE     H5X      HDA2A    0.780000E-01   1.00800           0   0.00000       0.00000    
      8327 MEMB     46       POPE     H5Y      HDA2A    0.780000E-01   1.00800           0   0.00000       0.00000    
      8328 MEMB     46       POPE     C36      CD32A     2.07980       11.6110           0  -1.66000       1.30000    
      8329 MEMB     46       POPE     DC36     DRUD     -2.23580      0.400000           0   0.00000       0.00000    
      8330 MEMB     46       POPE     H6X      HDA2A    0.780000E-01   1.00800           0   0.00000       0.00000    
      8331 MEMB     46       POPE     H6Y      HDA2A    0.780000E-01   1.00800           0   0.00000       0.00000    
      8332 MEMB     46       POPE     C37      CD32A     2.07980       11.6110           0  -1.66000       1.30000    
      8333 MEMB     46       POPE     DC37     DRUD     -2.23580      0.400000           0   0.00000       0.00000    
      8334 MEMB     46       POPE     H7X      HDA2A    0.780000E-01   1.00800           0   0.00000       0.00000    
      8335 MEMB     46       POPE     H7Y      HDA2A    0.780000E-01   1.00800           0   0.00000       0.00000    
      8336 MEMB     46       POPE     C38      CD32A     2.07980       11.6110           0  -1.66000       1.30000    
      8337 MEMB     46       POPE     DC38     DRUD     -2.23580      0.400000           0   0.00000       0.00000    
      8338 MEMB     46       POPE     H8X      HDA2A    0.780000E-01   1.00800           0   0.00000       0.00000    
      8339 MEMB     46       POPE     H8Y      HDA2A    0.780000E-01   1.00800           0   0.00000       0.00000    
      8340 MEMB     46       POPE     C39      CD32A     2.07980       11.6110           0  -1.66000       1.30000    
      8341 MEMB     46       POPE     DC39     DRUD     -2.23580      0.400000           0   0.00000       0.00000    
      8342 MEMB     46       POPE     H9X      HDA2A    0.780000E-01   1.00800           0   0.00000       0.00000    
      8343 MEMB     46       POPE     H9Y      HDA2A    0.780000E-01   1.00800           0   0.00000       0.00000    
      8344 MEMB     46       POPE     C310     CD32A     2.07980       11.6110           0  -1.66000       1.30000    
      8345 MEMB     46       POPE     DC310    DRUD     -2.23580      0.400000           0   0.00000       0.00000    
      8346 MEMB     46       POPE     H10X     HDA2A    0.780000E-01   1.00800           0   0.00000       0.00000    
      8347 MEMB     46       POPE     H10Y     HDA2A    0.780000E-01   1.00800           0   0.00000       0.00000    
      8348 MEMB     46       POPE     C311     CD32A     2.07980       11.6110           0  -1.66000       1.30000    
      8349 MEMB     46       POPE     DC311    DRUD     -2.23580      0.400000           0   0.00000       0.00000    
      8350 MEMB     46       POPE     H11X     HDA2A    0.780000E-01   1.00800           0   0.00000       0.00000    
      8351 MEMB     46       POPE     H11Y     HDA2A    0.780000E-01   1.00800           0   0.00000       0.00000    
      8352 MEMB     46       POPE     C312     CD32A     2.07980       11.6110           0  -1.66000       1.30000    
      8353 MEMB     46       POPE     DC312    DRUD     -2.23580      0.400000           0   0.00000       0.00000    
      8354 MEMB     46       POPE     H12X     HDA2A    0.780000E-01   1.00800           0   0.00000       0.00000    
      8355 MEMB     46       POPE     H12Y     HDA2A    0.780000E-01   1.00800           0   0.00000       0.00000    
      8356 MEMB     46       POPE     C313     CD32A     2.07980       11.6110           0  -1.66000       1.30000    
      8357 MEMB     46       POPE     DC313    DRUD     -2.23580      0.400000           0   0.00000       0.00000    
      8358 MEMB     46       POPE     H13X     HDA2A    0.780000E-01   1.00800           0   0.00000       0.00000    
      8359 MEMB     46       POPE     H13Y     HDA2A    0.780000E-01   1.00800           0   0.00000       0.00000    
      8360 MEMB     46       POPE     C314     CD32A     2.07980       11.6110           0  -1.66000       1.30000    
      8361 MEMB     46       POPE     DC314    DRUD     -2.23580      0.400000           0   0.00000       0.00000    
      8362 MEMB     46       POPE     H14X     HDA2A    0.780000E-01   1.00800           0   0.00000       0.00000    
      8363 MEMB     46       POPE     H14Y     HDA2A    0.780000E-01   1.00800           0   0.00000       0.00000    
      8364 MEMB     46       POPE     C315     CD32A     2.07980       11.6110           0  -1.66000       1.30000    
      8365 MEMB     46       POPE     DC315    DRUD     -2.23580      0.400000           0   0.00000       0.00000    
      8366 MEMB     46       POPE     H15X     HDA2A    0.780000E-01   1.00800           0   0.00000       0.00000    
      8367 MEMB     46       POPE     H15Y     HDA2A    0.780000E-01   1.00800           0   0.00000       0.00000    
      8368 MEMB     46       POPE     C316     CD33A     2.30820       11.6110           0  -2.05100       1.30000    
      8369 MEMB     46       POPE     DC316    DRUD     -2.48520      0.400000           0   0.00000       0.00000    
      8370 MEMB     46       POPE     H16X     HDA3A    0.590000E-01   1.00800           0   0.00000       0.00000    
      8371 MEMB     46       POPE     H16Y     HDA3A    0.590000E-01   1.00800           0   0.00000       0.00000    
      8372 MEMB     46       POPE     H16Z     HDA3A    0.590000E-01   1.00800           0   0.00000       0.00000    
      8373 MEMB     47       POPE     N        ND3P3A    1.62810       13.6070           0  -1.29800      0.895000    
      8374 MEMB     47       POPE     DN       DRUD     -1.97710      0.400000           0   0.00000       0.00000    
      8375 MEMB     47       POPE     HN1      HDP1B    0.340000       1.00800           0   0.00000       0.00000    
      8376 MEMB     47       POPE     HN2      HDP1B    0.340000       1.00800           0   0.00000       0.00000    
      8377 MEMB     47       POPE     HN3      HDP1B    0.340000       1.00800           0   0.00000       0.00000    
      8378 MEMB     47       POPE     C12      CD32A     2.27610       11.6110           0  -1.65600      0.895000    
      8379 MEMB     47       POPE     DC12     DRUD     -2.23310      0.400000           0   0.00000       0.00000    
      8380 MEMB     47       POPE     H12A     HDA2A    0.143000       1.00800           0   0.00000       0.00000    
      8381 MEMB     47       POPE     H12B     HDA2A    0.143000       1.00800           0   0.00000       0.00000    
      8382 MEMB     47       POPE     C11      CD32A     2.42220       11.6110           0  -1.64200      0.862000    
      8383 MEMB     47       POPE     DC11     DRUD     -2.22370      0.400000           0   0.00000       0.00000    
      8384 MEMB     47       POPE     H11A     HDA2A    0.260000E-01   1.00800           0   0.00000       0.00000    
      8385 MEMB     47       POPE     H11B     HDA2A    0.260000E-01   1.00800           0   0.00000       0.00000    
      8386 MEMB     47       POPE     P        PD1A      2.90360       30.5740           0 -0.974000       2.09800    
      8387 MEMB     47       POPE     DP       DRUD     -1.71260      0.400000           0   0.00000       0.00000    
      8388 MEMB     47       POPE     O13      OD2C2B   0.798400       15.5994           0 -0.931000       1.08300    
      8389 MEMB     47       POPE     DO13     DRUD     -1.67440      0.400000           0   0.00000       0.00000    
      8390 MEMB     47       POPE     O14      OD2C2B   0.798400       15.5994           0 -0.931000       1.08300    
      8391 MEMB     47       POPE     DO14     DRUD     -1.67440      0.400000           0   0.00000       0.00000    
      8392 MEMB     47       POPE     O11      OD30B     1.17720       15.5994           0 -0.901000      0.181000    
      8393 MEMB     47       POPE     DO11     DRUD     -1.64720      0.400000           0   0.00000       0.00000    
      8394 MEMB     47       POPE     O12      OD30B     1.17720       15.5994           0 -0.901000      0.181000    
      8395 MEMB     47       POPE     DO12     DRUD     -1.64720      0.400000           0   0.00000       0.00000    
      8396 MEMB     47       POPE     C1       CD32A     2.42220       11.6110           0  -1.64200      0.862000    
      8397 MEMB     47       POPE     DC1      DRUD     -2.22370      0.400000           0   0.00000       0.00000    
      8398 MEMB     47       POPE     HA       HDA2A    0.260000E-01   1.00800           0   0.00000       0.00000    
      8399 MEMB     47       POPE     HB       HDA2A    0.260000E-01   1.00800           0   0.00000       0.00000    
      8400 MEMB     47       POPE     C2       CD31C     2.52830       11.6110           0  -1.79700      0.410000    
      8401 MEMB     47       POPE     DC2      DRUD     -2.32630      0.400000           0   0.00000       0.00000    
      8402 MEMB     47       POPE     HS       HDA1A    0.116000       1.00800           0   0.00000       0.00000    
      8403 MEMB     47       POPE     O21      OD30CL    1.48470       15.5994           0 -0.732000      0.601000    
      8404 MEMB     47       POPE     DO21     DRUD     -1.48470      0.400000           0   0.00000       0.00000    
      8405 MEMB     47       POPE     C21      CD2O3B    2.72820       11.6110           0  -1.37000       1.74700    
      8406 MEMB     47       POPE     DC21     DRUD     -2.03120      0.400000           0   0.00000       0.00000    
      8407 MEMB     47       POPE     O22      OD2C3B    1.64990       15.5994           0 -0.904000      0.565000    
      8408 MEMB     47       POPE     DO22     DRUD     -1.64990      0.400000           0   0.00000       0.00000    
      8409 MEMB     47       POPE     C22      CD32C     2.24380       11.6110           0  -1.99300      0.410000    
      8410 MEMB     47       POPE     DC22     DRUD     -2.44980      0.400000           0   0.00000       0.00000    
      8411 MEMB     47       POPE     H2R      HDA2A    0.690000E-01   1.00800           0   0.00000       0.00000    
      8412 MEMB     47       POPE     H2S      HDA2A    0.690000E-01   1.00800           0   0.00000       0.00000    
      8413 MEMB     47       POPE     LP1A     LPD     -0.349000       0.00000          -1   0.00000       0.00000    
      8414 MEMB     47       POPE     LP1B     LPD     -0.258000       0.00000          -1   0.00000       0.00000    
      8415 MEMB     47       POPE     LPMA     LPD     -0.170000       0.00000          -1   0.00000       0.00000    
      8416 MEMB     47       POPE     LPMB     LPD     -0.170000       0.00000          -1   0.00000       0.00000    
      8417 MEMB     47       POPE     C3       CD32C     2.41230       11.6110           0  -1.79700      0.410000    
      8418 MEMB     47       POPE     DC3      DRUD     -2.32630      0.400000           0   0.00000       0.00000    
      8419 MEMB     47       POPE     HX       HDA2A    0.116000       1.00800           0   0.00000       0.00000    
      8420 MEMB     47       POPE     HY       HDA2A    0.116000       1.00800           0   0.00000       0.00000    
      8421 MEMB     47       POPE     O31      OD30CL    1.48470       15.5994           0 -0.732000      0.601000    
      8422 MEMB     47       POPE     DO31     DRUD     -1.48470      0.400000           0   0.00000       0.00000    
      8423 MEMB     47       POPE     C31      CD2O3B    2.72820       11.6110           0  -1.37000       1.74700    
      8424 MEMB     47       POPE     DC31     DRUD     -2.03120      0.400000           0   0.00000       0.00000    
      8425 MEMB     47       POPE     O32      OD2C3B    1.64990       15.5994           0 -0.904000      0.565000    
      8426 MEMB     47       POPE     DO32     DRUD     -1.64990      0.400000           0   0.00000       0.00000    
      8427 MEMB     47       POPE     C32      CD32C     2.24380       11.6110           0  -1.99300      0.410000    
      8428 MEMB     47       POPE     DC32     DRUD     -2.44980      0.400000           0   0.00000       0.00000    
      8429 MEMB     47       POPE     H2X      HDA2A    0.690000E-01   1.00800           0   0.00000       0.00000    
      8430 MEMB     47       POPE     H2Y      HDA2A    0.690000E-01   1.00800           0   0.00000       0.00000    
      8431 MEMB     47       POPE     LP1C     LPD     -0.349000       0.00000          -1   0.00000       0.00000    
      8432 MEMB     47       POPE     LP1D     LPD     -0.258000       0.00000          -1   0.00000       0.00000    
      8433 MEMB     47       POPE     LPMC     LPD     -0.170000       0.00000          -1   0.00000       0.00000    
      8434 MEMB     47       POPE     LPMD     LPD     -0.170000       0.00000          -1   0.00000       0.00000    
      8435 MEMB     47       POPE     C23      CD32A     2.07980       11.6110           0  -1.66000       1.30000    
      8436 MEMB     47       POPE     DC23     DRUD     -2.23580      0.400000           0   0.00000       0.00000    
      8437 MEMB     47       POPE     H3R      HDA2A    0.780000E-01   1.00800           0   0.00000       0.00000    
      8438 MEMB     47       POPE     H3S      HDA2A    0.780000E-01   1.00800           0   0.00000       0.00000    
      8439 MEMB     47       POPE     C24      CD32A     2.07980       11.6110           0  -1.66000       1.30000    
      8440 MEMB     47       POPE     DC24     DRUD     -2.23580      0.400000           0   0.00000       0.00000    
      8441 MEMB     47       POPE     H4R      HDA2A    0.780000E-01   1.00800           0   0.00000       0.00000    
      8442 MEMB     47       POPE     H4S      HDA2A    0.780000E-01   1.00800           0   0.00000       0.00000    
      8443 MEMB     47       POPE     C25      CD32A     2.07980       11.6110           0  -1.66000       1.30000    
      8444 MEMB     47       POPE     DC25     DRUD     -2.23580      0.400000           0   0.00000       0.00000    
      8445 MEMB     47       POPE     H5R      HDA2A    0.780000E-01   1.00800           0   0.00000       0.00000    
      8446 MEMB     47       POPE     H5S      HDA2A    0.780000E-01   1.00800           0   0.00000       0.00000    
      8447 MEMB     47       POPE     C26      CD32A     2.07980       11.6110           0  -1.66000       1.30000    
      8448 MEMB     47       POPE     DC26     DRUD     -2.23580      0.400000           0   0.00000       0.00000    
      8449 MEMB     47       POPE     H6R      HDA2A    0.780000E-01   1.00800           0   0.00000       0.00000    
      8450 MEMB     47       POPE     H6S      HDA2A    0.780000E-01   1.00800           0   0.00000       0.00000    
      8451 MEMB     47       POPE     C27      CD32A     2.07980       11.6110           0  -1.66000       1.30000    
      8452 MEMB     47       POPE     DC27     DRUD     -2.23580      0.400000           0   0.00000       0.00000    
      8453 MEMB     47       POPE     H7R      HDA2A    0.780000E-01   1.00800           0   0.00000       0.00000    
      8454 MEMB     47       POPE     H7S      HDA2A    0.780000E-01   1.00800           0   0.00000       0.00000    
      8455 MEMB     47       POPE     C28      CD32A     2.07980       11.6110           0  -1.66000       1.30000    
      8456 MEMB     47       POPE     DC28     DRUD     -2.23580      0.400000           0   0.00000       0.00000    
      8457 MEMB     47       POPE     H8R      HDA2A    0.780000E-01   1.00800           0   0.00000       0.00000    
      8458 MEMB     47       POPE     H8S      HDA2A    0.780000E-01   1.00800           0   0.00000       0.00000    
      8459 MEMB     47       POPE     C29      CD2C1A    2.33700       11.6110           0  -1.99000      0.750000    
      8460 MEMB     47       POPE     DC29     DRUD     -2.44800      0.400000           0   0.00000       0.00000    
      8461 MEMB     47       POPE     H91      HD2C1A   0.111000       1.00800           0   0.00000       0.00000    
      8462 MEMB     47       POPE     C210     CD2C1A    2.33700       11.6110           0  -1.99000      0.750000    
      8463 MEMB     47       POPE     DC210    DRUD     -2.44800      0.400000           0   0.00000       0.00000    
      8464 MEMB     47       POPE     H101     HD2C1A   0.111000       1.00800           0   0.00000       0.00000    
      8465 MEMB     47       POPE     C211     CD32A     2.07980       11.6110           0  -1.66000       1.30000    
      8466 MEMB     47       POPE     DC211    DRUD     -2.23580      0.400000           0   0.00000       0.00000    
      8467 MEMB     47       POPE     H11R     HDA2A    0.780000E-01   1.00800           0   0.00000       0.00000    
      8468 MEMB     47       POPE     H11S     HDA2A    0.780000E-01   1.00800           0   0.00000       0.00000    
      8469 MEMB     47       POPE     C212     CD32A     2.07980       11.6110           0  -1.66000       1.30000    
      8470 MEMB     47       POPE     DC212    DRUD     -2.23580      0.400000           0   0.00000       0.00000    
      8471 MEMB     47       POPE     H12R     HDA2A    0.780000E-01   1.00800           0   0.00000       0.00000    
      8472 MEMB     47       POPE     H12S     HDA2A    0.780000E-01   1.00800           0   0.00000       0.00000    
      8473 MEMB     47       POPE     C213     CD32A     2.07980       11.6110           0  -1.66000       1.30000    
      8474 MEMB     47       POPE     DC213    DRUD     -2.23580      0.400000           0   0.00000       0.00000    
      8475 MEMB     47       POPE     H13R     HDA2A    0.780000E-01   1.00800           0   0.00000       0.00000    
      8476 MEMB     47       POPE     H13S     HDA2A    0.780000E-01   1.00800           0   0.00000       0.00000    
      8477 MEMB     47       POPE     C214     CD32A     2.07980       11.6110           0  -1.66000       1.30000    
      8478 MEMB     47       POPE     DC214    DRUD     -2.23580      0.400000           0   0.00000       0.00000    
      8479 MEMB     47       POPE     H14R     HDA2A    0.780000E-01   1.00800           0   0.00000       0.00000    
      8480 MEMB     47       POPE     H14S     HDA2A    0.780000E-01   1.00800           0   0.00000       0.00000    
      8481 MEMB     47       POPE     C215     CD32A     2.07980       11.6110           0  -1.66000       1.30000    
      8482 MEMB     47       POPE     DC215    DRUD     -2.23580      0.400000           0   0.00000       0.00000    
      8483 MEMB     47       POPE     H15R     HDA2A    0.780000E-01   1.00800           0   0.00000       0.00000    
      8484 MEMB     47       POPE     H15S     HDA2A    0.780000E-01   1.00800           0   0.00000       0.00000    
      8485 MEMB     47       POPE     C216     CD32A     2.07980       11.6110           0  -1.66000       1.30000    
      8486 MEMB     47       POPE     DC216    DRUD     -2.23580      0.400000           0   0.00000       0.00000    
      8487 MEMB     47       POPE     H16R     HDA2A    0.780000E-01   1.00800           0   0.00000       0.00000    
      8488 MEMB     47       POPE     H16S     HDA2A    0.780000E-01   1.00800           0   0.00000       0.00000    
      8489 MEMB     47       POPE     C217     CD32A     2.07980       11.6110           0  -1.66000       1.30000    
      8490 MEMB     47       POPE     DC217    DRUD     -2.23580      0.400000           0   0.00000       0.00000    
      8491 MEMB     47       POPE     H17R     HDA2A    0.780000E-01   1.00800           0   0.00000       0.00000    
      8492 MEMB     47       POPE     H17S     HDA2A    0.780000E-01   1.00800           0   0.00000       0.00000    
      8493 MEMB     47       POPE     C218     CD33A     2.30820       11.6110           0  -2.05100       1.30000    
      8494 MEMB     47       POPE     DC218    DRUD     -2.48520      0.400000           0   0.00000       0.00000    
      8495 MEMB     47       POPE     H18R     HDA3A    0.590000E-01   1.00800           0   0.00000       0.00000    
      8496 MEMB     47       POPE     H18S     HDA3A    0.590000E-01   1.00800           0   0.00000       0.00000    
      8497 MEMB     47       POPE     H18T     HDA3A    0.590000E-01   1.00800           0   0.00000       0.00000    
      8498 MEMB     47       POPE     C33      CD32A     2.07980       11.6110           0  -1.66000       1.30000    
      8499 MEMB     47       POPE     DC33     DRUD     -2.23580      0.400000           0   0.00000       0.00000    
      8500 MEMB     47       POPE     H3X      HDA2A    0.780000E-01   1.00800           0   0.00000       0.00000    
      8501 MEMB     47       POPE     H3Y      HDA2A    0.780000E-01   1.00800           0   0.00000       0.00000    
      8502 MEMB     47       POPE     C34      CD32A     2.07980       11.6110           0  -1.66000       1.30000    
      8503 MEMB     47       POPE     DC34     DRUD     -2.23580      0.400000           0   0.00000       0.00000    
      8504 MEMB     47       POPE     H4X      HDA2A    0.780000E-01   1.00800           0   0.00000       0.00000    
      8505 MEMB     47       POPE     H4Y      HDA2A    0.780000E-01   1.00800           0   0.00000       0.00000    
      8506 MEMB     47       POPE     C35      CD32A     2.07980       11.6110           0  -1.66000       1.30000    
      8507 MEMB     47       POPE     DC35     DRUD     -2.23580      0.400000           0   0.00000       0.00000    
      8508 MEMB     47       POPE     H5X      HDA2A    0.780000E-01   1.00800           0   0.00000       0.00000    
      8509 MEMB     47       POPE     H5Y      HDA2A    0.780000E-01   1.00800           0   0.00000       0.00000    
      8510 MEMB     47       POPE     C36      CD32A     2.07980       11.6110           0  -1.66000       1.30000    
      8511 MEMB     47       POPE     DC36     DRUD     -2.23580      0.400000           0   0.00000       0.00000    
      8512 MEMB     47       POPE     H6X      HDA2A    0.780000E-01   1.00800           0   0.00000       0.00000    
      8513 MEMB     47       POPE     H6Y      HDA2A    0.780000E-01   1.00800           0   0.00000       0.00000    
      8514 MEMB     47       POPE     C37      CD32A     2.07980       11.6110           0  -1.66000       1.30000    
      8515 MEMB     47       POPE     DC37     DRUD     -2.23580      0.400000           0   0.00000       0.00000    
      8516 MEMB     47       POPE     H7X      HDA2A    0.780000E-01   1.00800           0   0.00000       0.00000    
      8517 MEMB     47       POPE     H7Y      HDA2A    0.780000E-01   1.00800           0   0.00000       0.00000    
      8518 MEMB     47       POPE     C38      CD32A     2.07980       11.6110           0  -1.66000       1.30000    
      8519 MEMB     47       POPE     DC38     DRUD     -2.23580      0.400000           0   0.00000       0.00000    
      8520 MEMB     47       POPE     H8X      HDA2A    0.780000E-01   1.00800           0   0.00000       0.00000    
      8521 MEMB     47       POPE     H8Y      HDA2A    0.780000E-01   1.00800           0   0.00000       0.00000    
      8522 MEMB     47       POPE     C39      CD32A     2.07980       11.6110           0  -1.66000       1.30000    
      8523 MEMB     47       POPE     DC39     DRUD     -2.23580      0.400000           0   0.00000       0.00000    
      8524 MEMB     47       POPE     H9X      HDA2A    0.780000E-01   1.00800           0   0.00000       0.00000    
      8525 MEMB     47       POPE     H9Y      HDA2A    0.780000E-01   1.00800           0   0.00000       0.00000    
      8526 MEMB     47       POPE     C310     CD32A     2.07980       11.6110           0  -1.66000       1.30000    
      8527 MEMB     47       POPE     DC310    DRUD     -2.23580      0.400000           0   0.00000       0.00000    
      8528 MEMB     47       POPE     H10X     HDA2A    0.780000E-01   1.00800           0   0.00000       0.00000    
      8529 MEMB     47       POPE     H10Y     HDA2A    0.780000E-01   1.00800           0   0.00000       0.00000    
      8530 MEMB     47       POPE     C311     CD32A     2.07980       11.6110           0  -1.66000       1.30000    
      8531 MEMB     47       POPE     DC311    DRUD     -2.23580      0.400000           0   0.00000       0.00000    
      8532 MEMB     47       POPE     H11X     HDA2A    0.780000E-01   1.00800           0   0.00000       0.00000    
      8533 MEMB     47       POPE     H11Y     HDA2A    0.780000E-01   1.00800           0   0.00000       0.00000    
      8534 MEMB     47       POPE     C312     CD32A     2.07980       11.6110           0  -1.66000       1.30000    
      8535 MEMB     47       POPE     DC312    DRUD     -2.23580      0.400000           0   0.00000       0.00000    
      8536 MEMB     47       POPE     H12X     HDA2A    0.780000E-01   1.00800           0   0.00000       0.00000    
      8537 MEMB     47       POPE     H12Y     HDA2A    0.780000E-01   1.00800           0   0.00000       0.00000    
      8538 MEMB     47       POPE     C313     CD32A     2.07980       11.6110           0  -1.66000       1.30000    
      8539 MEMB     47       POPE     DC313    DRUD     -2.23580      0.400000           0   0.00000       0.00000    
      8540 MEMB     47       POPE     H13X     HDA2A    0.780000E-01   1.00800           0   0.00000       0.00000    
      8541 MEMB     47       POPE     H13Y     HDA2A    0.780000E-01   1.00800           0   0.00000       0.00000    
      8542 MEMB     47       POPE     C314     CD32A     2.07980       11.6110           0  -1.66000       1.30000    
      8543 MEMB     47       POPE     DC314    DRUD     -2.23580      0.400000           0   0.00000       0.00000    
      8544 MEMB     47       POPE     H14X     HDA2A    0.780000E-01   1.00800           0   0.00000       0.00000    
      8545 MEMB     47       POPE     H14Y     HDA2A    0.780000E-01   1.00800           0   0.00000       0.00000    
      8546 MEMB     47       POPE     C315     CD32A     2.07980       11.6110           0  -1.66000       1.30000    
      8547 MEMB     47       POPE     DC315    DRUD     -2.23580      0.400000           0   0.00000       0.00000    
      8548 MEMB     47       POPE     H15X     HDA2A    0.780000E-01   1.00800           0   0.00000       0.00000    
      8549 MEMB     47       POPE     H15Y     HDA2A    0.780000E-01   1.00800           0   0.00000       0.00000    
      8550 MEMB     47       POPE     C316     CD33A     2.30820       11.6110           0  -2.05100       1.30000    
      8551 MEMB     47       POPE     DC316    DRUD     -2.48520      0.400000           0   0.00000       0.00000    
      8552 MEMB     47       POPE     H16X     HDA3A    0.590000E-01   1.00800           0   0.00000       0.00000    
      8553 MEMB     47       POPE     H16Y     HDA3A    0.590000E-01   1.00800           0   0.00000       0.00000    
      8554 MEMB     47       POPE     H16Z     HDA3A    0.590000E-01   1.00800           0   0.00000       0.00000    
      8555 MEMB     48       POPE     N        ND3P3A    1.62810       13.6070           0  -1.29800      0.895000    
      8556 MEMB     48       POPE     DN       DRUD     -1.97710      0.400000           0   0.00000       0.00000    
      8557 MEMB     48       POPE     HN1      HDP1B    0.340000       1.00800           0   0.00000       0.00000    
      8558 MEMB     48       POPE     HN2      HDP1B    0.340000       1.00800           0   0.00000       0.00000    
      8559 MEMB     48       POPE     HN3      HDP1B    0.340000       1.00800           0   0.00000       0.00000    
      8560 MEMB     48       POPE     C12      CD32A     2.27610       11.6110           0  -1.65600      0.895000    
      8561 MEMB     48       POPE     DC12     DRUD     -2.23310      0.400000           0   0.00000       0.00000    
      8562 MEMB     48       POPE     H12A     HDA2A    0.143000       1.00800           0   0.00000       0.00000    
      8563 MEMB     48       POPE     H12B     HDA2A    0.143000       1.00800           0   0.00000       0.00000    
      8564 MEMB     48       POPE     C11      CD32A     2.42220       11.6110           0  -1.64200      0.862000    
      8565 MEMB     48       POPE     DC11     DRUD     -2.22370      0.400000           0   0.00000       0.00000    
      8566 MEMB     48       POPE     H11A     HDA2A    0.260000E-01   1.00800           0   0.00000       0.00000    
      8567 MEMB     48       POPE     H11B     HDA2A    0.260000E-01   1.00800           0   0.00000       0.00000    
      8568 MEMB     48       POPE     P        PD1A      2.90360       30.5740           0 -0.974000       2.09800    
      8569 MEMB     48       POPE     DP       DRUD     -1.71260      0.400000           0   0.00000       0.00000    
      8570 MEMB     48       POPE     O13      OD2C2B   0.798400       15.5994           0 -0.931000       1.08300    
      8571 MEMB     48       POPE     DO13     DRUD     -1.67440      0.400000           0   0.00000       0.00000    
      8572 MEMB     48       POPE     O14      OD2C2B   0.798400       15.5994           0 -0.931000       1.08300    
      8573 MEMB     48       POPE     DO14     DRUD     -1.67440      0.400000           0   0.00000       0.00000    
      8574 MEMB     48       POPE     O11      OD30B     1.17720       15.5994           0 -0.901000      0.181000    
      8575 MEMB     48       POPE     DO11     DRUD     -1.64720      0.400000           0   0.00000       0.00000    
      8576 MEMB     48       POPE     O12      OD30B     1.17720       15.5994           0 -0.901000      0.181000    
      8577 MEMB     48       POPE     DO12     DRUD     -1.64720      0.400000           0   0.00000       0.00000    
      8578 MEMB     48       POPE     C1       CD32A     2.42220       11.6110           0  -1.64200      0.862000    
      8579 MEMB     48       POPE     DC1      DRUD     -2.22370      0.400000           0   0.00000       0.00000    
      8580 MEMB     48       POPE     HA       HDA2A    0.260000E-01   1.00800           0   0.00000       0.00000    
      8581 MEMB     48       POPE     HB       HDA2A    0.260000E-01   1.00800           0   0.00000       0.00000    
      8582 MEMB     48       POPE     C2       CD31C     2.52830       11.6110           0  -1.79700      0.410000    
      8583 MEMB     48       POPE     DC2      DRUD     -2.32630      0.400000           0   0.00000       0.00000    
      8584 MEMB     48       POPE     HS       HDA1A    0.116000       1.00800           0   0.00000       0.00000    
      8585 MEMB     48       POPE     O21      OD30CL    1.48470       15.5994           0 -0.732000      0.601000    
      8586 MEMB     48       POPE     DO21     DRUD     -1.48470      0.400000           0   0.00000       0.00000    
      8587 MEMB     48       POPE     C21      CD2O3B    2.72820       11.6110           0  -1.37000       1.74700    
      8588 MEMB     48       POPE     DC21     DRUD     -2.03120      0.400000           0   0.00000       0.00000    
      8589 MEMB     48       POPE     O22      OD2C3B    1.64990       15.5994           0 -0.904000      0.565000    
      8590 MEMB     48       POPE     DO22     DRUD     -1.64990      0.400000           0   0.00000       0.00000    
      8591 MEMB     48       POPE     C22      CD32C     2.24380       11.6110           0  -1.99300      0.410000    
      8592 MEMB     48       POPE     DC22     DRUD     -2.44980      0.400000           0   0.00000       0.00000    
      8593 MEMB     48       POPE     H2R      HDA2A    0.690000E-01   1.00800           0   0.00000       0.00000    
      8594 MEMB     48       POPE     H2S      HDA2A    0.690000E-01   1.00800           0   0.00000       0.00000    
      8595 MEMB     48       POPE     LP1A     LPD     -0.349000       0.00000          -1   0.00000       0.00000    
      8596 MEMB     48       POPE     LP1B     LPD     -0.258000       0.00000          -1   0.00000       0.00000    
      8597 MEMB     48       POPE     LPMA     LPD     -0.170000       0.00000          -1   0.00000       0.00000    
      8598 MEMB     48       POPE     LPMB     LPD     -0.170000       0.00000          -1   0.00000       0.00000    
      8599 MEMB     48       POPE     C3       CD32C     2.41230       11.6110           0  -1.79700      0.410000    
      8600 MEMB     48       POPE     DC3      DRUD     -2.32630      0.400000           0   0.00000       0.00000    
      8601 MEMB     48       POPE     HX       HDA2A    0.116000       1.00800           0   0.00000       0.00000    
      8602 MEMB     48       POPE     HY       HDA2A    0.116000       1.00800           0   0.00000       0.00000    
      8603 MEMB     48       POPE     O31      OD30CL    1.48470       15.5994           0 -0.732000      0.601000    
      8604 MEMB     48       POPE     DO31     DRUD     -1.48470      0.400000           0   0.00000       0.00000    
      8605 MEMB     48       POPE     C31      CD2O3B    2.72820       11.6110           0  -1.37000       1.74700    
      8606 MEMB     48       POPE     DC31     DRUD     -2.03120      0.400000           0   0.00000       0.00000    
      8607 MEMB     48       POPE     O32      OD2C3B    1.64990       15.5994           0 -0.904000      0.565000    
      8608 MEMB     48       POPE     DO32     DRUD     -1.64990      0.400000           0   0.00000       0.00000    
      8609 MEMB     48       POPE     C32      CD32C     2.24380       11.6110           0  -1.99300      0.410000    
      8610 MEMB     48       POPE     DC32     DRUD     -2.44980      0.400000           0   0.00000       0.00000    
      8611 MEMB     48       POPE     H2X      HDA2A    0.690000E-01   1.00800           0   0.00000       0.00000    
      8612 MEMB     48       POPE     H2Y      HDA2A    0.690000E-01   1.00800           0   0.00000       0.00000    
      8613 MEMB     48       POPE     LP1C     LPD     -0.349000       0.00000          -1   0.00000       0.00000    
      8614 MEMB     48       POPE     LP1D     LPD     -0.258000       0.00000          -1   0.00000       0.00000    
      8615 MEMB     48       POPE     LPMC     LPD     -0.170000       0.00000          -1   0.00000       0.00000    
      8616 MEMB     48       POPE     LPMD     LPD     -0.170000       0.00000          -1   0.00000       0.00000    
      8617 MEMB     48       POPE     C23      CD32A     2.07980       11.6110           0  -1.66000       1.30000    
      8618 MEMB     48       POPE     DC23     DRUD     -2.23580      0.400000           0   0.00000       0.00000    
      8619 MEMB     48       POPE     H3R      HDA2A    0.780000E-01   1.00800           0   0.00000       0.00000    
      8620 MEMB     48       POPE     H3S      HDA2A    0.780000E-01   1.00800           0   0.00000       0.00000    
      8621 MEMB     48       POPE     C24      CD32A     2.07980       11.6110           0  -1.66000       1.30000    
      8622 MEMB     48       POPE     DC24     DRUD     -2.23580      0.400000           0   0.00000       0.00000    
      8623 MEMB     48       POPE     H4R      HDA2A    0.780000E-01   1.00800           0   0.00000       0.00000    
      8624 MEMB     48       POPE     H4S      HDA2A    0.780000E-01   1.00800           0   0.00000       0.00000    
      8625 MEMB     48       POPE     C25      CD32A     2.07980       11.6110           0  -1.66000       1.30000    
      8626 MEMB     48       POPE     DC25     DRUD     -2.23580      0.400000           0   0.00000       0.00000    
      8627 MEMB     48       POPE     H5R      HDA2A    0.780000E-01   1.00800           0   0.00000       0.00000    
      8628 MEMB     48       POPE     H5S      HDA2A    0.780000E-01   1.00800           0   0.00000       0.00000    
      8629 MEMB     48       POPE     C26      CD32A     2.07980       11.6110           0  -1.66000       1.30000    
      8630 MEMB     48       POPE     DC26     DRUD     -2.23580      0.400000           0   0.00000       0.00000    
      8631 MEMB     48       POPE     H6R      HDA2A    0.780000E-01   1.00800           0   0.00000       0.00000    
      8632 MEMB     48       POPE     H6S      HDA2A    0.780000E-01   1.00800           0   0.00000       0.00000    
      8633 MEMB     48       POPE     C27      CD32A     2.07980       11.6110           0  -1.66000       1.30000    
      8634 MEMB     48       POPE     DC27     DRUD     -2.23580      0.400000           0   0.00000       0.00000    
      8635 MEMB     48       POPE     H7R      HDA2A    0.780000E-01   1.00800           0   0.00000       0.00000    
      8636 MEMB     48       POPE     H7S      HDA2A    0.780000E-01   1.00800           0   0.00000       0.00000    
      8637 MEMB     48       POPE     C28      CD32A     2.07980       11.6110           0  -1.66000       1.30000    
      8638 MEMB     48       POPE     DC28     DRUD     -2.23580      0.400000           0   0.00000       0.00000    
      8639 MEMB     48       POPE     H8R      HDA2A    0.780000E-01   1.00800           0   0.00000       0.00000    
      8640 MEMB     48       POPE     H8S      HDA2A    0.780000E-01   1.00800           0   0.00000       0.00000    
      8641 MEMB     48       POPE     C29      CD2C1A    2.33700       11.6110           0  -1.99000      0.750000    
      8642 MEMB     48       POPE     DC29     DRUD     -2.44800      0.400000           0   0.00000       0.00000    
      8643 MEMB     48       POPE     H91      HD2C1A   0.111000       1.00800           0   0.00000       0.00000    
      8644 MEMB     48       POPE     C210     CD2C1A    2.33700       11.6110           0  -1.99000      0.750000    
      8645 MEMB     48       POPE     DC210    DRUD     -2.44800      0.400000           0   0.00000       0.00000    
      8646 MEMB     48       POPE     H101     HD2C1A   0.111000       1.00800           0   0.00000       0.00000    
      8647 MEMB     48       POPE     C211     CD32A     2.07980       11.6110           0  -1.66000       1.30000    
      8648 MEMB     48       POPE     DC211    DRUD     -2.23580      0.400000           0   0.00000       0.00000    
      8649 MEMB     48       POPE     H11R     HDA2A    0.780000E-01   1.00800           0   0.00000       0.00000    
      8650 MEMB     48       POPE     H11S     HDA2A    0.780000E-01   1.00800           0   0.00000       0.00000    
      8651 MEMB     48       POPE     C212     CD32A     2.07980       11.6110           0  -1.66000       1.30000    
      8652 MEMB     48       POPE     DC212    DRUD     -2.23580      0.400000           0   0.00000       0.00000    
      8653 MEMB     48       POPE     H12R     HDA2A    0.780000E-01   1.00800           0   0.00000       0.00000    
      8654 MEMB     48       POPE     H12S     HDA2A    0.780000E-01   1.00800           0   0.00000       0.00000    
      8655 MEMB     48       POPE     C213     CD32A     2.07980       11.6110           0  -1.66000       1.30000    
      8656 MEMB     48       POPE     DC213    DRUD     -2.23580      0.400000           0   0.00000       0.00000    
      8657 MEMB     48       POPE     H13R     HDA2A    0.780000E-01   1.00800           0   0.00000       0.00000    
      8658 MEMB     48       POPE     H13S     HDA2A    0.780000E-01   1.00800           0   0.00000       0.00000    
      8659 MEMB     48       POPE     C214     CD32A     2.07980       11.6110           0  -1.66000       1.30000    
      8660 MEMB     48       POPE     DC214    DRUD     -2.23580      0.400000           0   0.00000       0.00000    
      8661 MEMB     48       POPE     H14R     HDA2A    0.780000E-01   1.00800           0   0.00000       0.00000    
      8662 MEMB     48       POPE     H14S     HDA2A    0.780000E-01   1.00800           0   0.00000       0.00000    
      8663 MEMB     48       POPE     C215     CD32A     2.07980       11.6110           0  -1.66000       1.30000    
      8664 MEMB     48       POPE     DC215    DRUD     -2.23580      0.400000           0   0.00000       0.00000    
      8665 MEMB     48       POPE     H15R     HDA2A    0.780000E-01   1.00800           0   0.00000       0.00000    
      8666 MEMB     48       POPE     H15S     HDA2A    0.780000E-01   1.00800           0   0.00000       0.00000    
      8667 MEMB     48       POPE     C216     CD32A     2.07980       11.6110           0  -1.66000       1.30000    
      8668 MEMB     48       POPE     DC216    DRUD     -2.23580      0.400000           0   0.00000       0.00000    
      8669 MEMB     48       POPE     H16R     HDA2A    0.780000E-01   1.00800           0   0.00000       0.00000    
      8670 MEMB     48       POPE     H16S     HDA2A    0.780000E-01   1.00800           0   0.00000       0.00000    
      8671 MEMB     48       POPE     C217     CD32A     2.07980       11.6110           0  -1.66000       1.30000    
      8672 MEMB     48       POPE     DC217    DRUD     -2.23580      0.400000           0   0.00000       0.00000    
      8673 MEMB     48       POPE     H17R     HDA2A    0.780000E-01   1.00800           0   0.00000       0.00000    
      8674 MEMB     48       POPE     H17S     HDA2A    0.780000E-01   1.00800           0   0.00000       0.00000    
      8675 MEMB     48       POPE     C218     CD33A     2.30820       11.6110           0  -2.05100       1.30000    
      8676 MEMB     48       POPE     DC218    DRUD     -2.48520      0.400000           0   0.00000       0.00000    
      8677 MEMB     48       POPE     H18R     HDA3A    0.590000E-01   1.00800           0   0.00000       0.00000    
      8678 MEMB     48       POPE     H18S     HDA3A    0.590000E-01   1.00800           0   0.00000       0.00000    
      8679 MEMB     48       POPE     H18T     HDA3A    0.590000E-01   1.00800           0   0.00000       0.00000    
      8680 MEMB     48       POPE     C33      CD32A     2.07980       11.6110           0  -1.66000       1.30000    
      8681 MEMB     48       POPE     DC33     DRUD     -2.23580      0.400000           0   0.00000       0.00000    
      8682 MEMB     48       POPE     H3X      HDA2A    0.780000E-01   1.00800           0   0.00000       0.00000    
      8683 MEMB     48       POPE     H3Y      HDA2A    0.780000E-01   1.00800           0   0.00000       0.00000    
      8684 MEMB     48       POPE     C34      CD32A     2.07980       11.6110           0  -1.66000       1.30000    
      8685 MEMB     48       POPE     DC34     DRUD     -2.23580      0.400000           0   0.00000       0.00000    
      8686 MEMB     48       POPE     H4X      HDA2A    0.780000E-01   1.00800           0   0.00000       0.00000    
      8687 MEMB     48       POPE     H4Y      HDA2A    0.780000E-01   1.00800           0   0.00000       0.00000    
      8688 MEMB     48       POPE     C35      CD32A     2.07980       11.6110           0  -1.66000       1.30000    
      8689 MEMB     48       POPE     DC35     DRUD     -2.23580      0.400000           0   0.00000       0.00000    
      8690 MEMB     48       POPE     H5X      HDA2A    0.780000E-01   1.00800           0   0.00000       0.00000    
      8691 MEMB     48       POPE     H5Y      HDA2A    0.780000E-01   1.00800           0   0.00000       0.00000    
      8692 MEMB     48       POPE     C36      CD32A     2.07980       11.6110           0  -1.66000       1.30000    
      8693 MEMB     48       POPE     DC36     DRUD     -2.23580      0.400000           0   0.00000       0.00000    
      8694 MEMB     48       POPE     H6X      HDA2A    0.780000E-01   1.00800           0   0.00000       0.00000    
      8695 MEMB     48       POPE     H6Y      HDA2A    0.780000E-01   1.00800           0   0.00000       0.00000    
      8696 MEMB     48       POPE     C37      CD32A     2.07980       11.6110           0  -1.66000       1.30000    
      8697 MEMB     48       POPE     DC37     DRUD     -2.23580      0.400000           0   0.00000       0.00000    
      8698 MEMB     48       POPE     H7X      HDA2A    0.780000E-01   1.00800           0   0.00000       0.00000    
      8699 MEMB     48       POPE     H7Y      HDA2A    0.780000E-01   1.00800           0   0.00000       0.00000    
      8700 MEMB     48       POPE     C38      CD32A     2.07980       11.6110           0  -1.66000       1.30000    
      8701 MEMB     48       POPE     DC38     DRUD     -2.23580      0.400000           0   0.00000       0.00000    
      8702 MEMB     48       POPE     H8X      HDA2A    0.780000E-01   1.00800           0   0.00000       0.00000    
      8703 MEMB     48       POPE     H8Y      HDA2A    0.780000E-01   1.00800           0   0.00000       0.00000    
      8704 MEMB     48       POPE     C39      CD32A     2.07980       11.6110           0  -1.66000       1.30000    
      8705 MEMB     48       POPE     DC39     DRUD     -2.23580      0.400000           0   0.00000       0.00000    
      8706 MEMB     48       POPE     H9X      HDA2A    0.780000E-01   1.00800           0   0.00000       0.00000    
      8707 MEMB     48       POPE     H9Y      HDA2A    0.780000E-01   1.00800           0   0.00000       0.00000    
      8708 MEMB     48       POPE     C310     CD32A     2.07980       11.6110           0  -1.66000       1.30000    
      8709 MEMB     48       POPE     DC310    DRUD     -2.23580      0.400000           0   0.00000       0.00000    
      8710 MEMB     48       POPE     H10X     HDA2A    0.780000E-01   1.00800           0   0.00000       0.00000    
      8711 MEMB     48       POPE     H10Y     HDA2A    0.780000E-01   1.00800           0   0.00000       0.00000    
      8712 MEMB     48       POPE     C311     CD32A     2.07980       11.6110           0  -1.66000       1.30000    
      8713 MEMB     48       POPE     DC311    DRUD     -2.23580      0.400000           0   0.00000       0.00000    
      8714 MEMB     48       POPE     H11X     HDA2A    0.780000E-01   1.00800           0   0.00000       0.00000    
      8715 MEMB     48       POPE     H11Y     HDA2A    0.780000E-01   1.00800           0   0.00000       0.00000    
      8716 MEMB     48       POPE     C312     CD32A     2.07980       11.6110           0  -1.66000       1.30000    
      8717 MEMB     48       POPE     DC312    DRUD     -2.23580      0.400000           0   0.00000       0.00000    
      8718 MEMB     48       POPE     H12X     HDA2A    0.780000E-01   1.00800           0   0.00000       0.00000    
      8719 MEMB     48       POPE     H12Y     HDA2A    0.780000E-01   1.00800           0   0.00000       0.00000    
      8720 MEMB     48       POPE     C313     CD32A     2.07980       11.6110           0  -1.66000       1.30000    
      8721 MEMB     48       POPE     DC313    DRUD     -2.23580      0.400000           0   0.00000       0.00000    
      8722 MEMB     48       POPE     H13X     HDA2A    0.780000E-01   1.00800           0   0.00000       0.00000    
      8723 MEMB     48       POPE     H13Y     HDA2A    0.780000E-01   1.00800           0   0.00000       0.00000    
      8724 MEMB     48       POPE     C314     CD32A     2.07980       11.6110           0  -1.66000       1.30000    
      8725 MEMB     48       POPE     DC314    DRUD     -2.23580      0.400000           0   0.00000       0.00000    
      8726 MEMB     48       POPE     H14X     HDA2A    0.780000E-01   1.00800           0   0.00000       0.00000    
      8727 MEMB     48       POPE     H14Y     HDA2A    0.780000E-01   1.00800           0   0.00000       0.00000    
      8728 MEMB     48       POPE     C315     CD32A     2.07980       11.6110           0  -1.66000       1.30000    
      8729 MEMB     48       POPE     DC315    DRUD     -2.23580      0.400000           0   0.00000       0.00000    
      8730 MEMB     48       POPE     H15X     HDA2A    0.780000E-01   1.00800           0   0.00000       0.00000    
      8731 MEMB     48       POPE     H15Y     HDA2A    0.780000E-01   1.00800           0   0.00000       0.00000    
      8732 MEMB     48       POPE     C316     CD33A     2.30820       11.6110           0  -2.05100       1.30000    
      8733 MEMB     48       POPE     DC316    DRUD     -2.48520      0.400000           0   0.00000       0.00000    
      8734 MEMB     48       POPE     H16X     HDA3A    0.590000E-01   1.00800           0   0.00000       0.00000    
      8735 MEMB     48       POPE     H16Y     HDA3A    0.590000E-01   1.00800           0   0.00000       0.00000    
      8736 MEMB     48       POPE     H16Z     HDA3A    0.590000E-01   1.00800           0   0.00000       0.00000    
      8737 MEMB     49       POPE     N        ND3P3A    1.62810       13.6070           0  -1.29800      0.895000    
      8738 MEMB     49       POPE     DN       DRUD     -1.97710      0.400000           0   0.00000       0.00000    
      8739 MEMB     49       POPE     HN1      HDP1B    0.340000       1.00800           0   0.00000       0.00000    
      8740 MEMB     49       POPE     HN2      HDP1B    0.340000       1.00800           0   0.00000       0.00000    
      8741 MEMB     49       POPE     HN3      HDP1B    0.340000       1.00800           0   0.00000       0.00000    
      8742 MEMB     49       POPE     C12      CD32A     2.27610       11.6110           0  -1.65600      0.895000    
      8743 MEMB     49       POPE     DC12     DRUD     -2.23310      0.400000           0   0.00000       0.00000    
      8744 MEMB     49       POPE     H12A     HDA2A    0.143000       1.00800           0   0.00000       0.00000    
      8745 MEMB     49       POPE     H12B     HDA2A    0.143000       1.00800           0   0.00000       0.00000    
      8746 MEMB     49       POPE     C11      CD32A     2.42220       11.6110           0  -1.64200      0.862000    
      8747 MEMB     49       POPE     DC11     DRUD     -2.22370      0.400000           0   0.00000       0.00000    
      8748 MEMB     49       POPE     H11A     HDA2A    0.260000E-01   1.00800           0   0.00000       0.00000    
      8749 MEMB     49       POPE     H11B     HDA2A    0.260000E-01   1.00800           0   0.00000       0.00000    
      8750 MEMB     49       POPE     P        PD1A      2.90360       30.5740           0 -0.974000       2.09800    
      8751 MEMB     49       POPE     DP       DRUD     -1.71260      0.400000           0   0.00000       0.00000    
      8752 MEMB     49       POPE     O13      OD2C2B   0.798400       15.5994           0 -0.931000       1.08300    
      8753 MEMB     49       POPE     DO13     DRUD     -1.67440      0.400000           0   0.00000       0.00000    
      8754 MEMB     49       POPE     O14      OD2C2B   0.798400       15.5994           0 -0.931000       1.08300    
      8755 MEMB     49       POPE     DO14     DRUD     -1.67440      0.400000           0   0.00000       0.00000    
      8756 MEMB     49       POPE     O11      OD30B     1.17720       15.5994           0 -0.901000      0.181000    
      8757 MEMB     49       POPE     DO11     DRUD     -1.64720      0.400000           0   0.00000       0.00000    
      8758 MEMB     49       POPE     O12      OD30B     1.17720       15.5994           0 -0.901000      0.181000    
      8759 MEMB     49       POPE     DO12     DRUD     -1.64720      0.400000           0   0.00000       0.00000    
      8760 MEMB     49       POPE     C1       CD32A     2.42220       11.6110           0  -1.64200      0.862000    
      8761 MEMB     49       POPE     DC1      DRUD     -2.22370      0.400000           0   0.00000       0.00000    
      8762 MEMB     49       POPE     HA       HDA2A    0.260000E-01   1.00800           0   0.00000       0.00000    
      8763 MEMB     49       POPE     HB       HDA2A    0.260000E-01   1.00800           0   0.00000       0.00000    
      8764 MEMB     49       POPE     C2       CD31C     2.52830       11.6110           0  -1.79700      0.410000    
      8765 MEMB     49       POPE     DC2      DRUD     -2.32630      0.400000           0   0.00000       0.00000    
      8766 MEMB     49       POPE     HS       HDA1A    0.116000       1.00800           0   0.00000       0.00000    
      8767 MEMB     49       POPE     O21      OD30CL    1.48470       15.5994           0 -0.732000      0.601000    
      8768 MEMB     49       POPE     DO21     DRUD     -1.48470      0.400000           0   0.00000       0.00000    
      8769 MEMB     49       POPE     C21      CD2O3B    2.72820       11.6110           0  -1.37000       1.74700    
      8770 MEMB     49       POPE     DC21     DRUD     -2.03120      0.400000           0   0.00000       0.00000    
      8771 MEMB     49       POPE     O22      OD2C3B    1.64990       15.5994           0 -0.904000      0.565000    
      8772 MEMB     49       POPE     DO22     DRUD     -1.64990      0.400000           0   0.00000       0.00000    
      8773 MEMB     49       POPE     C22      CD32C     2.24380       11.6110           0  -1.99300      0.410000    
      8774 MEMB     49       POPE     DC22     DRUD     -2.44980      0.400000           0   0.00000       0.00000    
      8775 MEMB     49       POPE     H2R      HDA2A    0.690000E-01   1.00800           0   0.00000       0.00000    
      8776 MEMB     49       POPE     H2S      HDA2A    0.690000E-01   1.00800           0   0.00000       0.00000    
      8777 MEMB     49       POPE     LP1A     LPD     -0.349000       0.00000          -1   0.00000       0.00000    
      8778 MEMB     49       POPE     LP1B     LPD     -0.258000       0.00000          -1   0.00000       0.00000    
      8779 MEMB     49       POPE     LPMA     LPD     -0.170000       0.00000          -1   0.00000       0.00000    
      8780 MEMB     49       POPE     LPMB     LPD     -0.170000       0.00000          -1   0.00000       0.00000    
      8781 MEMB     49       POPE     C3       CD32C     2.41230       11.6110           0  -1.79700      0.410000    
      8782 MEMB     49       POPE     DC3      DRUD     -2.32630      0.400000           0   0.00000       0.00000    
      8783 MEMB     49       POPE     HX       HDA2A    0.116000       1.00800           0   0.00000       0.00000    
      8784 MEMB     49       POPE     HY       HDA2A    0.116000       1.00800           0   0.00000       0.00000    
      8785 MEMB     49       POPE     O31      OD30CL    1.48470       15.5994           0 -0.732000      0.601000    
      8786 MEMB     49       POPE     DO31     DRUD     -1.48470      0.400000           0   0.00000       0.00000    
      8787 MEMB     49       POPE     C31      CD2O3B    2.72820       11.6110           0  -1.37000       1.74700    
      8788 MEMB     49       POPE     DC31     DRUD     -2.03120      0.400000           0   0.00000       0.00000    
      8789 MEMB     49       POPE     O32      OD2C3B    1.64990       15.5994           0 -0.904000      0.565000    
      8790 MEMB     49       POPE     DO32     DRUD     -1.64990      0.400000           0   0.00000       0.00000    
      8791 MEMB     49       POPE     C32      CD32C     2.24380       11.6110           0  -1.99300      0.410000    
      8792 MEMB     49       POPE     DC32     DRUD     -2.44980      0.400000           0   0.00000       0.00000    
      8793 MEMB     49       POPE     H2X      HDA2A    0.690000E-01   1.00800           0   0.00000       0.00000    
      8794 MEMB     49       POPE     H2Y      HDA2A    0.690000E-01   1.00800           0   0.00000       0.00000    
      8795 MEMB     49       POPE     LP1C     LPD     -0.349000       0.00000          -1   0.00000       0.00000    
      8796 MEMB     49       POPE     LP1D     LPD     -0.258000       0.00000          -1   0.00000       0.00000    
      8797 MEMB     49       POPE     LPMC     LPD     -0.170000       0.00000          -1   0.00000       0.00000    
      8798 MEMB     49       POPE     LPMD     LPD     -0.170000       0.00000          -1   0.00000       0.00000    
      8799 MEMB     49       POPE     C23      CD32A     2.07980       11.6110           0  -1.66000       1.30000    
      8800 MEMB     49       POPE     DC23     DRUD     -2.23580      0.400000           0   0.00000       0.00000    
      8801 MEMB     49       POPE     H3R      HDA2A    0.780000E-01   1.00800           0   0.00000       0.00000    
      8802 MEMB     49       POPE     H3S      HDA2A    0.780000E-01   1.00800           0   0.00000       0.00000    
      8803 MEMB     49       POPE     C24      CD32A     2.07980       11.6110           0  -1.66000       1.30000    
      8804 MEMB     49       POPE     DC24     DRUD     -2.23580      0.400000           0   0.00000       0.00000    
      8805 MEMB     49       POPE     H4R      HDA2A    0.780000E-01   1.00800           0   0.00000       0.00000    
      8806 MEMB     49       POPE     H4S      HDA2A    0.780000E-01   1.00800           0   0.00000       0.00000    
      8807 MEMB     49       POPE     C25      CD32A     2.07980       11.6110           0  -1.66000       1.30000    
      8808 MEMB     49       POPE     DC25     DRUD     -2.23580      0.400000           0   0.00000       0.00000    
      8809 MEMB     49       POPE     H5R      HDA2A    0.780000E-01   1.00800           0   0.00000       0.00000    
      8810 MEMB     49       POPE     H5S      HDA2A    0.780000E-01   1.00800           0   0.00000       0.00000    
      8811 MEMB     49       POPE     C26      CD32A     2.07980       11.6110           0  -1.66000       1.30000    
      8812 MEMB     49       POPE     DC26     DRUD     -2.23580      0.400000           0   0.00000       0.00000    
      8813 MEMB     49       POPE     H6R      HDA2A    0.780000E-01   1.00800           0   0.00000       0.00000    
      8814 MEMB     49       POPE     H6S      HDA2A    0.780000E-01   1.00800           0   0.00000       0.00000    
      8815 MEMB     49       POPE     C27      CD32A     2.07980       11.6110           0  -1.66000       1.30000    
      8816 MEMB     49       POPE     DC27     DRUD     -2.23580      0.400000           0   0.00000       0.00000    
      8817 MEMB     49       POPE     H7R      HDA2A    0.780000E-01   1.00800           0   0.00000       0.00000    
      8818 MEMB     49       POPE     H7S      HDA2A    0.780000E-01   1.00800           0   0.00000       0.00000    
      8819 MEMB     49       POPE     C28      CD32A     2.07980       11.6110           0  -1.66000       1.30000    
      8820 MEMB     49       POPE     DC28     DRUD     -2.23580      0.400000           0   0.00000       0.00000    
      8821 MEMB     49       POPE     H8R      HDA2A    0.780000E-01   1.00800           0   0.00000       0.00000    
      8822 MEMB     49       POPE     H8S      HDA2A    0.780000E-01   1.00800           0   0.00000       0.00000    
      8823 MEMB     49       POPE     C29      CD2C1A    2.33700       11.6110           0  -1.99000      0.750000    
      8824 MEMB     49       POPE     DC29     DRUD     -2.44800      0.400000           0   0.00000       0.00000    
      8825 MEMB     49       POPE     H91      HD2C1A   0.111000       1.00800           0   0.00000       0.00000    
      8826 MEMB     49       POPE     C210     CD2C1A    2.33700       11.6110           0  -1.99000      0.750000    
      8827 MEMB     49       POPE     DC210    DRUD     -2.44800      0.400000           0   0.00000       0.00000    
      8828 MEMB     49       POPE     H101     HD2C1A   0.111000       1.00800           0   0.00000       0.00000    
      8829 MEMB     49       POPE     C211     CD32A     2.07980       11.6110           0  -1.66000       1.30000    
      8830 MEMB     49       POPE     DC211    DRUD     -2.23580      0.400000           0   0.00000       0.00000    
      8831 MEMB     49       POPE     H11R     HDA2A    0.780000E-01   1.00800           0   0.00000       0.00000    
      8832 MEMB     49       POPE     H11S     HDA2A    0.780000E-01   1.00800           0   0.00000       0.00000    
      8833 MEMB     49       POPE     C212     CD32A     2.07980       11.6110           0  -1.66000       1.30000    
      8834 MEMB     49       POPE     DC212    DRUD     -2.23580      0.400000           0   0.00000       0.00000    
      8835 MEMB     49       POPE     H12R     HDA2A    0.780000E-01   1.00800           0   0.00000       0.00000    
      8836 MEMB     49       POPE     H12S     HDA2A    0.780000E-01   1.00800           0   0.00000       0.00000    
      8837 MEMB     49       POPE     C213     CD32A     2.07980       11.6110           0  -1.66000       1.30000    
      8838 MEMB     49       POPE     DC213    DRUD     -2.23580      0.400000           0   0.00000       0.00000    
      8839 MEMB     49       POPE     H13R     HDA2A    0.780000E-01   1.00800           0   0.00000       0.00000    
      8840 MEMB     49       POPE     H13S     HDA2A    0.780000E-01   1.00800           0   0.00000       0.00000    
      8841 MEMB     49       POPE     C214     CD32A     2.07980       11.6110           0  -1.66000       1.30000    
      8842 MEMB     49       POPE     DC214    DRUD     -2.23580      0.400000           0   0.00000       0.00000    
      8843 MEMB     49       POPE     H14R     HDA2A    0.780000E-01   1.00800           0   0.00000       0.00000    
      8844 MEMB     49       POPE     H14S     HDA2A    0.780000E-01   1.00800           0   0.00000       0.00000    
      8845 MEMB     49       POPE     C215     CD32A     2.07980       11.6110           0  -1.66000       1.30000    
      8846 MEMB     49       POPE     DC215    DRUD     -2.23580      0.400000           0   0.00000       0.00000    
      8847 MEMB     49       POPE     H15R     HDA2A    0.780000E-01   1.00800           0   0.00000       0.00000    
      8848 MEMB     49       POPE     H15S     HDA2A    0.780000E-01   1.00800           0   0.00000       0.00000    
      8849 MEMB     49       POPE     C216     CD32A     2.07980       11.6110           0  -1.66000       1.30000    
      8850 MEMB     49       POPE     DC216    DRUD     -2.23580      0.400000           0   0.00000       0.00000    
      8851 MEMB     49       POPE     H16R     HDA2A    0.780000E-01   1.00800           0   0.00000       0.00000    
      8852 MEMB     49       POPE     H16S     HDA2A    0.780000E-01   1.00800           0   0.00000       0.00000    
      8853 MEMB     49       POPE     C217     CD32A     2.07980       11.6110           0  -1.66000       1.30000    
      8854 MEMB     49       POPE     DC217    DRUD     -2.23580      0.400000           0   0.00000       0.00000    
      8855 MEMB     49       POPE     H17R     HDA2A    0.780000E-01   1.00800           0   0.00000       0.00000    
      8856 MEMB     49       POPE     H17S     HDA2A    0.780000E-01   1.00800           0   0.00000       0.00000    
      8857 MEMB     49       POPE     C218     CD33A     2.30820       11.6110           0  -2.05100       1.30000    
      8858 MEMB     49       POPE     DC218    DRUD     -2.48520      0.400000           0   0.00000       0.00000    
      8859 MEMB     49       POPE     H18R     HDA3A    0.590000E-01   1.00800           0   0.00000       0.00000    
      8860 MEMB     49       POPE     H18S     HDA3A    0.590000E-01   1.00800           0   0.00000       0.00000    
      8861 MEMB     49       POPE     H18T     HDA3A    0.590000E-01   1.00800           0   0.00000       0.00000    
      8862 MEMB     49       POPE     C33      CD32A     2.07980       11.6110           0  -1.66000       1.30000    
      8863 MEMB     49       POPE     DC33     DRUD     -2.23580      0.400000           0   0.00000       0.00000    
      8864 MEMB     49       POPE     H3X      HDA2A    0.780000E-01   1.00800           0   0.00000       0.00000    
      8865 MEMB     49       POPE     H3Y      HDA2A    0.780000E-01   1.00800           0   0.00000       0.00000    
      8866 MEMB     49       POPE     C34      CD32A     2.07980       11.6110           0  -1.66000       1.30000    
      8867 MEMB     49       POPE     DC34     DRUD     -2.23580      0.400000           0   0.00000       0.00000    
      8868 MEMB     49       POPE     H4X      HDA2A    0.780000E-01   1.00800           0   0.00000       0.00000    
      8869 MEMB     49       POPE     H4Y      HDA2A    0.780000E-01   1.00800           0   0.00000       0.00000    
      8870 MEMB     49       POPE     C35      CD32A     2.07980       11.6110           0  -1.66000       1.30000    
      8871 MEMB     49       POPE     DC35     DRUD     -2.23580      0.400000           0   0.00000       0.00000    
      8872 MEMB     49       POPE     H5X      HDA2A    0.780000E-01   1.00800           0   0.00000       0.00000    
      8873 MEMB     49       POPE     H5Y      HDA2A    0.780000E-01   1.00800           0   0.00000       0.00000    
      8874 MEMB     49       POPE     C36      CD32A     2.07980       11.6110           0  -1.66000       1.30000    
      8875 MEMB     49       POPE     DC36     DRUD     -2.23580      0.400000           0   0.00000       0.00000    
      8876 MEMB     49       POPE     H6X      HDA2A    0.780000E-01   1.00800           0   0.00000       0.00000    
      8877 MEMB     49       POPE     H6Y      HDA2A    0.780000E-01   1.00800           0   0.00000       0.00000    
      8878 MEMB     49       POPE     C37      CD32A     2.07980       11.6110           0  -1.66000       1.30000    
      8879 MEMB     49       POPE     DC37     DRUD     -2.23580      0.400000           0   0.00000       0.00000    
      8880 MEMB     49       POPE     H7X      HDA2A    0.780000E-01   1.00800           0   0.00000       0.00000    
      8881 MEMB     49       POPE     H7Y      HDA2A    0.780000E-01   1.00800           0   0.00000       0.00000    
      8882 MEMB     49       POPE     C38      CD32A     2.07980       11.6110           0  -1.66000       1.30000    
      8883 MEMB     49       POPE     DC38     DRUD     -2.23580      0.400000           0   0.00000       0.00000    
      8884 MEMB     49       POPE     H8X      HDA2A    0.780000E-01   1.00800           0   0.00000       0.00000    
      8885 MEMB     49       POPE     H8Y      HDA2A    0.780000E-01   1.00800           0   0.00000       0.00000    
      8886 MEMB     49       POPE     C39      CD32A     2.07980       11.6110           0  -1.66000       1.30000    
      8887 MEMB     49       POPE     DC39     DRUD     -2.23580      0.400000           0   0.00000       0.00000    
      8888 MEMB     49       POPE     H9X      HDA2A    0.780000E-01   1.00800           0   0.00000       0.00000    
      8889 MEMB     49       POPE     H9Y      HDA2A    0.780000E-01   1.00800           0   0.00000       0.00000    
      8890 MEMB     49       POPE     C310     CD32A     2.07980       11.6110           0  -1.66000       1.30000    
      8891 MEMB     49       POPE     DC310    DRUD     -2.23580      0.400000           0   0.00000       0.00000    
      8892 MEMB     49       POPE     H10X     HDA2A    0.780000E-01   1.00800           0   0.00000       0.00000    
      8893 MEMB     49       POPE     H10Y     HDA2A    0.780000E-01   1.00800           0   0.00000       0.00000    
      8894 MEMB     49       POPE     C311     CD32A     2.07980       11.6110           0  -1.66000       1.30000    
      8895 MEMB     49       POPE     DC311    DRUD     -2.23580      0.400000           0   0.00000       0.00000    
      8896 MEMB     49       POPE     H11X     HDA2A    0.780000E-01   1.00800           0   0.00000       0.00000    
      8897 MEMB     49       POPE     H11Y     HDA2A    0.780000E-01   1.00800           0   0.00000       0.00000    
      8898 MEMB     49       POPE     C312     CD32A     2.07980       11.6110           0  -1.66000       1.30000    
      8899 MEMB     49       POPE     DC312    DRUD     -2.23580      0.400000           0   0.00000       0.00000    
      8900 MEMB     49       POPE     H12X     HDA2A    0.780000E-01   1.00800           0   0.00000       0.00000    
      8901 MEMB     49       POPE     H12Y     HDA2A    0.780000E-01   1.00800           0   0.00000       0.00000    
      8902 MEMB     49       POPE     C313     CD32A     2.07980       11.6110           0  -1.66000       1.30000    
      8903 MEMB     49       POPE     DC313    DRUD     -2.23580      0.400000           0   0.00000       0.00000    
      8904 MEMB     49       POPE     H13X     HDA2A    0.780000E-01   1.00800           0   0.00000       0.00000    
      8905 MEMB     49       POPE     H13Y     HDA2A    0.780000E-01   1.00800           0   0.00000       0.00000    
      8906 MEMB     49       POPE     C314     CD32A     2.07980       11.6110           0  -1.66000       1.30000    
      8907 MEMB     49       POPE     DC314    DRUD     -2.23580      0.400000           0   0.00000       0.00000    
      8908 MEMB     49       POPE     H14X     HDA2A    0.780000E-01   1.00800           0   0.00000       0.00000    
      8909 MEMB     49       POPE     H14Y     HDA2A    0.780000E-01   1.00800           0   0.00000       0.00000    
      8910 MEMB     49       POPE     C315     CD32A     2.07980       11.6110           0  -1.66000       1.30000    
      8911 MEMB     49       POPE     DC315    DRUD     -2.23580      0.400000           0   0.00000       0.00000    
      8912 MEMB     49       POPE     H15X     HDA2A    0.780000E-01   1.00800           0   0.00000       0.00000    
      8913 MEMB     49       POPE     H15Y     HDA2A    0.780000E-01   1.00800           0   0.00000       0.00000    
      8914 MEMB     49       POPE     C316     CD33A     2.30820       11.6110           0  -2.05100       1.30000    
      8915 MEMB     49       POPE     DC316    DRUD     -2.48520      0.400000           0   0.00000       0.00000    
      8916 MEMB     49       POPE     H16X     HDA3A    0.590000E-01   1.00800           0   0.00000       0.00000    
      8917 MEMB     49       POPE     H16Y     HDA3A    0.590000E-01   1.00800           0   0.00000       0.00000    
      8918 MEMB     49       POPE     H16Z     HDA3A    0.590000E-01   1.00800           0   0.00000       0.00000    
      8919 MEMB     50       POPE     N        ND3P3A    1.62810       13.6070           0  -1.29800      0.895000    
      8920 MEMB     50       POPE     DN       DRUD     -1.97710      0.400000           0   0.00000       0.00000    
      8921 MEMB     50       POPE     HN1      HDP1B    0.340000       1.00800           0   0.00000       0.00000    
      8922 MEMB     50       POPE     HN2      HDP1B    0.340000       1.00800           0   0.00000       0.00000    
      8923 MEMB     50       POPE     HN3      HDP1B    0.340000       1.00800           0   0.00000       0.00000    
      8924 MEMB     50       POPE     C12      CD32A     2.27610       11.6110           0  -1.65600      0.895000    
      8925 MEMB     50       POPE     DC12     DRUD     -2.23310      0.400000           0   0.00000       0.00000    
      8926 MEMB     50       POPE     H12A     HDA2A    0.143000       1.00800           0   0.00000       0.00000    
      8927 MEMB     50       POPE     H12B     HDA2A    0.143000       1.00800           0   0.00000       0.00000    
      8928 MEMB     50       POPE     C11      CD32A     2.42220       11.6110           0  -1.64200      0.862000    
      8929 MEMB     50       POPE     DC11     DRUD     -2.22370      0.400000           0   0.00000       0.00000    
      8930 MEMB     50       POPE     H11A     HDA2A    0.260000E-01   1.00800           0   0.00000       0.00000    
      8931 MEMB     50       POPE     H11B     HDA2A    0.260000E-01   1.00800           0   0.00000       0.00000    
      8932 MEMB     50       POPE     P        PD1A      2.90360       30.5740           0 -0.974000       2.09800    
      8933 MEMB     50       POPE     DP       DRUD     -1.71260      0.400000           0   0.00000       0.00000    
      8934 MEMB     50       POPE     O13      OD2C2B   0.798400       15.5994           0 -0.931000       1.08300    
      8935 MEMB     50       POPE     DO13     DRUD     -1.67440      0.400000           0   0.00000       0.00000    
      8936 MEMB     50       POPE     O14      OD2C2B   0.798400       15.5994           0 -0.931000       1.08300    
      8937 MEMB     50       POPE     DO14     DRUD     -1.67440      0.400000           0   0.00000       0.00000    
      8938 MEMB     50       POPE     O11      OD30B     1.17720       15.5994           0 -0.901000      0.181000    
      8939 MEMB     50       POPE     DO11     DRUD     -1.64720      0.400000           0   0.00000       0.00000    
      8940 MEMB     50       POPE     O12      OD30B     1.17720       15.5994           0 -0.901000      0.181000    
      8941 MEMB     50       POPE     DO12     DRUD     -1.64720      0.400000           0   0.00000       0.00000    
      8942 MEMB     50       POPE     C1       CD32A     2.42220       11.6110           0  -1.64200      0.862000    
      8943 MEMB     50       POPE     DC1      DRUD     -2.22370      0.400000           0   0.00000       0.00000    
      8944 MEMB     50       POPE     HA       HDA2A    0.260000E-01   1.00800           0   0.00000       0.00000    
      8945 MEMB     50       POPE     HB       HDA2A    0.260000E-01   1.00800           0   0.00000       0.00000    
      8946 MEMB     50       POPE     C2       CD31C     2.52830       11.6110           0  -1.79700      0.410000    
      8947 MEMB     50       POPE     DC2      DRUD     -2.32630      0.400000           0   0.00000       0.00000    
      8948 MEMB     50       POPE     HS       HDA1A    0.116000       1.00800           0   0.00000       0.00000    
      8949 MEMB     50       POPE     O21      OD30CL    1.48470       15.5994           0 -0.732000      0.601000    
      8950 MEMB     50       POPE     DO21     DRUD     -1.48470      0.400000           0   0.00000       0.00000    
      8951 MEMB     50       POPE     C21      CD2O3B    2.72820       11.6110           0  -1.37000       1.74700    
      8952 MEMB     50       POPE     DC21     DRUD     -2.03120      0.400000           0   0.00000       0.00000    
      8953 MEMB     50       POPE     O22      OD2C3B    1.64990       15.5994           0 -0.904000      0.565000    
      8954 MEMB     50       POPE     DO22     DRUD     -1.64990      0.400000           0   0.00000       0.00000    
      8955 MEMB     50       POPE     C22      CD32C     2.24380       11.6110           0  -1.99300      0.410000    
      8956 MEMB     50       POPE     DC22     DRUD     -2.44980      0.400000           0   0.00000       0.00000    
      8957 MEMB     50       POPE     H2R      HDA2A    0.690000E-01   1.00800           0   0.00000       0.00000    
      8958 MEMB     50       POPE     H2S      HDA2A    0.690000E-01   1.00800           0   0.00000       0.00000    
      8959 MEMB     50       POPE     LP1A     LPD     -0.349000       0.00000          -1   0.00000       0.00000    
      8960 MEMB     50       POPE     LP1B     LPD     -0.258000       0.00000          -1   0.00000       0.00000    
      8961 MEMB     50       POPE     LPMA     LPD     -0.170000       0.00000          -1   0.00000       0.00000    
      8962 MEMB     50       POPE     LPMB     LPD     -0.170000       0.00000          -1   0.00000       0.00000    
      8963 MEMB     50       POPE     C3       CD32C     2.41230       11.6110           0  -1.79700      0.410000    
      8964 MEMB     50       POPE     DC3      DRUD     -2.32630      0.400000           0   0.00000       0.00000    
      8965 MEMB     50       POPE     HX       HDA2A    0.116000       1.00800           0   0.00000       0.00000    
      8966 MEMB     50       POPE     HY       HDA2A    0.116000       1.00800           0   0.00000       0.00000    
      8967 MEMB     50       POPE     O31      OD30CL    1.48470       15.5994           0 -0.732000      0.601000    
      8968 MEMB     50       POPE     DO31     DRUD     -1.48470      0.400000           0   0.00000       0.00000    
      8969 MEMB     50       POPE     C31      CD2O3B    2.72820       11.6110           0  -1.37000       1.74700    
      8970 MEMB     50       POPE     DC31     DRUD     -2.03120      0.400000           0   0.00000       0.00000    
      8971 MEMB     50       POPE     O32      OD2C3B    1.64990       15.5994           0 -0.904000      0.565000    
      8972 MEMB     50       POPE     DO32     DRUD     -1.64990      0.400000           0   0.00000       0.00000    
      8973 MEMB     50       POPE     C32      CD32C     2.24380       11.6110           0  -1.99300      0.410000    
      8974 MEMB     50       POPE     DC32     DRUD     -2.44980      0.400000           0   0.00000       0.00000    
      8975 MEMB     50       POPE     H2X      HDA2A    0.690000E-01   1.00800           0   0.00000       0.00000    
      8976 MEMB     50       POPE     H2Y      HDA2A    0.690000E-01   1.00800           0   0.00000       0.00000    
      8977 MEMB     50       POPE     LP1C     LPD     -0.349000       0.00000          -1   0.00000       0.00000    
      8978 MEMB     50       POPE     LP1D     LPD     -0.258000       0.00000          -1   0.00000       0.00000    
      8979 MEMB     50       POPE     LPMC     LPD     -0.170000       0.00000          -1   0.00000       0.00000    
      8980 MEMB     50       POPE     LPMD     LPD     -0.170000       0.00000          -1   0.00000       0.00000    
      8981 MEMB     50       POPE     C23      CD32A     2.07980       11.6110           0  -1.66000       1.30000    
      8982 MEMB     50       POPE     DC23     DRUD     -2.23580      0.400000           0   0.00000       0.00000    
      8983 MEMB     50       POPE     H3R      HDA2A    0.780000E-01   1.00800           0   0.00000       0.00000    
      8984 MEMB     50       POPE     H3S      HDA2A    0.780000E-01   1.00800           0   0.00000       0.00000    
      8985 MEMB     50       POPE     C24      CD32A     2.07980       11.6110           0  -1.66000       1.30000    
      8986 MEMB     50       POPE     DC24     DRUD     -2.23580      0.400000           0   0.00000       0.00000    
      8987 MEMB     50       POPE     H4R      HDA2A    0.780000E-01   1.00800           0   0.00000       0.00000    
      8988 MEMB     50       POPE     H4S      HDA2A    0.780000E-01   1.00800           0   0.00000       0.00000    
      8989 MEMB     50       POPE     C25      CD32A     2.07980       11.6110           0  -1.66000       1.30000    
      8990 MEMB     50       POPE     DC25     DRUD     -2.23580      0.400000           0   0.00000       0.00000    
      8991 MEMB     50       POPE     H5R      HDA2A    0.780000E-01   1.00800           0   0.00000       0.00000    
      8992 MEMB     50       POPE     H5S      HDA2A    0.780000E-01   1.00800           0   0.00000       0.00000    
      8993 MEMB     50       POPE     C26      CD32A     2.07980       11.6110           0  -1.66000       1.30000    
      8994 MEMB     50       POPE     DC26     DRUD     -2.23580      0.400000           0   0.00000       0.00000    
      8995 MEMB     50       POPE     H6R      HDA2A    0.780000E-01   1.00800           0   0.00000       0.00000    
      8996 MEMB     50       POPE     H6S      HDA2A    0.780000E-01   1.00800           0   0.00000       0.00000    
      8997 MEMB     50       POPE     C27      CD32A     2.07980       11.6110           0  -1.66000       1.30000    
      8998 MEMB     50       POPE     DC27     DRUD     -2.23580      0.400000           0   0.00000       0.00000    
      8999 MEMB     50       POPE     H7R      HDA2A    0.780000E-01   1.00800           0   0.00000       0.00000    
      9000 MEMB     50       POPE     H7S      HDA2A    0.780000E-01   1.00800           0   0.00000       0.00000    
      9001 MEMB     50       POPE     C28      CD32A     2.07980       11.6110           0  -1.66000       1.30000    
      9002 MEMB     50       POPE     DC28     DRUD     -2.23580      0.400000           0   0.00000       0.00000    
      9003 MEMB     50       POPE     H8R      HDA2A    0.780000E-01   1.00800           0   0.00000       0.00000    
      9004 MEMB     50       POPE     H8S      HDA2A    0.780000E-01   1.00800           0   0.00000       0.00000    
      9005 MEMB     50       POPE     C29      CD2C1A    2.33700       11.6110           0  -1.99000      0.750000    
      9006 MEMB     50       POPE     DC29     DRUD     -2.44800      0.400000           0   0.00000       0.00000    
      9007 MEMB     50       POPE     H91      HD2C1A   0.111000       1.00800           0   0.00000       0.00000    
      9008 MEMB     50       POPE     C210     CD2C1A    2.33700       11.6110           0  -1.99000      0.750000    
      9009 MEMB     50       POPE     DC210    DRUD     -2.44800      0.400000           0   0.00000       0.00000    
      9010 MEMB     50       POPE     H101     HD2C1A   0.111000       1.00800           0   0.00000       0.00000    
      9011 MEMB     50       POPE     C211     CD32A     2.07980       11.6110           0  -1.66000       1.30000    
      9012 MEMB     50       POPE     DC211    DRUD     -2.23580      0.400000           0   0.00000       0.00000    
      9013 MEMB     50       POPE     H11R     HDA2A    0.780000E-01   1.00800           0   0.00000       0.00000    
      9014 MEMB     50       POPE     H11S     HDA2A    0.780000E-01   1.00800           0   0.00000       0.00000    
      9015 MEMB     50       POPE     C212     CD32A     2.07980       11.6110           0  -1.66000       1.30000    
      9016 MEMB     50       POPE     DC212    DRUD     -2.23580      0.400000           0   0.00000       0.00000    
      9017 MEMB     50       POPE     H12R     HDA2A    0.780000E-01   1.00800           0   0.00000       0.00000    
      9018 MEMB     50       POPE     H12S     HDA2A    0.780000E-01   1.00800           0   0.00000       0.00000    
      9019 MEMB     50       POPE     C213     CD32A     2.07980       11.6110           0  -1.66000       1.30000    
      9020 MEMB     50       POPE     DC213    DRUD     -2.23580      0.400000           0   0.00000       0.00000    
      9021 MEMB     50       POPE     H13R     HDA2A    0.780000E-01   1.00800           0   0.00000       0.00000    
      9022 MEMB     50       POPE     H13S     HDA2A    0.780000E-01   1.00800           0   0.00000       0.00000    
      9023 MEMB     50       POPE     C214     CD32A     2.07980       11.6110           0  -1.66000       1.30000    
      9024 MEMB     50       POPE     DC214    DRUD     -2.23580      0.400000           0   0.00000       0.00000    
      9025 MEMB     50       POPE     H14R     HDA2A    0.780000E-01   1.00800           0   0.00000       0.00000    
      9026 MEMB     50       POPE     H14S     HDA2A    0.780000E-01   1.00800           0   0.00000       0.00000    
      9027 MEMB     50       POPE     C215     CD32A     2.07980       11.6110           0  -1.66000       1.30000    
      9028 MEMB     50       POPE     DC215    DRUD     -2.23580      0.400000           0   0.00000       0.00000    
      9029 MEMB     50       POPE     H15R     HDA2A    0.780000E-01   1.00800           0   0.00000       0.00000    
      9030 MEMB     50       POPE     H15S     HDA2A    0.780000E-01   1.00800           0   0.00000       0.00000    
      9031 MEMB     50       POPE     C216     CD32A     2.07980       11.6110           0  -1.66000       1.30000    
      9032 MEMB     50       POPE     DC216    DRUD     -2.23580      0.400000           0   0.00000       0.00000    
      9033 MEMB     50       POPE     H16R     HDA2A    0.780000E-01   1.00800           0   0.00000       0.00000    
      9034 MEMB     50       POPE     H16S     HDA2A    0.780000E-01   1.00800           0   0.00000       0.00000    
      9035 MEMB     50       POPE     C217     CD32A     2.07980       11.6110           0  -1.66000       1.30000    
      9036 MEMB     50       POPE     DC217    DRUD     -2.23580      0.400000           0   0.00000       0.00000    
      9037 MEMB     50       POPE     H17R     HDA2A    0.780000E-01   1.00800           0   0.00000       0.00000    
      9038 MEMB     50       POPE     H17S     HDA2A    0.780000E-01   1.00800           0   0.00000       0.00000    
      9039 MEMB     50       POPE     C218     CD33A     2.30820       11.6110           0  -2.05100       1.30000    
      9040 MEMB     50       POPE     DC218    DRUD     -2.48520      0.400000           0   0.00000       0.00000    
      9041 MEMB     50       POPE     H18R     HDA3A    0.590000E-01   1.00800           0   0.00000       0.00000    
      9042 MEMB     50       POPE     H18S     HDA3A    0.590000E-01   1.00800           0   0.00000       0.00000    
      9043 MEMB     50       POPE     H18T     HDA3A    0.590000E-01   1.00800           0   0.00000       0.00000    
      9044 MEMB     50       POPE     C33      CD32A     2.07980       11.6110           0  -1.66000       1.30000    
      9045 MEMB     50       POPE     DC33     DRUD     -2.23580      0.400000           0   0.00000       0.00000    
      9046 MEMB     50       POPE     H3X      HDA2A    0.780000E-01   1.00800           0   0.00000       0.00000    
      9047 MEMB     50       POPE     H3Y      HDA2A    0.780000E-01   1.00800           0   0.00000       0.00000    
      9048 MEMB     50       POPE     C34      CD32A     2.07980       11.6110           0  -1.66000       1.30000    
      9049 MEMB     50       POPE     DC34     DRUD     -2.23580      0.400000           0   0.00000       0.00000    
      9050 MEMB     50       POPE     H4X      HDA2A    0.780000E-01   1.00800           0   0.00000       0.00000    
      9051 MEMB     50       POPE     H4Y      HDA2A    0.780000E-01   1.00800           0   0.00000       0.00000    
      9052 MEMB     50       POPE     C35      CD32A     2.07980       11.6110           0  -1.66000       1.30000    
      9053 MEMB     50       POPE     DC35     DRUD     -2.23580      0.400000           0   0.00000       0.00000    
      9054 MEMB     50       POPE     H5X      HDA2A    0.780000E-01   1.00800           0   0.00000       0.00000    
      9055 MEMB     50       POPE     H5Y      HDA2A    0.780000E-01   1.00800           0   0.00000       0.00000    
      9056 MEMB     50       POPE     C36      CD32A     2.07980       11.6110           0  -1.66000       1.30000    
      9057 MEMB     50       POPE     DC36     DRUD     -2.23580      0.400000           0   0.00000       0.00000    
      9058 MEMB     50       POPE     H6X      HDA2A    0.780000E-01   1.00800           0   0.00000       0.00000    
      9059 MEMB     50       POPE     H6Y      HDA2A    0.780000E-01   1.00800           0   0.00000       0.00000    
      9060 MEMB     50       POPE     C37      CD32A     2.07980       11.6110           0  -1.66000       1.30000    
      9061 MEMB     50       POPE     DC37     DRUD     -2.23580      0.400000           0   0.00000       0.00000    
      9062 MEMB     50       POPE     H7X      HDA2A    0.780000E-01   1.00800           0   0.00000       0.00000    
      9063 MEMB     50       POPE     H7Y      HDA2A    0.780000E-01   1.00800           0   0.00000       0.00000    
      9064 MEMB     50       POPE     C38      CD32A     2.07980       11.6110           0  -1.66000       1.30000    
      9065 MEMB     50       POPE     DC38     DRUD     -2.23580      0.400000           0   0.00000       0.00000    
      9066 MEMB     50       POPE     H8X      HDA2A    0.780000E-01   1.00800           0   0.00000       0.00000    
      9067 MEMB     50       POPE     H8Y      HDA2A    0.780000E-01   1.00800           0   0.00000       0.00000    
      9068 MEMB     50       POPE     C39      CD32A     2.07980       11.6110           0  -1.66000       1.30000    
      9069 MEMB     50       POPE     DC39     DRUD     -2.23580      0.400000           0   0.00000       0.00000    
      9070 MEMB     50       POPE     H9X      HDA2A    0.780000E-01   1.00800           0   0.00000       0.00000    
      9071 MEMB     50       POPE     H9Y      HDA2A    0.780000E-01   1.00800           0   0.00000       0.00000    
      9072 MEMB     50       POPE     C310     CD32A     2.07980       11.6110           0  -1.66000       1.30000    
      9073 MEMB     50       POPE     DC310    DRUD     -2.23580      0.400000           0   0.00000       0.00000    
      9074 MEMB     50       POPE     H10X     HDA2A    0.780000E-01   1.00800           0   0.00000       0.00000    
      9075 MEMB     50       POPE     H10Y     HDA2A    0.780000E-01   1.00800           0   0.00000       0.00000    
      9076 MEMB     50       POPE     C311     CD32A     2.07980       11.6110           0  -1.66000       1.30000    
      9077 MEMB     50       POPE     DC311    DRUD     -2.23580      0.400000           0   0.00000       0.00000    
      9078 MEMB     50       POPE     H11X     HDA2A    0.780000E-01   1.00800           0   0.00000       0.00000    
      9079 MEMB     50       POPE     H11Y     HDA2A    0.780000E-01   1.00800           0   0.00000       0.00000    
      9080 MEMB     50       POPE     C312     CD32A     2.07980       11.6110           0  -1.66000       1.30000    
      9081 MEMB     50       POPE     DC312    DRUD     -2.23580      0.400000           0   0.00000       0.00000    
      9082 MEMB     50       POPE     H12X     HDA2A    0.780000E-01   1.00800           0   0.00000       0.00000    
      9083 MEMB     50       POPE     H12Y     HDA2A    0.780000E-01   1.00800           0   0.00000       0.00000    
      9084 MEMB     50       POPE     C313     CD32A     2.07980       11.6110           0  -1.66000       1.30000    
      9085 MEMB     50       POPE     DC313    DRUD     -2.23580      0.400000           0   0.00000       0.00000    
      9086 MEMB     50       POPE     H13X     HDA2A    0.780000E-01   1.00800           0   0.00000       0.00000    
      9087 MEMB     50       POPE     H13Y     HDA2A    0.780000E-01   1.00800           0   0.00000       0.00000    
      9088 MEMB     50       POPE     C314     CD32A     2.07980       11.6110           0  -1.66000       1.30000    
      9089 MEMB     50       POPE     DC314    DRUD     -2.23580      0.400000           0   0.00000       0.00000    
      9090 MEMB     50       POPE     H14X     HDA2A    0.780000E-01   1.00800           0   0.00000       0.00000    
      9091 MEMB     50       POPE     H14Y     HDA2A    0.780000E-01   1.00800           0   0.00000       0.00000    
      9092 MEMB     50       POPE     C315     CD32A     2.07980       11.6110           0  -1.66000       1.30000    
      9093 MEMB     50       POPE     DC315    DRUD     -2.23580      0.400000           0   0.00000       0.00000    
      9094 MEMB     50       POPE     H15X     HDA2A    0.780000E-01   1.00800           0   0.00000       0.00000    
      9095 MEMB     50       POPE     H15Y     HDA2A    0.780000E-01   1.00800           0   0.00000       0.00000    
      9096 MEMB     50       POPE     C316     CD33A     2.30820       11.6110           0  -2.05100       1.30000    
      9097 MEMB     50       POPE     DC316    DRUD     -2.48520      0.400000           0   0.00000       0.00000    
      9098 MEMB     50       POPE     H16X     HDA3A    0.590000E-01   1.00800           0   0.00000       0.00000    
      9099 MEMB     50       POPE     H16Y     HDA3A    0.590000E-01   1.00800           0   0.00000       0.00000    
      9100 MEMB     50       POPE     H16Z     HDA3A    0.590000E-01   1.00800           0   0.00000       0.00000    
      9101 MEMB     51       POPE     N        ND3P3A    1.62810       13.6070           0  -1.29800      0.895000    
      9102 MEMB     51       POPE     DN       DRUD     -1.97710      0.400000           0   0.00000       0.00000    
      9103 MEMB     51       POPE     HN1      HDP1B    0.340000       1.00800           0   0.00000       0.00000    
      9104 MEMB     51       POPE     HN2      HDP1B    0.340000       1.00800           0   0.00000       0.00000    
      9105 MEMB     51       POPE     HN3      HDP1B    0.340000       1.00800           0   0.00000       0.00000    
      9106 MEMB     51       POPE     C12      CD32A     2.27610       11.6110           0  -1.65600      0.895000    
      9107 MEMB     51       POPE     DC12     DRUD     -2.23310      0.400000           0   0.00000       0.00000    
      9108 MEMB     51       POPE     H12A     HDA2A    0.143000       1.00800           0   0.00000       0.00000    
      9109 MEMB     51       POPE     H12B     HDA2A    0.143000       1.00800           0   0.00000       0.00000    
      9110 MEMB     51       POPE     C11      CD32A     2.42220       11.6110           0  -1.64200      0.862000    
      9111 MEMB     51       POPE     DC11     DRUD     -2.22370      0.400000           0   0.00000       0.00000    
      9112 MEMB     51       POPE     H11A     HDA2A    0.260000E-01   1.00800           0   0.00000       0.00000    
      9113 MEMB     51       POPE     H11B     HDA2A    0.260000E-01   1.00800           0   0.00000       0.00000    
      9114 MEMB     51       POPE     P        PD1A      2.90360       30.5740           0 -0.974000       2.09800    
      9115 MEMB     51       POPE     DP       DRUD     -1.71260      0.400000           0   0.00000       0.00000    
      9116 MEMB     51       POPE     O13      OD2C2B   0.798400       15.5994           0 -0.931000       1.08300    
      9117 MEMB     51       POPE     DO13     DRUD     -1.67440      0.400000           0   0.00000       0.00000    
      9118 MEMB     51       POPE     O14      OD2C2B   0.798400       15.5994           0 -0.931000       1.08300    
      9119 MEMB     51       POPE     DO14     DRUD     -1.67440      0.400000           0   0.00000       0.00000    
      9120 MEMB     51       POPE     O11      OD30B     1.17720       15.5994           0 -0.901000      0.181000    
      9121 MEMB     51       POPE     DO11     DRUD     -1.64720      0.400000           0   0.00000       0.00000    
      9122 MEMB     51       POPE     O12      OD30B     1.17720       15.5994           0 -0.901000      0.181000    
      9123 MEMB     51       POPE     DO12     DRUD     -1.64720      0.400000           0   0.00000       0.00000    
      9124 MEMB     51       POPE     C1       CD32A     2.42220       11.6110           0  -1.64200      0.862000    
      9125 MEMB     51       POPE     DC1      DRUD     -2.22370      0.400000           0   0.00000       0.00000    
      9126 MEMB     51       POPE     HA       HDA2A    0.260000E-01   1.00800           0   0.00000       0.00000    
      9127 MEMB     51       POPE     HB       HDA2A    0.260000E-01   1.00800           0   0.00000       0.00000    
      9128 MEMB     51       POPE     C2       CD31C     2.52830       11.6110           0  -1.79700      0.410000    
      9129 MEMB     51       POPE     DC2      DRUD     -2.32630      0.400000           0   0.00000       0.00000    
      9130 MEMB     51       POPE     HS       HDA1A    0.116000       1.00800           0   0.00000       0.00000    
      9131 MEMB     51       POPE     O21      OD30CL    1.48470       15.5994           0 -0.732000      0.601000    
      9132 MEMB     51       POPE     DO21     DRUD     -1.48470      0.400000           0   0.00000       0.00000    
      9133 MEMB     51       POPE     C21      CD2O3B    2.72820       11.6110           0  -1.37000       1.74700    
      9134 MEMB     51       POPE     DC21     DRUD     -2.03120      0.400000           0   0.00000       0.00000    
      9135 MEMB     51       POPE     O22      OD2C3B    1.64990       15.5994           0 -0.904000      0.565000    
      9136 MEMB     51       POPE     DO22     DRUD     -1.64990      0.400000           0   0.00000       0.00000    
      9137 MEMB     51       POPE     C22      CD32C     2.24380       11.6110           0  -1.99300      0.410000    
      9138 MEMB     51       POPE     DC22     DRUD     -2.44980      0.400000           0   0.00000       0.00000    
      9139 MEMB     51       POPE     H2R      HDA2A    0.690000E-01   1.00800           0   0.00000       0.00000    
      9140 MEMB     51       POPE     H2S      HDA2A    0.690000E-01   1.00800           0   0.00000       0.00000    
      9141 MEMB     51       POPE     LP1A     LPD     -0.349000       0.00000          -1   0.00000       0.00000    
      9142 MEMB     51       POPE     LP1B     LPD     -0.258000       0.00000          -1   0.00000       0.00000    
      9143 MEMB     51       POPE     LPMA     LPD     -0.170000       0.00000          -1   0.00000       0.00000    
      9144 MEMB     51       POPE     LPMB     LPD     -0.170000       0.00000          -1   0.00000       0.00000    
      9145 MEMB     51       POPE     C3       CD32C     2.41230       11.6110           0  -1.79700      0.410000    
      9146 MEMB     51       POPE     DC3      DRUD     -2.32630      0.400000           0   0.00000       0.00000    
      9147 MEMB     51       POPE     HX       HDA2A    0.116000       1.00800           0   0.00000       0.00000    
      9148 MEMB     51       POPE     HY       HDA2A    0.116000       1.00800           0   0.00000       0.00000    
      9149 MEMB     51       POPE     O31      OD30CL    1.48470       15.5994           0 -0.732000      0.601000    
      9150 MEMB     51       POPE     DO31     DRUD     -1.48470      0.400000           0   0.00000       0.00000    
      9151 MEMB     51       POPE     C31      CD2O3B    2.72820       11.6110           0  -1.37000       1.74700    
      9152 MEMB     51       POPE     DC31     DRUD     -2.03120      0.400000           0   0.00000       0.00000    
      9153 MEMB     51       POPE     O32      OD2C3B    1.64990       15.5994           0 -0.904000      0.565000    
      9154 MEMB     51       POPE     DO32     DRUD     -1.64990      0.400000           0   0.00000       0.00000    
      9155 MEMB     51       POPE     C32      CD32C     2.24380       11.6110           0  -1.99300      0.410000    
      9156 MEMB     51       POPE     DC32     DRUD     -2.44980      0.400000           0   0.00000       0.00000    
      9157 MEMB     51       POPE     H2X      HDA2A    0.690000E-01   1.00800           0   0.00000       0.00000    
      9158 MEMB     51       POPE     H2Y      HDA2A    0.690000E-01   1.00800           0   0.00000       0.00000    
      9159 MEMB     51       POPE     LP1C     LPD     -0.349000       0.00000          -1   0.00000       0.00000    
      9160 MEMB     51       POPE     LP1D     LPD     -0.258000       0.00000          -1   0.00000       0.00000    
      9161 MEMB     51       POPE     LPMC     LPD     -0.170000       0.00000          -1   0.00000       0.00000    
      9162 MEMB     51       POPE     LPMD     LPD     -0.170000       0.00000          -1   0.00000       0.00000    
      9163 MEMB     51       POPE     C23      CD32A     2.07980       11.6110           0  -1.66000       1.30000    
      9164 MEMB     51       POPE     DC23     DRUD     -2.23580      0.400000           0   0.00000       0.00000    
      9165 MEMB     51       POPE     H3R      HDA2A    0.780000E-01   1.00800           0   0.00000       0.00000    
      9166 MEMB     51       POPE     H3S      HDA2A    0.780000E-01   1.00800           0   0.00000       0.00000    
      9167 MEMB     51       POPE     C24      CD32A     2.07980       11.6110           0  -1.66000       1.30000    
      9168 MEMB     51       POPE     DC24     DRUD     -2.23580      0.400000           0   0.00000       0.00000    
      9169 MEMB     51       POPE     H4R      HDA2A    0.780000E-01   1.00800           0   0.00000       0.00000    
      9170 MEMB     51       POPE     H4S      HDA2A    0.780000E-01   1.00800           0   0.00000       0.00000    
      9171 MEMB     51       POPE     C25      CD32A     2.07980       11.6110           0  -1.66000       1.30000    
      9172 MEMB     51       POPE     DC25     DRUD     -2.23580      0.400000           0   0.00000       0.00000    
      9173 MEMB     51       POPE     H5R      HDA2A    0.780000E-01   1.00800           0   0.00000       0.00000    
      9174 MEMB     51       POPE     H5S      HDA2A    0.780000E-01   1.00800           0   0.00000       0.00000    
      9175 MEMB     51       POPE     C26      CD32A     2.07980       11.6110           0  -1.66000       1.30000    
      9176 MEMB     51       POPE     DC26     DRUD     -2.23580      0.400000           0   0.00000       0.00000    
      9177 MEMB     51       POPE     H6R      HDA2A    0.780000E-01   1.00800           0   0.00000       0.00000    
      9178 MEMB     51       POPE     H6S      HDA2A    0.780000E-01   1.00800           0   0.00000       0.00000    
      9179 MEMB     51       POPE     C27      CD32A     2.07980       11.6110           0  -1.66000       1.30000    
      9180 MEMB     51       POPE     DC27     DRUD     -2.23580      0.400000           0   0.00000       0.00000    
      9181 MEMB     51       POPE     H7R      HDA2A    0.780000E-01   1.00800           0   0.00000       0.00000    
      9182 MEMB     51       POPE     H7S      HDA2A    0.780000E-01   1.00800           0   0.00000       0.00000    
      9183 MEMB     51       POPE     C28      CD32A     2.07980       11.6110           0  -1.66000       1.30000    
      9184 MEMB     51       POPE     DC28     DRUD     -2.23580      0.400000           0   0.00000       0.00000    
      9185 MEMB     51       POPE     H8R      HDA2A    0.780000E-01   1.00800           0   0.00000       0.00000    
      9186 MEMB     51       POPE     H8S      HDA2A    0.780000E-01   1.00800           0   0.00000       0.00000    
      9187 MEMB     51       POPE     C29      CD2C1A    2.33700       11.6110           0  -1.99000      0.750000    
      9188 MEMB     51       POPE     DC29     DRUD     -2.44800      0.400000           0   0.00000       0.00000    
      9189 MEMB     51       POPE     H91      HD2C1A   0.111000       1.00800           0   0.00000       0.00000    
      9190 MEMB     51       POPE     C210     CD2C1A    2.33700       11.6110           0  -1.99000      0.750000    
      9191 MEMB     51       POPE     DC210    DRUD     -2.44800      0.400000           0   0.00000       0.00000    
      9192 MEMB     51       POPE     H101     HD2C1A   0.111000       1.00800           0   0.00000       0.00000    
      9193 MEMB     51       POPE     C211     CD32A     2.07980       11.6110           0  -1.66000       1.30000    
      9194 MEMB     51       POPE     DC211    DRUD     -2.23580      0.400000           0   0.00000       0.00000    
      9195 MEMB     51       POPE     H11R     HDA2A    0.780000E-01   1.00800           0   0.00000       0.00000    
      9196 MEMB     51       POPE     H11S     HDA2A    0.780000E-01   1.00800           0   0.00000       0.00000    
      9197 MEMB     51       POPE     C212     CD32A     2.07980       11.6110           0  -1.66000       1.30000    
      9198 MEMB     51       POPE     DC212    DRUD     -2.23580      0.400000           0   0.00000       0.00000    
      9199 MEMB     51       POPE     H12R     HDA2A    0.780000E-01   1.00800           0   0.00000       0.00000    
      9200 MEMB     51       POPE     H12S     HDA2A    0.780000E-01   1.00800           0   0.00000       0.00000    
      9201 MEMB     51       POPE     C213     CD32A     2.07980       11.6110           0  -1.66000       1.30000    
      9202 MEMB     51       POPE     DC213    DRUD     -2.23580      0.400000           0   0.00000       0.00000    
      9203 MEMB     51       POPE     H13R     HDA2A    0.780000E-01   1.00800           0   0.00000       0.00000    
      9204 MEMB     51       POPE     H13S     HDA2A    0.780000E-01   1.00800           0   0.00000       0.00000    
      9205 MEMB     51       POPE     C214     CD32A     2.07980       11.6110           0  -1.66000       1.30000    
      9206 MEMB     51       POPE     DC214    DRUD     -2.23580      0.400000           0   0.00000       0.00000    
      9207 MEMB     51       POPE     H14R     HDA2A    0.780000E-01   1.00800           0   0.00000       0.00000    
      9208 MEMB     51       POPE     H14S     HDA2A    0.780000E-01   1.00800           0   0.00000       0.00000    
      9209 MEMB     51       POPE     C215     CD32A     2.07980       11.6110           0  -1.66000       1.30000    
      9210 MEMB     51       POPE     DC215    DRUD     -2.23580      0.400000           0   0.00000       0.00000    
      9211 MEMB     51       POPE     H15R     HDA2A    0.780000E-01   1.00800           0   0.00000       0.00000    
      9212 MEMB     51       POPE     H15S     HDA2A    0.780000E-01   1.00800           0   0.00000       0.00000    
      9213 MEMB     51       POPE     C216     CD32A     2.07980       11.6110           0  -1.66000       1.30000    
      9214 MEMB     51       POPE     DC216    DRUD     -2.23580      0.400000           0   0.00000       0.00000    
      9215 MEMB     51       POPE     H16R     HDA2A    0.780000E-01   1.00800           0   0.00000       0.00000    
      9216 MEMB     51       POPE     H16S     HDA2A    0.780000E-01   1.00800           0   0.00000       0.00000    
      9217 MEMB     51       POPE     C217     CD32A     2.07980       11.6110           0  -1.66000       1.30000    
      9218 MEMB     51       POPE     DC217    DRUD     -2.23580      0.400000           0   0.00000       0.00000    
      9219 MEMB     51       POPE     H17R     HDA2A    0.780000E-01   1.00800           0   0.00000       0.00000    
      9220 MEMB     51       POPE     H17S     HDA2A    0.780000E-01   1.00800           0   0.00000       0.00000    
      9221 MEMB     51       POPE     C218     CD33A     2.30820       11.6110           0  -2.05100       1.30000    
      9222 MEMB     51       POPE     DC218    DRUD     -2.48520      0.400000           0   0.00000       0.00000    
      9223 MEMB     51       POPE     H18R     HDA3A    0.590000E-01   1.00800           0   0.00000       0.00000    
      9224 MEMB     51       POPE     H18S     HDA3A    0.590000E-01   1.00800           0   0.00000       0.00000    
      9225 MEMB     51       POPE     H18T     HDA3A    0.590000E-01   1.00800           0   0.00000       0.00000    
      9226 MEMB     51       POPE     C33      CD32A     2.07980       11.6110           0  -1.66000       1.30000    
      9227 MEMB     51       POPE     DC33     DRUD     -2.23580      0.400000           0   0.00000       0.00000    
      9228 MEMB     51       POPE     H3X      HDA2A    0.780000E-01   1.00800           0   0.00000       0.00000    
      9229 MEMB     51       POPE     H3Y      HDA2A    0.780000E-01   1.00800           0   0.00000       0.00000    
      9230 MEMB     51       POPE     C34      CD32A     2.07980       11.6110           0  -1.66000       1.30000    
      9231 MEMB     51       POPE     DC34     DRUD     -2.23580      0.400000           0   0.00000       0.00000    
      9232 MEMB     51       POPE     H4X      HDA2A    0.780000E-01   1.00800           0   0.00000       0.00000    
      9233 MEMB     51       POPE     H4Y      HDA2A    0.780000E-01   1.00800           0   0.00000       0.00000    
      9234 MEMB     51       POPE     C35      CD32A     2.07980       11.6110           0  -1.66000       1.30000    
      9235 MEMB     51       POPE     DC35     DRUD     -2.23580      0.400000           0   0.00000       0.00000    
      9236 MEMB     51       POPE     H5X      HDA2A    0.780000E-01   1.00800           0   0.00000       0.00000    
      9237 MEMB     51       POPE     H5Y      HDA2A    0.780000E-01   1.00800           0   0.00000       0.00000    
      9238 MEMB     51       POPE     C36      CD32A     2.07980       11.6110           0  -1.66000       1.30000    
      9239 MEMB     51       POPE     DC36     DRUD     -2.23580      0.400000           0   0.00000       0.00000    
      9240 MEMB     51       POPE     H6X      HDA2A    0.780000E-01   1.00800           0   0.00000       0.00000    
      9241 MEMB     51       POPE     H6Y      HDA2A    0.780000E-01   1.00800           0   0.00000       0.00000    
      9242 MEMB     51       POPE     C37      CD32A     2.07980       11.6110           0  -1.66000       1.30000    
      9243 MEMB     51       POPE     DC37     DRUD     -2.23580      0.400000           0   0.00000       0.00000    
      9244 MEMB     51       POPE     H7X      HDA2A    0.780000E-01   1.00800           0   0.00000       0.00000    
      9245 MEMB     51       POPE     H7Y      HDA2A    0.780000E-01   1.00800           0   0.00000       0.00000    
      9246 MEMB     51       POPE     C38      CD32A     2.07980       11.6110           0  -1.66000       1.30000    
      9247 MEMB     51       POPE     DC38     DRUD     -2.23580      0.400000           0   0.00000       0.00000    
      9248 MEMB     51       POPE     H8X      HDA2A    0.780000E-01   1.00800           0   0.00000       0.00000    
      9249 MEMB     51       POPE     H8Y      HDA2A    0.780000E-01   1.00800           0   0.00000       0.00000    
      9250 MEMB     51       POPE     C39      CD32A     2.07980       11.6110           0  -1.66000       1.30000    
      9251 MEMB     51       POPE     DC39     DRUD     -2.23580      0.400000           0   0.00000       0.00000    
      9252 MEMB     51       POPE     H9X      HDA2A    0.780000E-01   1.00800           0   0.00000       0.00000    
      9253 MEMB     51       POPE     H9Y      HDA2A    0.780000E-01   1.00800           0   0.00000       0.00000    
      9254 MEMB     51       POPE     C310     CD32A     2.07980       11.6110           0  -1.66000       1.30000    
      9255 MEMB     51       POPE     DC310    DRUD     -2.23580      0.400000           0   0.00000       0.00000    
      9256 MEMB     51       POPE     H10X     HDA2A    0.780000E-01   1.00800           0   0.00000       0.00000    
      9257 MEMB     51       POPE     H10Y     HDA2A    0.780000E-01   1.00800           0   0.00000       0.00000    
      9258 MEMB     51       POPE     C311     CD32A     2.07980       11.6110           0  -1.66000       1.30000    
      9259 MEMB     51       POPE     DC311    DRUD     -2.23580      0.400000           0   0.00000       0.00000    
      9260 MEMB     51       POPE     H11X     HDA2A    0.780000E-01   1.00800           0   0.00000       0.00000    
      9261 MEMB     51       POPE     H11Y     HDA2A    0.780000E-01   1.00800           0   0.00000       0.00000    
      9262 MEMB     51       POPE     C312     CD32A     2.07980       11.6110           0  -1.66000       1.30000    
      9263 MEMB     51       POPE     DC312    DRUD     -2.23580      0.400000           0   0.00000       0.00000    
      9264 MEMB     51       POPE     H12X     HDA2A    0.780000E-01   1.00800           0   0.00000       0.00000    
      9265 MEMB     51       POPE     H12Y     HDA2A    0.780000E-01   1.00800           0   0.00000       0.00000    
      9266 MEMB     51       POPE     C313     CD32A     2.07980       11.6110           0  -1.66000       1.30000    
      9267 MEMB     51       POPE     DC313    DRUD     -2.23580      0.400000           0   0.00000       0.00000    
      9268 MEMB     51       POPE     H13X     HDA2A    0.780000E-01   1.00800           0   0.00000       0.00000    
      9269 MEMB     51       POPE     H13Y     HDA2A    0.780000E-01   1.00800           0   0.00000       0.00000    
      9270 MEMB     51       POPE     C314     CD32A     2.07980       11.6110           0  -1.66000       1.30000    
      9271 MEMB     51       POPE     DC314    DRUD     -2.23580      0.400000           0   0.00000       0.00000    
      9272 MEMB     51       POPE     H14X     HDA2A    0.780000E-01   1.00800           0   0.00000       0.00000    
      9273 MEMB     51       POPE     H14Y     HDA2A    0.780000E-01   1.00800           0   0.00000       0.00000    
      9274 MEMB     51       POPE     C315     CD32A     2.07980       11.6110           0  -1.66000       1.30000    
      9275 MEMB     51       POPE     DC315    DRUD     -2.23580      0.400000           0   0.00000       0.00000    
      9276 MEMB     51       POPE     H15X     HDA2A    0.780000E-01   1.00800           0   0.00000       0.00000    
      9277 MEMB     51       POPE     H15Y     HDA2A    0.780000E-01   1.00800           0   0.00000       0.00000    
      9278 MEMB     51       POPE     C316     CD33A     2.30820       11.6110           0  -2.05100       1.30000    
      9279 MEMB     51       POPE     DC316    DRUD     -2.48520      0.400000           0   0.00000       0.00000    
      9280 MEMB     51       POPE     H16X     HDA3A    0.590000E-01   1.00800           0   0.00000       0.00000    
      9281 MEMB     51       POPE     H16Y     HDA3A    0.590000E-01   1.00800           0   0.00000       0.00000    
      9282 MEMB     51       POPE     H16Z     HDA3A    0.590000E-01   1.00800           0   0.00000       0.00000    
      9283 MEMB     52       POPE     N        ND3P3A    1.62810       13.6070           0  -1.29800      0.895000    
      9284 MEMB     52       POPE     DN       DRUD     -1.97710      0.400000           0   0.00000       0.00000    
      9285 MEMB     52       POPE     HN1      HDP1B    0.340000       1.00800           0   0.00000       0.00000    
      9286 MEMB     52       POPE     HN2      HDP1B    0.340000       1.00800           0   0.00000       0.00000    
      9287 MEMB     52       POPE     HN3      HDP1B    0.340000       1.00800           0   0.00000       0.00000    
      9288 MEMB     52       POPE     C12      CD32A     2.27610       11.6110           0  -1.65600      0.895000    
      9289 MEMB     52       POPE     DC12     DRUD     -2.23310      0.400000           0   0.00000       0.00000    
      9290 MEMB     52       POPE     H12A     HDA2A    0.143000       1.00800           0   0.00000       0.00000    
      9291 MEMB     52       POPE     H12B     HDA2A    0.143000       1.00800           0   0.00000       0.00000    
      9292 MEMB     52       POPE     C11      CD32A     2.42220       11.6110           0  -1.64200      0.862000    
      9293 MEMB     52       POPE     DC11     DRUD     -2.22370      0.400000           0   0.00000       0.00000    
      9294 MEMB     52       POPE     H11A     HDA2A    0.260000E-01   1.00800           0   0.00000       0.00000    
      9295 MEMB     52       POPE     H11B     HDA2A    0.260000E-01   1.00800           0   0.00000       0.00000    
      9296 MEMB     52       POPE     P        PD1A      2.90360       30.5740           0 -0.974000       2.09800    
      9297 MEMB     52       POPE     DP       DRUD     -1.71260      0.400000           0   0.00000       0.00000    
      9298 MEMB     52       POPE     O13      OD2C2B   0.798400       15.5994           0 -0.931000       1.08300    
      9299 MEMB     52       POPE     DO13     DRUD     -1.67440      0.400000           0   0.00000       0.00000    
      9300 MEMB     52       POPE     O14      OD2C2B   0.798400       15.5994           0 -0.931000       1.08300    
      9301 MEMB     52       POPE     DO14     DRUD     -1.67440      0.400000           0   0.00000       0.00000    
      9302 MEMB     52       POPE     O11      OD30B     1.17720       15.5994           0 -0.901000      0.181000    
      9303 MEMB     52       POPE     DO11     DRUD     -1.64720      0.400000           0   0.00000       0.00000    
      9304 MEMB     52       POPE     O12      OD30B     1.17720       15.5994           0 -0.901000      0.181000    
      9305 MEMB     52       POPE     DO12     DRUD     -1.64720      0.400000           0   0.00000       0.00000    
      9306 MEMB     52       POPE     C1       CD32A     2.42220       11.6110           0  -1.64200      0.862000    
      9307 MEMB     52       POPE     DC1      DRUD     -2.22370      0.400000           0   0.00000       0.00000    
      9308 MEMB     52       POPE     HA       HDA2A    0.260000E-01   1.00800           0   0.00000       0.00000    
      9309 MEMB     52       POPE     HB       HDA2A    0.260000E-01   1.00800           0   0.00000       0.00000    
      9310 MEMB     52       POPE     C2       CD31C     2.52830       11.6110           0  -1.79700      0.410000    
      9311 MEMB     52       POPE     DC2      DRUD     -2.32630      0.400000           0   0.00000       0.00000    
      9312 MEMB     52       POPE     HS       HDA1A    0.116000       1.00800           0   0.00000       0.00000    
      9313 MEMB     52       POPE     O21      OD30CL    1.48470       15.5994           0 -0.732000      0.601000    
      9314 MEMB     52       POPE     DO21     DRUD     -1.48470      0.400000           0   0.00000       0.00000    
      9315 MEMB     52       POPE     C21      CD2O3B    2.72820       11.6110           0  -1.37000       1.74700    
      9316 MEMB     52       POPE     DC21     DRUD     -2.03120      0.400000           0   0.00000       0.00000    
      9317 MEMB     52       POPE     O22      OD2C3B    1.64990       15.5994           0 -0.904000      0.565000    
      9318 MEMB     52       POPE     DO22     DRUD     -1.64990      0.400000           0   0.00000       0.00000    
      9319 MEMB     52       POPE     C22      CD32C     2.24380       11.6110           0  -1.99300      0.410000    
      9320 MEMB     52       POPE     DC22     DRUD     -2.44980      0.400000           0   0.00000       0.00000    
      9321 MEMB     52       POPE     H2R      HDA2A    0.690000E-01   1.00800           0   0.00000       0.00000    
      9322 MEMB     52       POPE     H2S      HDA2A    0.690000E-01   1.00800           0   0.00000       0.00000    
      9323 MEMB     52       POPE     LP1A     LPD     -0.349000       0.00000          -1   0.00000       0.00000    
      9324 MEMB     52       POPE     LP1B     LPD     -0.258000       0.00000          -1   0.00000       0.00000    
      9325 MEMB     52       POPE     LPMA     LPD     -0.170000       0.00000          -1   0.00000       0.00000    
      9326 MEMB     52       POPE     LPMB     LPD     -0.170000       0.00000          -1   0.00000       0.00000    
      9327 MEMB     52       POPE     C3       CD32C     2.41230       11.6110           0  -1.79700      0.410000    
      9328 MEMB     52       POPE     DC3      DRUD     -2.32630      0.400000           0   0.00000       0.00000    
      9329 MEMB     52       POPE     HX       HDA2A    0.116000       1.00800           0   0.00000       0.00000    
      9330 MEMB     52       POPE     HY       HDA2A    0.116000       1.00800           0   0.00000       0.00000    
      9331 MEMB     52       POPE     O31      OD30CL    1.48470       15.5994           0 -0.732000      0.601000    
      9332 MEMB     52       POPE     DO31     DRUD     -1.48470      0.400000           0   0.00000       0.00000    
      9333 MEMB     52       POPE     C31      CD2O3B    2.72820       11.6110           0  -1.37000       1.74700    
      9334 MEMB     52       POPE     DC31     DRUD     -2.03120      0.400000           0   0.00000       0.00000    
      9335 MEMB     52       POPE     O32      OD2C3B    1.64990       15.5994           0 -0.904000      0.565000    
      9336 MEMB     52       POPE     DO32     DRUD     -1.64990      0.400000           0   0.00000       0.00000    
      9337 MEMB     52       POPE     C32      CD32C     2.24380       11.6110           0  -1.99300      0.410000    
      9338 MEMB     52       POPE     DC32     DRUD     -2.44980      0.400000           0   0.00000       0.00000    
      9339 MEMB     52       POPE     H2X      HDA2A    0.690000E-01   1.00800           0   0.00000       0.00000    
      9340 MEMB     52       POPE     H2Y      HDA2A    0.690000E-01   1.00800           0   0.00000       0.00000    
      9341 MEMB     52       POPE     LP1C     LPD     -0.349000       0.00000          -1   0.00000       0.00000    
      9342 MEMB     52       POPE     LP1D     LPD     -0.258000       0.00000          -1   0.00000       0.00000    
      9343 MEMB     52       POPE     LPMC     LPD     -0.170000       0.00000          -1   0.00000       0.00000    
      9344 MEMB     52       POPE     LPMD     LPD     -0.170000       0.00000          -1   0.00000       0.00000    
      9345 MEMB     52       POPE     C23      CD32A     2.07980       11.6110           0  -1.66000       1.30000    
      9346 MEMB     52       POPE     DC23     DRUD     -2.23580      0.400000           0   0.00000       0.00000    
      9347 MEMB     52       POPE     H3R      HDA2A    0.780000E-01   1.00800           0   0.00000       0.00000    
      9348 MEMB     52       POPE     H3S      HDA2A    0.780000E-01   1.00800           0   0.00000       0.00000    
      9349 MEMB     52       POPE     C24      CD32A     2.07980       11.6110           0  -1.66000       1.30000    
      9350 MEMB     52       POPE     DC24     DRUD     -2.23580      0.400000           0   0.00000       0.00000    
      9351 MEMB     52       POPE     H4R      HDA2A    0.780000E-01   1.00800           0   0.00000       0.00000    
      9352 MEMB     52       POPE     H4S      HDA2A    0.780000E-01   1.00800           0   0.00000       0.00000    
      9353 MEMB     52       POPE     C25      CD32A     2.07980       11.6110           0  -1.66000       1.30000    
      9354 MEMB     52       POPE     DC25     DRUD     -2.23580      0.400000           0   0.00000       0.00000    
      9355 MEMB     52       POPE     H5R      HDA2A    0.780000E-01   1.00800           0   0.00000       0.00000    
      9356 MEMB     52       POPE     H5S      HDA2A    0.780000E-01   1.00800           0   0.00000       0.00000    
      9357 MEMB     52       POPE     C26      CD32A     2.07980       11.6110           0  -1.66000       1.30000    
      9358 MEMB     52       POPE     DC26     DRUD     -2.23580      0.400000           0   0.00000       0.00000    
      9359 MEMB     52       POPE     H6R      HDA2A    0.780000E-01   1.00800           0   0.00000       0.00000    
      9360 MEMB     52       POPE     H6S      HDA2A    0.780000E-01   1.00800           0   0.00000       0.00000    
      9361 MEMB     52       POPE     C27      CD32A     2.07980       11.6110           0  -1.66000       1.30000    
      9362 MEMB     52       POPE     DC27     DRUD     -2.23580      0.400000           0   0.00000       0.00000    
      9363 MEMB     52       POPE     H7R      HDA2A    0.780000E-01   1.00800           0   0.00000       0.00000    
      9364 MEMB     52       POPE     H7S      HDA2A    0.780000E-01   1.00800           0   0.00000       0.00000    
      9365 MEMB     52       POPE     C28      CD32A     2.07980       11.6110           0  -1.66000       1.30000    
      9366 MEMB     52       POPE     DC28     DRUD     -2.23580      0.400000           0   0.00000       0.00000    
      9367 MEMB     52       POPE     H8R      HDA2A    0.780000E-01   1.00800           0   0.00000       0.00000    
      9368 MEMB     52       POPE     H8S      HDA2A    0.780000E-01   1.00800           0   0.00000       0.00000    
      9369 MEMB     52       POPE     C29      CD2C1A    2.33700       11.6110           0  -1.99000      0.750000    
      9370 MEMB     52       POPE     DC29     DRUD     -2.44800      0.400000           0   0.00000       0.00000    
      9371 MEMB     52       POPE     H91      HD2C1A   0.111000       1.00800           0   0.00000       0.00000    
      9372 MEMB     52       POPE     C210     CD2C1A    2.33700       11.6110           0  -1.99000      0.750000    
      9373 MEMB     52       POPE     DC210    DRUD     -2.44800      0.400000           0   0.00000       0.00000    
      9374 MEMB     52       POPE     H101     HD2C1A   0.111000       1.00800           0   0.00000       0.00000    
      9375 MEMB     52       POPE     C211     CD32A     2.07980       11.6110           0  -1.66000       1.30000    
      9376 MEMB     52       POPE     DC211    DRUD     -2.23580      0.400000           0   0.00000       0.00000    
      9377 MEMB     52       POPE     H11R     HDA2A    0.780000E-01   1.00800           0   0.00000       0.00000    
      9378 MEMB     52       POPE     H11S     HDA2A    0.780000E-01   1.00800           0   0.00000       0.00000    
      9379 MEMB     52       POPE     C212     CD32A     2.07980       11.6110           0  -1.66000       1.30000    
      9380 MEMB     52       POPE     DC212    DRUD     -2.23580      0.400000           0   0.00000       0.00000    
      9381 MEMB     52       POPE     H12R     HDA2A    0.780000E-01   1.00800           0   0.00000       0.00000    
      9382 MEMB     52       POPE     H12S     HDA2A    0.780000E-01   1.00800           0   0.00000       0.00000    
      9383 MEMB     52       POPE     C213     CD32A     2.07980       11.6110           0  -1.66000       1.30000    
      9384 MEMB     52       POPE     DC213    DRUD     -2.23580      0.400000           0   0.00000       0.00000    
      9385 MEMB     52       POPE     H13R     HDA2A    0.780000E-01   1.00800           0   0.00000       0.00000    
      9386 MEMB     52       POPE     H13S     HDA2A    0.780000E-01   1.00800           0   0.00000       0.00000    
      9387 MEMB     52       POPE     C214     CD32A     2.07980       11.6110           0  -1.66000       1.30000    
      9388 MEMB     52       POPE     DC214    DRUD     -2.23580      0.400000           0   0.00000       0.00000    
      9389 MEMB     52       POPE     H14R     HDA2A    0.780000E-01   1.00800           0   0.00000       0.00000    
      9390 MEMB     52       POPE     H14S     HDA2A    0.780000E-01   1.00800           0   0.00000       0.00000    
      9391 MEMB     52       POPE     C215     CD32A     2.07980       11.6110           0  -1.66000       1.30000    
      9392 MEMB     52       POPE     DC215    DRUD     -2.23580      0.400000           0   0.00000       0.00000    
      9393 MEMB     52       POPE     H15R     HDA2A    0.780000E-01   1.00800           0   0.00000       0.00000    
      9394 MEMB     52       POPE     H15S     HDA2A    0.780000E-01   1.00800           0   0.00000       0.00000    
      9395 MEMB     52       POPE     C216     CD32A     2.07980       11.6110           0  -1.66000       1.30000    
      9396 MEMB     52       POPE     DC216    DRUD     -2.23580      0.400000           0   0.00000       0.00000    
      9397 MEMB     52       POPE     H16R     HDA2A    0.780000E-01   1.00800           0   0.00000       0.00000    
      9398 MEMB     52       POPE     H16S     HDA2A    0.780000E-01   1.00800           0   0.00000       0.00000    
      9399 MEMB     52       POPE     C217     CD32A     2.07980       11.6110           0  -1.66000       1.30000    
      9400 MEMB     52       POPE     DC217    DRUD     -2.23580      0.400000           0   0.00000       0.00000    
      9401 MEMB     52       POPE     H17R     HDA2A    0.780000E-01   1.00800           0   0.00000       0.00000    
      9402 MEMB     52       POPE     H17S     HDA2A    0.780000E-01   1.00800           0   0.00000       0.00000    
      9403 MEMB     52       POPE     C218     CD33A     2.30820       11.6110           0  -2.05100       1.30000    
      9404 MEMB     52       POPE     DC218    DRUD     -2.48520      0.400000           0   0.00000       0.00000    
      9405 MEMB     52       POPE     H18R     HDA3A    0.590000E-01   1.00800           0   0.00000       0.00000    
      9406 MEMB     52       POPE     H18S     HDA3A    0.590000E-01   1.00800           0   0.00000       0.00000    
      9407 MEMB     52       POPE     H18T     HDA3A    0.590000E-01   1.00800           0   0.00000       0.00000    
      9408 MEMB     52       POPE     C33      CD32A     2.07980       11.6110           0  -1.66000       1.30000    
      9409 MEMB     52       POPE     DC33     DRUD     -2.23580      0.400000           0   0.00000       0.00000    
      9410 MEMB     52       POPE     H3X      HDA2A    0.780000E-01   1.00800           0   0.00000       0.00000    
      9411 MEMB     52       POPE     H3Y      HDA2A    0.780000E-01   1.00800           0   0.00000       0.00000    
      9412 MEMB     52       POPE     C34      CD32A     2.07980       11.6110           0  -1.66000       1.30000    
      9413 MEMB     52       POPE     DC34     DRUD     -2.23580      0.400000           0   0.00000       0.00000    
      9414 MEMB     52       POPE     H4X      HDA2A    0.780000E-01   1.00800           0   0.00000       0.00000    
      9415 MEMB     52       POPE     H4Y      HDA2A    0.780000E-01   1.00800           0   0.00000       0.00000    
      9416 MEMB     52       POPE     C35      CD32A     2.07980       11.6110           0  -1.66000       1.30000    
      9417 MEMB     52       POPE     DC35     DRUD     -2.23580      0.400000           0   0.00000       0.00000    
      9418 MEMB     52       POPE     H5X      HDA2A    0.780000E-01   1.00800           0   0.00000       0.00000    
      9419 MEMB     52       POPE     H5Y      HDA2A    0.780000E-01   1.00800           0   0.00000       0.00000    
      9420 MEMB     52       POPE     C36      CD32A     2.07980       11.6110           0  -1.66000       1.30000    
      9421 MEMB     52       POPE     DC36     DRUD     -2.23580      0.400000           0   0.00000       0.00000    
      9422 MEMB     52       POPE     H6X      HDA2A    0.780000E-01   1.00800           0   0.00000       0.00000    
      9423 MEMB     52       POPE     H6Y      HDA2A    0.780000E-01   1.00800           0   0.00000       0.00000    
      9424 MEMB     52       POPE     C37      CD32A     2.07980       11.6110           0  -1.66000       1.30000    
      9425 MEMB     52       POPE     DC37     DRUD     -2.23580      0.400000           0   0.00000       0.00000    
      9426 MEMB     52       POPE     H7X      HDA2A    0.780000E-01   1.00800           0   0.00000       0.00000    
      9427 MEMB     52       POPE     H7Y      HDA2A    0.780000E-01   1.00800           0   0.00000       0.00000    
      9428 MEMB     52       POPE     C38      CD32A     2.07980       11.6110           0  -1.66000       1.30000    
      9429 MEMB     52       POPE     DC38     DRUD     -2.23580      0.400000           0   0.00000       0.00000    
      9430 MEMB     52       POPE     H8X      HDA2A    0.780000E-01   1.00800           0   0.00000       0.00000    
      9431 MEMB     52       POPE     H8Y      HDA2A    0.780000E-01   1.00800           0   0.00000       0.00000    
      9432 MEMB     52       POPE     C39      CD32A     2.07980       11.6110           0  -1.66000       1.30000    
      9433 MEMB     52       POPE     DC39     DRUD     -2.23580      0.400000           0   0.00000       0.00000    
      9434 MEMB     52       POPE     H9X      HDA2A    0.780000E-01   1.00800           0   0.00000       0.00000    
      9435 MEMB     52       POPE     H9Y      HDA2A    0.780000E-01   1.00800           0   0.00000       0.00000    
      9436 MEMB     52       POPE     C310     CD32A     2.07980       11.6110           0  -1.66000       1.30000    
      9437 MEMB     52       POPE     DC310    DRUD     -2.23580      0.400000           0   0.00000       0.00000    
      9438 MEMB     52       POPE     H10X     HDA2A    0.780000E-01   1.00800           0   0.00000       0.00000    
      9439 MEMB     52       POPE     H10Y     HDA2A    0.780000E-01   1.00800           0   0.00000       0.00000    
      9440 MEMB     52       POPE     C311     CD32A     2.07980       11.6110           0  -1.66000       1.30000    
      9441 MEMB     52       POPE     DC311    DRUD     -2.23580      0.400000           0   0.00000       0.00000    
      9442 MEMB     52       POPE     H11X     HDA2A    0.780000E-01   1.00800           0   0.00000       0.00000    
      9443 MEMB     52       POPE     H11Y     HDA2A    0.780000E-01   1.00800           0   0.00000       0.00000    
      9444 MEMB     52       POPE     C312     CD32A     2.07980       11.6110           0  -1.66000       1.30000    
      9445 MEMB     52       POPE     DC312    DRUD     -2.23580      0.400000           0   0.00000       0.00000    
      9446 MEMB     52       POPE     H12X     HDA2A    0.780000E-01   1.00800           0   0.00000       0.00000    
      9447 MEMB     52       POPE     H12Y     HDA2A    0.780000E-01   1.00800           0   0.00000       0.00000    
      9448 MEMB     52       POPE     C313     CD32A     2.07980       11.6110           0  -1.66000       1.30000    
      9449 MEMB     52       POPE     DC313    DRUD     -2.23580      0.400000           0   0.00000       0.00000    
      9450 MEMB     52       POPE     H13X     HDA2A    0.780000E-01   1.00800           0   0.00000       0.00000    
      9451 MEMB     52       POPE     H13Y     HDA2A    0.780000E-01   1.00800           0   0.00000       0.00000    
      9452 MEMB     52       POPE     C314     CD32A     2.07980       11.6110           0  -1.66000       1.30000    
      9453 MEMB     52       POPE     DC314    DRUD     -2.23580      0.400000           0   0.00000       0.00000    
      9454 MEMB     52       POPE     H14X     HDA2A    0.780000E-01   1.00800           0   0.00000       0.00000    
      9455 MEMB     52       POPE     H14Y     HDA2A    0.780000E-01   1.00800           0   0.00000       0.00000    
      9456 MEMB     52       POPE     C315     CD32A     2.07980       11.6110           0  -1.66000       1.30000    
      9457 MEMB     52       POPE     DC315    DRUD     -2.23580      0.400000           0   0.00000       0.00000    
      9458 MEMB     52       POPE     H15X     HDA2A    0.780000E-01   1.00800           0   0.00000       0.00000    
      9459 MEMB     52       POPE     H15Y     HDA2A    0.780000E-01   1.00800           0   0.00000       0.00000    
      9460 MEMB     52       POPE     C316     CD33A     2.30820       11.6110           0  -2.05100       1.30000    
      9461 MEMB     52       POPE     DC316    DRUD     -2.48520      0.400000           0   0.00000       0.00000    
      9462 MEMB     52       POPE     H16X     HDA3A    0.590000E-01   1.00800           0   0.00000       0.00000    
      9463 MEMB     52       POPE     H16Y     HDA3A    0.590000E-01   1.00800           0   0.00000       0.00000    
      9464 MEMB     52       POPE     H16Z     HDA3A    0.590000E-01   1.00800           0   0.00000       0.00000    
      9465 MEMB     53       POPE     N        ND3P3A    1.62810       13.6070           0  -1.29800      0.895000    
      9466 MEMB     53       POPE     DN       DRUD     -1.97710      0.400000           0   0.00000       0.00000    
      9467 MEMB     53       POPE     HN1      HDP1B    0.340000       1.00800           0   0.00000       0.00000    
      9468 MEMB     53       POPE     HN2      HDP1B    0.340000       1.00800           0   0.00000       0.00000    
      9469 MEMB     53       POPE     HN3      HDP1B    0.340000       1.00800           0   0.00000       0.00000    
      9470 MEMB     53       POPE     C12      CD32A     2.27610       11.6110           0  -1.65600      0.895000    
      9471 MEMB     53       POPE     DC12     DRUD     -2.23310      0.400000           0   0.00000       0.00000    
      9472 MEMB     53       POPE     H12A     HDA2A    0.143000       1.00800           0   0.00000       0.00000    
      9473 MEMB     53       POPE     H12B     HDA2A    0.143000       1.00800           0   0.00000       0.00000    
      9474 MEMB     53       POPE     C11      CD32A     2.42220       11.6110           0  -1.64200      0.862000    
      9475 MEMB     53       POPE     DC11     DRUD     -2.22370      0.400000           0   0.00000       0.00000    
      9476 MEMB     53       POPE     H11A     HDA2A    0.260000E-01   1.00800           0   0.00000       0.00000    
      9477 MEMB     53       POPE     H11B     HDA2A    0.260000E-01   1.00800           0   0.00000       0.00000    
      9478 MEMB     53       POPE     P        PD1A      2.90360       30.5740           0 -0.974000       2.09800    
      9479 MEMB     53       POPE     DP       DRUD     -1.71260      0.400000           0   0.00000       0.00000    
      9480 MEMB     53       POPE     O13      OD2C2B   0.798400       15.5994           0 -0.931000       1.08300    
      9481 MEMB     53       POPE     DO13     DRUD     -1.67440      0.400000           0   0.00000       0.00000    
      9482 MEMB     53       POPE     O14      OD2C2B   0.798400       15.5994           0 -0.931000       1.08300    
      9483 MEMB     53       POPE     DO14     DRUD     -1.67440      0.400000           0   0.00000       0.00000    
      9484 MEMB     53       POPE     O11      OD30B     1.17720       15.5994           0 -0.901000      0.181000    
      9485 MEMB     53       POPE     DO11     DRUD     -1.64720      0.400000           0   0.00000       0.00000    
      9486 MEMB     53       POPE     O12      OD30B     1.17720       15.5994           0 -0.901000      0.181000    
      9487 MEMB     53       POPE     DO12     DRUD     -1.64720      0.400000           0   0.00000       0.00000    
      9488 MEMB     53       POPE     C1       CD32A     2.42220       11.6110           0  -1.64200      0.862000    
      9489 MEMB     53       POPE     DC1      DRUD     -2.22370      0.400000           0   0.00000       0.00000    
      9490 MEMB     53       POPE     HA       HDA2A    0.260000E-01   1.00800           0   0.00000       0.00000    
      9491 MEMB     53       POPE     HB       HDA2A    0.260000E-01   1.00800           0   0.00000       0.00000    
      9492 MEMB     53       POPE     C2       CD31C     2.52830       11.6110           0  -1.79700      0.410000    
      9493 MEMB     53       POPE     DC2      DRUD     -2.32630      0.400000           0   0.00000       0.00000    
      9494 MEMB     53       POPE     HS       HDA1A    0.116000       1.00800           0   0.00000       0.00000    
      9495 MEMB     53       POPE     O21      OD30CL    1.48470       15.5994           0 -0.732000      0.601000    
      9496 MEMB     53       POPE     DO21     DRUD     -1.48470      0.400000           0   0.00000       0.00000    
      9497 MEMB     53       POPE     C21      CD2O3B    2.72820       11.6110           0  -1.37000       1.74700    
      9498 MEMB     53       POPE     DC21     DRUD     -2.03120      0.400000           0   0.00000       0.00000    
      9499 MEMB     53       POPE     O22      OD2C3B    1.64990       15.5994           0 -0.904000      0.565000    
      9500 MEMB     53       POPE     DO22     DRUD     -1.64990      0.400000           0   0.00000       0.00000    
      9501 MEMB     53       POPE     C22      CD32C     2.24380       11.6110           0  -1.99300      0.410000    
      9502 MEMB     53       POPE     DC22     DRUD     -2.44980      0.400000           0   0.00000       0.00000    
      9503 MEMB     53       POPE     H2R      HDA2A    0.690000E-01   1.00800           0   0.00000       0.00000    
      9504 MEMB     53       POPE     H2S      HDA2A    0.690000E-01   1.00800           0   0.00000       0.00000    
      9505 MEMB     53       POPE     LP1A     LPD     -0.349000       0.00000          -1   0.00000       0.00000    
      9506 MEMB     53       POPE     LP1B     LPD     -0.258000       0.00000          -1   0.00000       0.00000    
      9507 MEMB     53       POPE     LPMA     LPD     -0.170000       0.00000          -1   0.00000       0.00000    
      9508 MEMB     53       POPE     LPMB     LPD     -0.170000       0.00000          -1   0.00000       0.00000    
      9509 MEMB     53       POPE     C3       CD32C     2.41230       11.6110           0  -1.79700      0.410000    
      9510 MEMB     53       POPE     DC3      DRUD     -2.32630      0.400000           0   0.00000       0.00000    
      9511 MEMB     53       POPE     HX       HDA2A    0.116000       1.00800           0   0.00000       0.00000    
      9512 MEMB     53       POPE     HY       HDA2A    0.116000       1.00800           0   0.00000       0.00000    
      9513 MEMB     53       POPE     O31      OD30CL    1.48470       15.5994           0 -0.732000      0.601000    
      9514 MEMB     53       POPE     DO31     DRUD     -1.48470      0.400000           0   0.00000       0.00000    
      9515 MEMB     53       POPE     C31      CD2O3B    2.72820       11.6110           0  -1.37000       1.74700    
      9516 MEMB     53       POPE     DC31     DRUD     -2.03120      0.400000           0   0.00000       0.00000    
      9517 MEMB     53       POPE     O32      OD2C3B    1.64990       15.5994           0 -0.904000      0.565000    
      9518 MEMB     53       POPE     DO32     DRUD     -1.64990      0.400000           0   0.00000       0.00000    
      9519 MEMB     53       POPE     C32      CD32C     2.24380       11.6110           0  -1.99300      0.410000    
      9520 MEMB     53       POPE     DC32     DRUD     -2.44980      0.400000           0   0.00000       0.00000    
      9521 MEMB     53       POPE     H2X      HDA2A    0.690000E-01   1.00800           0   0.00000       0.00000    
      9522 MEMB     53       POPE     H2Y      HDA2A    0.690000E-01   1.00800           0   0.00000       0.00000    
      9523 MEMB     53       POPE     LP1C     LPD     -0.349000       0.00000          -1   0.00000       0.00000    
      9524 MEMB     53       POPE     LP1D     LPD     -0.258000       0.00000          -1   0.00000       0.00000    
      9525 MEMB     53       POPE     LPMC     LPD     -0.170000       0.00000          -1   0.00000       0.00000    
      9526 MEMB     53       POPE     LPMD     LPD     -0.170000       0.00000          -1   0.00000       0.00000    
      9527 MEMB     53       POPE     C23      CD32A     2.07980       11.6110           0  -1.66000       1.30000    
      9528 MEMB     53       POPE     DC23     DRUD     -2.23580      0.400000           0   0.00000       0.00000    
      9529 MEMB     53       POPE     H3R      HDA2A    0.780000E-01   1.00800           0   0.00000       0.00000    
      9530 MEMB     53       POPE     H3S      HDA2A    0.780000E-01   1.00800           0   0.00000       0.00000    
      9531 MEMB     53       POPE     C24      CD32A     2.07980       11.6110           0  -1.66000       1.30000    
      9532 MEMB     53       POPE     DC24     DRUD     -2.23580      0.400000           0   0.00000       0.00000    
      9533 MEMB     53       POPE     H4R      HDA2A    0.780000E-01   1.00800           0   0.00000       0.00000    
      9534 MEMB     53       POPE     H4S      HDA2A    0.780000E-01   1.00800           0   0.00000       0.00000    
      9535 MEMB     53       POPE     C25      CD32A     2.07980       11.6110           0  -1.66000       1.30000    
      9536 MEMB     53       POPE     DC25     DRUD     -2.23580      0.400000           0   0.00000       0.00000    
      9537 MEMB     53       POPE     H5R      HDA2A    0.780000E-01   1.00800           0   0.00000       0.00000    
      9538 MEMB     53       POPE     H5S      HDA2A    0.780000E-01   1.00800           0   0.00000       0.00000    
      9539 MEMB     53       POPE     C26      CD32A     2.07980       11.6110           0  -1.66000       1.30000    
      9540 MEMB     53       POPE     DC26     DRUD     -2.23580      0.400000           0   0.00000       0.00000    
      9541 MEMB     53       POPE     H6R      HDA2A    0.780000E-01   1.00800           0   0.00000       0.00000    
      9542 MEMB     53       POPE     H6S      HDA2A    0.780000E-01   1.00800           0   0.00000       0.00000    
      9543 MEMB     53       POPE     C27      CD32A     2.07980       11.6110           0  -1.66000       1.30000    
      9544 MEMB     53       POPE     DC27     DRUD     -2.23580      0.400000           0   0.00000       0.00000    
      9545 MEMB     53       POPE     H7R      HDA2A    0.780000E-01   1.00800           0   0.00000       0.00000    
      9546 MEMB     53       POPE     H7S      HDA2A    0.780000E-01   1.00800           0   0.00000       0.00000    
      9547 MEMB     53       POPE     C28      CD32A     2.07980       11.6110           0  -1.66000       1.30000    
      9548 MEMB     53       POPE     DC28     DRUD     -2.23580      0.400000           0   0.00000       0.00000    
      9549 MEMB     53       POPE     H8R      HDA2A    0.780000E-01   1.00800           0   0.00000       0.00000    
      9550 MEMB     53       POPE     H8S      HDA2A    0.780000E-01   1.00800           0   0.00000       0.00000    
      9551 MEMB     53       POPE     C29      CD2C1A    2.33700       11.6110           0  -1.99000      0.750000    
      9552 MEMB     53       POPE     DC29     DRUD     -2.44800      0.400000           0   0.00000       0.00000    
      9553 MEMB     53       POPE     H91      HD2C1A   0.111000       1.00800           0   0.00000       0.00000    
      9554 MEMB     53       POPE     C210     CD2C1A    2.33700       11.6110           0  -1.99000      0.750000    
      9555 MEMB     53       POPE     DC210    DRUD     -2.44800      0.400000           0   0.00000       0.00000    
      9556 MEMB     53       POPE     H101     HD2C1A   0.111000       1.00800           0   0.00000       0.00000    
      9557 MEMB     53       POPE     C211     CD32A     2.07980       11.6110           0  -1.66000       1.30000    
      9558 MEMB     53       POPE     DC211    DRUD     -2.23580      0.400000           0   0.00000       0.00000    
      9559 MEMB     53       POPE     H11R     HDA2A    0.780000E-01   1.00800           0   0.00000       0.00000    
      9560 MEMB     53       POPE     H11S     HDA2A    0.780000E-01   1.00800           0   0.00000       0.00000    
      9561 MEMB     53       POPE     C212     CD32A     2.07980       11.6110           0  -1.66000       1.30000    
      9562 MEMB     53       POPE     DC212    DRUD     -2.23580      0.400000           0   0.00000       0.00000    
      9563 MEMB     53       POPE     H12R     HDA2A    0.780000E-01   1.00800           0   0.00000       0.00000    
      9564 MEMB     53       POPE     H12S     HDA2A    0.780000E-01   1.00800           0   0.00000       0.00000    
      9565 MEMB     53       POPE     C213     CD32A     2.07980       11.6110           0  -1.66000       1.30000    
      9566 MEMB     53       POPE     DC213    DRUD     -2.23580      0.400000           0   0.00000       0.00000    
      9567 MEMB     53       POPE     H13R     HDA2A    0.780000E-01   1.00800           0   0.00000       0.00000    
      9568 MEMB     53       POPE     H13S     HDA2A    0.780000E-01   1.00800           0   0.00000       0.00000    
      9569 MEMB     53       POPE     C214     CD32A     2.07980       11.6110           0  -1.66000       1.30000    
      9570 MEMB     53       POPE     DC214    DRUD     -2.23580      0.400000           0   0.00000       0.00000    
      9571 MEMB     53       POPE     H14R     HDA2A    0.780000E-01   1.00800           0   0.00000       0.00000    
      9572 MEMB     53       POPE     H14S     HDA2A    0.780000E-01   1.00800           0   0.00000       0.00000    
      9573 MEMB     53       POPE     C215     CD32A     2.07980       11.6110           0  -1.66000       1.30000    
      9574 MEMB     53       POPE     DC215    DRUD     -2.23580      0.400000           0   0.00000       0.00000    
      9575 MEMB     53       POPE     H15R     HDA2A    0.780000E-01   1.00800           0   0.00000       0.00000    
      9576 MEMB     53       POPE     H15S     HDA2A    0.780000E-01   1.00800           0   0.00000       0.00000    
      9577 MEMB     53       POPE     C216     CD32A     2.07980       11.6110           0  -1.66000       1.30000    
      9578 MEMB     53       POPE     DC216    DRUD     -2.23580      0.400000           0   0.00000       0.00000    
      9579 MEMB     53       POPE     H16R     HDA2A    0.780000E-01   1.00800           0   0.00000       0.00000    
      9580 MEMB     53       POPE     H16S     HDA2A    0.780000E-01   1.00800           0   0.00000       0.00000    
      9581 MEMB     53       POPE     C217     CD32A     2.07980       11.6110           0  -1.66000       1.30000    
      9582 MEMB     53       POPE     DC217    DRUD     -2.23580      0.400000           0   0.00000       0.00000    
      9583 MEMB     53       POPE     H17R     HDA2A    0.780000E-01   1.00800           0   0.00000       0.00000    
      9584 MEMB     53       POPE     H17S     HDA2A    0.780000E-01   1.00800           0   0.00000       0.00000    
      9585 MEMB     53       POPE     C218     CD33A     2.30820       11.6110           0  -2.05100       1.30000    
      9586 MEMB     53       POPE     DC218    DRUD     -2.48520      0.400000           0   0.00000       0.00000    
      9587 MEMB     53       POPE     H18R     HDA3A    0.590000E-01   1.00800           0   0.00000       0.00000    
      9588 MEMB     53       POPE     H18S     HDA3A    0.590000E-01   1.00800           0   0.00000       0.00000    
      9589 MEMB     53       POPE     H18T     HDA3A    0.590000E-01   1.00800           0   0.00000       0.00000    
      9590 MEMB     53       POPE     C33      CD32A     2.07980       11.6110           0  -1.66000       1.30000    
      9591 MEMB     53       POPE     DC33     DRUD     -2.23580      0.400000           0   0.00000       0.00000    
      9592 MEMB     53       POPE     H3X      HDA2A    0.780000E-01   1.00800           0   0.00000       0.00000    
      9593 MEMB     53       POPE     H3Y      HDA2A    0.780000E-01   1.00800           0   0.00000       0.00000    
      9594 MEMB     53       POPE     C34      CD32A     2.07980       11.6110           0  -1.66000       1.30000    
      9595 MEMB     53       POPE     DC34     DRUD     -2.23580      0.400000           0   0.00000       0.00000    
      9596 MEMB     53       POPE     H4X      HDA2A    0.780000E-01   1.00800           0   0.00000       0.00000    
      9597 MEMB     53       POPE     H4Y      HDA2A    0.780000E-01   1.00800           0   0.00000       0.00000    
      9598 MEMB     53       POPE     C35      CD32A     2.07980       11.6110           0  -1.66000       1.30000    
      9599 MEMB     53       POPE     DC35     DRUD     -2.23580      0.400000           0   0.00000       0.00000    
      9600 MEMB     53       POPE     H5X      HDA2A    0.780000E-01   1.00800           0   0.00000       0.00000    
      9601 MEMB     53       POPE     H5Y      HDA2A    0.780000E-01   1.00800           0   0.00000       0.00000    
      9602 MEMB     53       POPE     C36      CD32A     2.07980       11.6110           0  -1.66000       1.30000    
      9603 MEMB     53       POPE     DC36     DRUD     -2.23580      0.400000           0   0.00000       0.00000    
      9604 MEMB     53       POPE     H6X      HDA2A    0.780000E-01   1.00800           0   0.00000       0.00000    
      9605 MEMB     53       POPE     H6Y      HDA2A    0.780000E-01   1.00800           0   0.00000       0.00000    
      9606 MEMB     53       POPE     C37      CD32A     2.07980       11.6110           0  -1.66000       1.30000    
      9607 MEMB     53       POPE     DC37     DRUD     -2.23580      0.400000           0   0.00000       0.00000    
      9608 MEMB     53       POPE     H7X      HDA2A    0.780000E-01   1.00800           0   0.00000       0.00000    
      9609 MEMB     53       POPE     H7Y      HDA2A    0.780000E-01   1.00800           0   0.00000       0.00000    
      9610 MEMB     53       POPE     C38      CD32A     2.07980       11.6110           0  -1.66000       1.30000    
      9611 MEMB     53       POPE     DC38     DRUD     -2.23580      0.400000           0   0.00000       0.00000    
      9612 MEMB     53       POPE     H8X      HDA2A    0.780000E-01   1.00800           0   0.00000       0.00000    
      9613 MEMB     53       POPE     H8Y      HDA2A    0.780000E-01   1.00800           0   0.00000       0.00000    
      9614 MEMB     53       POPE     C39      CD32A     2.07980       11.6110           0  -1.66000       1.30000    
      9615 MEMB     53       POPE     DC39     DRUD     -2.23580      0.400000           0   0.00000       0.00000    
      9616 MEMB     53       POPE     H9X      HDA2A    0.780000E-01   1.00800           0   0.00000       0.00000    
      9617 MEMB     53       POPE     H9Y      HDA2A    0.780000E-01   1.00800           0   0.00000       0.00000    
      9618 MEMB     53       POPE     C310     CD32A     2.07980       11.6110           0  -1.66000       1.30000    
      9619 MEMB     53       POPE     DC310    DRUD     -2.23580      0.400000           0   0.00000       0.00000    
      9620 MEMB     53       POPE     H10X     HDA2A    0.780000E-01   1.00800           0   0.00000       0.00000    
      9621 MEMB     53       POPE     H10Y     HDA2A    0.780000E-01   1.00800           0   0.00000       0.00000    
      9622 MEMB     53       POPE     C311     CD32A     2.07980       11.6110           0  -1.66000       1.30000    
      9623 MEMB     53       POPE     DC311    DRUD     -2.23580      0.400000           0   0.00000       0.00000    
      9624 MEMB     53       POPE     H11X     HDA2A    0.780000E-01   1.00800           0   0.00000       0.00000    
      9625 MEMB     53       POPE     H11Y     HDA2A    0.780000E-01   1.00800           0   0.00000       0.00000    
      9626 MEMB     53       POPE     C312     CD32A     2.07980       11.6110           0  -1.66000       1.30000    
      9627 MEMB     53       POPE     DC312    DRUD     -2.23580      0.400000           0   0.00000       0.00000    
      9628 MEMB     53       POPE     H12X     HDA2A    0.780000E-01   1.00800           0   0.00000       0.00000    
      9629 MEMB     53       POPE     H12Y     HDA2A    0.780000E-01   1.00800           0   0.00000       0.00000    
      9630 MEMB     53       POPE     C313     CD32A     2.07980       11.6110           0  -1.66000       1.30000    
      9631 MEMB     53       POPE     DC313    DRUD     -2.23580      0.400000           0   0.00000       0.00000    
      9632 MEMB     53       POPE     H13X     HDA2A    0.780000E-01   1.00800           0   0.00000       0.00000    
      9633 MEMB     53       POPE     H13Y     HDA2A    0.780000E-01   1.00800           0   0.00000       0.00000    
      9634 MEMB     53       POPE     C314     CD32A     2.07980       11.6110           0  -1.66000       1.30000    
      9635 MEMB     53       POPE     DC314    DRUD     -2.23580      0.400000           0   0.00000       0.00000    
      9636 MEMB     53       POPE     H14X     HDA2A    0.780000E-01   1.00800           0   0.00000       0.00000    
      9637 MEMB     53       POPE     H14Y     HDA2A    0.780000E-01   1.00800           0   0.00000       0.00000    
      9638 MEMB     53       POPE     C315     CD32A     2.07980       11.6110           0  -1.66000       1.30000    
      9639 MEMB     53       POPE     DC315    DRUD     -2.23580      0.400000           0   0.00000       0.00000    
      9640 MEMB     53       POPE     H15X     HDA2A    0.780000E-01   1.00800           0   0.00000       0.00000    
      9641 MEMB     53       POPE     H15Y     HDA2A    0.780000E-01   1.00800           0   0.00000       0.00000    
      9642 MEMB     53       POPE     C316     CD33A     2.30820       11.6110           0  -2.05100       1.30000    
      9643 MEMB     53       POPE     DC316    DRUD     -2.48520      0.400000           0   0.00000       0.00000    
      9644 MEMB     53       POPE     H16X     HDA3A    0.590000E-01   1.00800           0   0.00000       0.00000    
      9645 MEMB     53       POPE     H16Y     HDA3A    0.590000E-01   1.00800           0   0.00000       0.00000    
      9646 MEMB     53       POPE     H16Z     HDA3A    0.590000E-01   1.00800           0   0.00000       0.00000    
      9647 MEMB     54       POPE     N        ND3P3A    1.62810       13.6070           0  -1.29800      0.895000    
      9648 MEMB     54       POPE     DN       DRUD     -1.97710      0.400000           0   0.00000       0.00000    
      9649 MEMB     54       POPE     HN1      HDP1B    0.340000       1.00800           0   0.00000       0.00000    
      9650 MEMB     54       POPE     HN2      HDP1B    0.340000       1.00800           0   0.00000       0.00000    
      9651 MEMB     54       POPE     HN3      HDP1B    0.340000       1.00800           0   0.00000       0.00000    
      9652 MEMB     54       POPE     C12      CD32A     2.27610       11.6110           0  -1.65600      0.895000    
      9653 MEMB     54       POPE     DC12     DRUD     -2.23310      0.400000           0   0.00000       0.00000    
      9654 MEMB     54       POPE     H12A     HDA2A    0.143000       1.00800           0   0.00000       0.00000    
      9655 MEMB     54       POPE     H12B     HDA2A    0.143000       1.00800           0   0.00000       0.00000    
      9656 MEMB     54       POPE     C11      CD32A     2.42220       11.6110           0  -1.64200      0.862000    
      9657 MEMB     54       POPE     DC11     DRUD     -2.22370      0.400000           0   0.00000       0.00000    
      9658 MEMB     54       POPE     H11A     HDA2A    0.260000E-01   1.00800           0   0.00000       0.00000    
      9659 MEMB     54       POPE     H11B     HDA2A    0.260000E-01   1.00800           0   0.00000       0.00000    
      9660 MEMB     54       POPE     P        PD1A      2.90360       30.5740           0 -0.974000       2.09800    
      9661 MEMB     54       POPE     DP       DRUD     -1.71260      0.400000           0   0.00000       0.00000    
      9662 MEMB     54       POPE     O13      OD2C2B   0.798400       15.5994           0 -0.931000       1.08300    
      9663 MEMB     54       POPE     DO13     DRUD     -1.67440      0.400000           0   0.00000       0.00000    
      9664 MEMB     54       POPE     O14      OD2C2B   0.798400       15.5994           0 -0.931000       1.08300    
      9665 MEMB     54       POPE     DO14     DRUD     -1.67440      0.400000           0   0.00000       0.00000    
      9666 MEMB     54       POPE     O11      OD30B     1.17720       15.5994           0 -0.901000      0.181000    
      9667 MEMB     54       POPE     DO11     DRUD     -1.64720      0.400000           0   0.00000       0.00000    
      9668 MEMB     54       POPE     O12      OD30B     1.17720       15.5994           0 -0.901000      0.181000    
      9669 MEMB     54       POPE     DO12     DRUD     -1.64720      0.400000           0   0.00000       0.00000    
      9670 MEMB     54       POPE     C1       CD32A     2.42220       11.6110           0  -1.64200      0.862000    
      9671 MEMB     54       POPE     DC1      DRUD     -2.22370      0.400000           0   0.00000       0.00000    
      9672 MEMB     54       POPE     HA       HDA2A    0.260000E-01   1.00800           0   0.00000       0.00000    
      9673 MEMB     54       POPE     HB       HDA2A    0.260000E-01   1.00800           0   0.00000       0.00000    
      9674 MEMB     54       POPE     C2       CD31C     2.52830       11.6110           0  -1.79700      0.410000    
      9675 MEMB     54       POPE     DC2      DRUD     -2.32630      0.400000           0   0.00000       0.00000    
      9676 MEMB     54       POPE     HS       HDA1A    0.116000       1.00800           0   0.00000       0.00000    
      9677 MEMB     54       POPE     O21      OD30CL    1.48470       15.5994           0 -0.732000      0.601000    
      9678 MEMB     54       POPE     DO21     DRUD     -1.48470      0.400000           0   0.00000       0.00000    
      9679 MEMB     54       POPE     C21      CD2O3B    2.72820       11.6110           0  -1.37000       1.74700    
      9680 MEMB     54       POPE     DC21     DRUD     -2.03120      0.400000           0   0.00000       0.00000    
      9681 MEMB     54       POPE     O22      OD2C3B    1.64990       15.5994           0 -0.904000      0.565000    
      9682 MEMB     54       POPE     DO22     DRUD     -1.64990      0.400000           0   0.00000       0.00000    
      9683 MEMB     54       POPE     C22      CD32C     2.24380       11.6110           0  -1.99300      0.410000    
      9684 MEMB     54       POPE     DC22     DRUD     -2.44980      0.400000           0   0.00000       0.00000    
      9685 MEMB     54       POPE     H2R      HDA2A    0.690000E-01   1.00800           0   0.00000       0.00000    
      9686 MEMB     54       POPE     H2S      HDA2A    0.690000E-01   1.00800           0   0.00000       0.00000    
      9687 MEMB     54       POPE     LP1A     LPD     -0.349000       0.00000          -1   0.00000       0.00000    
      9688 MEMB     54       POPE     LP1B     LPD     -0.258000       0.00000          -1   0.00000       0.00000    
      9689 MEMB     54       POPE     LPMA     LPD     -0.170000       0.00000          -1   0.00000       0.00000    
      9690 MEMB     54       POPE     LPMB     LPD     -0.170000       0.00000          -1   0.00000       0.00000    
      9691 MEMB     54       POPE     C3       CD32C     2.41230       11.6110           0  -1.79700      0.410000    
      9692 MEMB     54       POPE     DC3      DRUD     -2.32630      0.400000           0   0.00000       0.00000    
      9693 MEMB     54       POPE     HX       HDA2A    0.116000       1.00800           0   0.00000       0.00000    
      9694 MEMB     54       POPE     HY       HDA2A    0.116000       1.00800           0   0.00000       0.00000    
      9695 MEMB     54       POPE     O31      OD30CL    1.48470       15.5994           0 -0.732000      0.601000    
      9696 MEMB     54       POPE     DO31     DRUD     -1.48470      0.400000           0   0.00000       0.00000    
      9697 MEMB     54       POPE     C31      CD2O3B    2.72820       11.6110           0  -1.37000       1.74700    
      9698 MEMB     54       POPE     DC31     DRUD     -2.03120      0.400000           0   0.00000       0.00000    
      9699 MEMB     54       POPE     O32      OD2C3B    1.64990       15.5994           0 -0.904000      0.565000    
      9700 MEMB     54       POPE     DO32     DRUD     -1.64990      0.400000           0   0.00000       0.00000    
      9701 MEMB     54       POPE     C32      CD32C     2.24380       11.6110           0  -1.99300      0.410000    
      9702 MEMB     54       POPE     DC32     DRUD     -2.44980      0.400000           0   0.00000       0.00000    
      9703 MEMB     54       POPE     H2X      HDA2A    0.690000E-01   1.00800           0   0.00000       0.00000    
      9704 MEMB     54       POPE     H2Y      HDA2A    0.690000E-01   1.00800           0   0.00000       0.00000    
      9705 MEMB     54       POPE     LP1C     LPD     -0.349000       0.00000          -1   0.00000       0.00000    
      9706 MEMB     54       POPE     LP1D     LPD     -0.258000       0.00000          -1   0.00000       0.00000    
      9707 MEMB     54       POPE     LPMC     LPD     -0.170000       0.00000          -1   0.00000       0.00000    
      9708 MEMB     54       POPE     LPMD     LPD     -0.170000       0.00000          -1   0.00000       0.00000    
      9709 MEMB     54       POPE     C23      CD32A     2.07980       11.6110           0  -1.66000       1.30000    
      9710 MEMB     54       POPE     DC23     DRUD     -2.23580      0.400000           0   0.00000       0.00000    
      9711 MEMB     54       POPE     H3R      HDA2A    0.780000E-01   1.00800           0   0.00000       0.00000    
      9712 MEMB     54       POPE     H3S      HDA2A    0.780000E-01   1.00800           0   0.00000       0.00000    
      9713 MEMB     54       POPE     C24      CD32A     2.07980       11.6110           0  -1.66000       1.30000    
      9714 MEMB     54       POPE     DC24     DRUD     -2.23580      0.400000           0   0.00000       0.00000    
      9715 MEMB     54       POPE     H4R      HDA2A    0.780000E-01   1.00800           0   0.00000       0.00000    
      9716 MEMB     54       POPE     H4S      HDA2A    0.780000E-01   1.00800           0   0.00000       0.00000    
      9717 MEMB     54       POPE     C25      CD32A     2.07980       11.6110           0  -1.66000       1.30000    
      9718 MEMB     54       POPE     DC25     DRUD     -2.23580      0.400000           0   0.00000       0.00000    
      9719 MEMB     54       POPE     H5R      HDA2A    0.780000E-01   1.00800           0   0.00000       0.00000    
      9720 MEMB     54       POPE     H5S      HDA2A    0.780000E-01   1.00800           0   0.00000       0.00000    
      9721 MEMB     54       POPE     C26      CD32A     2.07980       11.6110           0  -1.66000       1.30000    
      9722 MEMB     54       POPE     DC26     DRUD     -2.23580      0.400000           0   0.00000       0.00000    
      9723 MEMB     54       POPE     H6R      HDA2A    0.780000E-01   1.00800           0   0.00000       0.00000    
      9724 MEMB     54       POPE     H6S      HDA2A    0.780000E-01   1.00800           0   0.00000       0.00000    
      9725 MEMB     54       POPE     C27      CD32A     2.07980       11.6110           0  -1.66000       1.30000    
      9726 MEMB     54       POPE     DC27     DRUD     -2.23580      0.400000           0   0.00000       0.00000    
      9727 MEMB     54       POPE     H7R      HDA2A    0.780000E-01   1.00800           0   0.00000       0.00000    
      9728 MEMB     54       POPE     H7S      HDA2A    0.780000E-01   1.00800           0   0.00000       0.00000    
      9729 MEMB     54       POPE     C28      CD32A     2.07980       11.6110           0  -1.66000       1.30000    
      9730 MEMB     54       POPE     DC28     DRUD     -2.23580      0.400000           0   0.00000       0.00000    
      9731 MEMB     54       POPE     H8R      HDA2A    0.780000E-01   1.00800           0   0.00000       0.00000    
      9732 MEMB     54       POPE     H8S      HDA2A    0.780000E-01   1.00800           0   0.00000       0.00000    
      9733 MEMB     54       POPE     C29      CD2C1A    2.33700       11.6110           0  -1.99000      0.750000    
      9734 MEMB     54       POPE     DC29     DRUD     -2.44800      0.400000           0   0.00000       0.00000    
      9735 MEMB     54       POPE     H91      HD2C1A   0.111000       1.00800           0   0.00000       0.00000    
      9736 MEMB     54       POPE     C210     CD2C1A    2.33700       11.6110           0  -1.99000      0.750000    
      9737 MEMB     54       POPE     DC210    DRUD     -2.44800      0.400000           0   0.00000       0.00000    
      9738 MEMB     54       POPE     H101     HD2C1A   0.111000       1.00800           0   0.00000       0.00000    
      9739 MEMB     54       POPE     C211     CD32A     2.07980       11.6110           0  -1.66000       1.30000    
      9740 MEMB     54       POPE     DC211    DRUD     -2.23580      0.400000           0   0.00000       0.00000    
      9741 MEMB     54       POPE     H11R     HDA2A    0.780000E-01   1.00800           0   0.00000       0.00000    
      9742 MEMB     54       POPE     H11S     HDA2A    0.780000E-01   1.00800           0   0.00000       0.00000    
      9743 MEMB     54       POPE     C212     CD32A     2.07980       11.6110           0  -1.66000       1.30000    
      9744 MEMB     54       POPE     DC212    DRUD     -2.23580      0.400000           0   0.00000       0.00000    
      9745 MEMB     54       POPE     H12R     HDA2A    0.780000E-01   1.00800           0   0.00000       0.00000    
      9746 MEMB     54       POPE     H12S     HDA2A    0.780000E-01   1.00800           0   0.00000       0.00000    
      9747 MEMB     54       POPE     C213     CD32A     2.07980       11.6110           0  -1.66000       1.30000    
      9748 MEMB     54       POPE     DC213    DRUD     -2.23580      0.400000           0   0.00000       0.00000    
      9749 MEMB     54       POPE     H13R     HDA2A    0.780000E-01   1.00800           0   0.00000       0.00000    
      9750 MEMB     54       POPE     H13S     HDA2A    0.780000E-01   1.00800           0   0.00000       0.00000    
      9751 MEMB     54       POPE     C214     CD32A     2.07980       11.6110           0  -1.66000       1.30000    
      9752 MEMB     54       POPE     DC214    DRUD     -2.23580      0.400000           0   0.00000       0.00000    
      9753 MEMB     54       POPE     H14R     HDA2A    0.780000E-01   1.00800           0   0.00000       0.00000    
      9754 MEMB     54       POPE     H14S     HDA2A    0.780000E-01   1.00800           0   0.00000       0.00000    
      9755 MEMB     54       POPE     C215     CD32A     2.07980       11.6110           0  -1.66000       1.30000    
      9756 MEMB     54       POPE     DC215    DRUD     -2.23580      0.400000           0   0.00000       0.00000    
      9757 MEMB     54       POPE     H15R     HDA2A    0.780000E-01   1.00800           0   0.00000       0.00000    
      9758 MEMB     54       POPE     H15S     HDA2A    0.780000E-01   1.00800           0   0.00000       0.00000    
      9759 MEMB     54       POPE     C216     CD32A     2.07980       11.6110           0  -1.66000       1.30000    
      9760 MEMB     54       POPE     DC216    DRUD     -2.23580      0.400000           0   0.00000       0.00000    
      9761 MEMB     54       POPE     H16R     HDA2A    0.780000E-01   1.00800           0   0.00000       0.00000    
      9762 MEMB     54       POPE     H16S     HDA2A    0.780000E-01   1.00800           0   0.00000       0.00000    
      9763 MEMB     54       POPE     C217     CD32A     2.07980       11.6110           0  -1.66000       1.30000    
      9764 MEMB     54       POPE     DC217    DRUD     -2.23580      0.400000           0   0.00000       0.00000    
      9765 MEMB     54       POPE     H17R     HDA2A    0.780000E-01   1.00800           0   0.00000       0.00000    
      9766 MEMB     54       POPE     H17S     HDA2A    0.780000E-01   1.00800           0   0.00000       0.00000    
      9767 MEMB     54       POPE     C218     CD33A     2.30820       11.6110           0  -2.05100       1.30000    
      9768 MEMB     54       POPE     DC218    DRUD     -2.48520      0.400000           0   0.00000       0.00000    
      9769 MEMB     54       POPE     H18R     HDA3A    0.590000E-01   1.00800           0   0.00000       0.00000    
      9770 MEMB     54       POPE     H18S     HDA3A    0.590000E-01   1.00800           0   0.00000       0.00000    
      9771 MEMB     54       POPE     H18T     HDA3A    0.590000E-01   1.00800           0   0.00000       0.00000    
      9772 MEMB     54       POPE     C33      CD32A     2.07980       11.6110           0  -1.66000       1.30000    
      9773 MEMB     54       POPE     DC33     DRUD     -2.23580      0.400000           0   0.00000       0.00000    
      9774 MEMB     54       POPE     H3X      HDA2A    0.780000E-01   1.00800           0   0.00000       0.00000    
      9775 MEMB     54       POPE     H3Y      HDA2A    0.780000E-01   1.00800           0   0.00000       0.00000    
      9776 MEMB     54       POPE     C34      CD32A     2.07980       11.6110           0  -1.66000       1.30000    
      9777 MEMB     54       POPE     DC34     DRUD     -2.23580      0.400000           0   0.00000       0.00000    
      9778 MEMB     54       POPE     H4X      HDA2A    0.780000E-01   1.00800           0   0.00000       0.00000    
      9779 MEMB     54       POPE     H4Y      HDA2A    0.780000E-01   1.00800           0   0.00000       0.00000    
      9780 MEMB     54       POPE     C35      CD32A     2.07980       11.6110           0  -1.66000       1.30000    
      9781 MEMB     54       POPE     DC35     DRUD     -2.23580      0.400000           0   0.00000       0.00000    
      9782 MEMB     54       POPE     H5X      HDA2A    0.780000E-01   1.00800           0   0.00000       0.00000    
      9783 MEMB     54       POPE     H5Y      HDA2A    0.780000E-01   1.00800           0   0.00000       0.00000    
      9784 MEMB     54       POPE     C36      CD32A     2.07980       11.6110           0  -1.66000       1.30000    
      9785 MEMB     54       POPE     DC36     DRUD     -2.23580      0.400000           0   0.00000       0.00000    
      9786 MEMB     54       POPE     H6X      HDA2A    0.780000E-01   1.00800           0   0.00000       0.00000    
      9787 MEMB     54       POPE     H6Y      HDA2A    0.780000E-01   1.00800           0   0.00000       0.00000    
      9788 MEMB     54       POPE     C37      CD32A     2.07980       11.6110           0  -1.66000       1.30000    
      9789 MEMB     54       POPE     DC37     DRUD     -2.23580      0.400000           0   0.00000       0.00000    
      9790 MEMB     54       POPE     H7X      HDA2A    0.780000E-01   1.00800           0   0.00000       0.00000    
      9791 MEMB     54       POPE     H7Y      HDA2A    0.780000E-01   1.00800           0   0.00000       0.00000    
      9792 MEMB     54       POPE     C38      CD32A     2.07980       11.6110           0  -1.66000       1.30000    
      9793 MEMB     54       POPE     DC38     DRUD     -2.23580      0.400000           0   0.00000       0.00000    
      9794 MEMB     54       POPE     H8X      HDA2A    0.780000E-01   1.00800           0   0.00000       0.00000    
      9795 MEMB     54       POPE     H8Y      HDA2A    0.780000E-01   1.00800           0   0.00000       0.00000    
      9796 MEMB     54       POPE     C39      CD32A     2.07980       11.6110           0  -1.66000       1.30000    
      9797 MEMB     54       POPE     DC39     DRUD     -2.23580      0.400000           0   0.00000       0.00000    
      9798 MEMB     54       POPE     H9X      HDA2A    0.780000E-01   1.00800           0   0.00000       0.00000    
      9799 MEMB     54       POPE     H9Y      HDA2A    0.780000E-01   1.00800           0   0.00000       0.00000    
      9800 MEMB     54       POPE     C310     CD32A     2.07980       11.6110           0  -1.66000       1.30000    
      9801 MEMB     54       POPE     DC310    DRUD     -2.23580      0.400000           0   0.00000       0.00000    
      9802 MEMB     54       POPE     H10X     HDA2A    0.780000E-01   1.00800           0   0.00000       0.00000    
      9803 MEMB     54       POPE     H10Y     HDA2A    0.780000E-01   1.00800           0   0.00000       0.00000    
      9804 MEMB     54       POPE     C311     CD32A     2.07980       11.6110           0  -1.66000       1.30000    
      9805 MEMB     54       POPE     DC311    DRUD     -2.23580      0.400000           0   0.00000       0.00000    
      9806 MEMB     54       POPE     H11X     HDA2A    0.780000E-01   1.00800           0   0.00000       0.00000    
      9807 MEMB     54       POPE     H11Y     HDA2A    0.780000E-01   1.00800           0   0.00000       0.00000    
      9808 MEMB     54       POPE     C312     CD32A     2.07980       11.6110           0  -1.66000       1.30000    
      9809 MEMB     54       POPE     DC312    DRUD     -2.23580      0.400000           0   0.00000       0.00000    
      9810 MEMB     54       POPE     H12X     HDA2A    0.780000E-01   1.00800           0   0.00000       0.00000    
      9811 MEMB     54       POPE     H12Y     HDA2A    0.780000E-01   1.00800           0   0.00000       0.00000    
      9812 MEMB     54       POPE     C313     CD32A     2.07980       11.6110           0  -1.66000       1.30000    
      9813 MEMB     54       POPE     DC313    DRUD     -2.23580      0.400000           0   0.00000       0.00000    
      9814 MEMB     54       POPE     H13X     HDA2A    0.780000E-01   1.00800           0   0.00000       0.00000    
      9815 MEMB     54       POPE     H13Y     HDA2A    0.780000E-01   1.00800           0   0.00000       0.00000    
      9816 MEMB     54       POPE     C314     CD32A     2.07980       11.6110           0  -1.66000       1.30000    
      9817 MEMB     54       POPE     DC314    DRUD     -2.23580      0.400000           0   0.00000       0.00000    
      9818 MEMB     54       POPE     H14X     HDA2A    0.780000E-01   1.00800           0   0.00000       0.00000    
      9819 MEMB     54       POPE     H14Y     HDA2A    0.780000E-01   1.00800           0   0.00000       0.00000    
      9820 MEMB     54       POPE     C315     CD32A     2.07980       11.6110           0  -1.66000       1.30000    
      9821 MEMB     54       POPE     DC315    DRUD     -2.23580      0.400000           0   0.00000       0.00000    
      9822 MEMB     54       POPE     H15X     HDA2A    0.780000E-01   1.00800           0   0.00000       0.00000    
      9823 MEMB     54       POPE     H15Y     HDA2A    0.780000E-01   1.00800           0   0.00000       0.00000    
      9824 MEMB     54       POPE     C316     CD33A     2.30820       11.6110           0  -2.05100       1.30000    
      9825 MEMB     54       POPE     DC316    DRUD     -2.48520      0.400000           0   0.00000       0.00000    
      9826 MEMB     54       POPE     H16X     HDA3A    0.590000E-01   1.00800           0   0.00000       0.00000    
      9827 MEMB     54       POPE     H16Y     HDA3A    0.590000E-01   1.00800           0   0.00000       0.00000    
      9828 MEMB     54       POPE     H16Z     HDA3A    0.590000E-01   1.00800           0   0.00000       0.00000    
      9829 MEMB     55       POPE     N        ND3P3A    1.62810       13.6070           0  -1.29800      0.895000    
      9830 MEMB     55       POPE     DN       DRUD     -1.97710      0.400000           0   0.00000       0.00000    
      9831 MEMB     55       POPE     HN1      HDP1B    0.340000       1.00800           0   0.00000       0.00000    
      9832 MEMB     55       POPE     HN2      HDP1B    0.340000       1.00800           0   0.00000       0.00000    
      9833 MEMB     55       POPE     HN3      HDP1B    0.340000       1.00800           0   0.00000       0.00000    
      9834 MEMB     55       POPE     C12      CD32A     2.27610       11.6110           0  -1.65600      0.895000    
      9835 MEMB     55       POPE     DC12     DRUD     -2.23310      0.400000           0   0.00000       0.00000    
      9836 MEMB     55       POPE     H12A     HDA2A    0.143000       1.00800           0   0.00000       0.00000    
      9837 MEMB     55       POPE     H12B     HDA2A    0.143000       1.00800           0   0.00000       0.00000    
      9838 MEMB     55       POPE     C11      CD32A     2.42220       11.6110           0  -1.64200      0.862000    
      9839 MEMB     55       POPE     DC11     DRUD     -2.22370      0.400000           0   0.00000       0.00000    
      9840 MEMB     55       POPE     H11A     HDA2A    0.260000E-01   1.00800           0   0.00000       0.00000    
      9841 MEMB     55       POPE     H11B     HDA2A    0.260000E-01   1.00800           0   0.00000       0.00000    
      9842 MEMB     55       POPE     P        PD1A      2.90360       30.5740           0 -0.974000       2.09800    
      9843 MEMB     55       POPE     DP       DRUD     -1.71260      0.400000           0   0.00000       0.00000    
      9844 MEMB     55       POPE     O13      OD2C2B   0.798400       15.5994           0 -0.931000       1.08300    
      9845 MEMB     55       POPE     DO13     DRUD     -1.67440      0.400000           0   0.00000       0.00000    
      9846 MEMB     55       POPE     O14      OD2C2B   0.798400       15.5994           0 -0.931000       1.08300    
      9847 MEMB     55       POPE     DO14     DRUD     -1.67440      0.400000           0   0.00000       0.00000    
      9848 MEMB     55       POPE     O11      OD30B     1.17720       15.5994           0 -0.901000      0.181000    
      9849 MEMB     55       POPE     DO11     DRUD     -1.64720      0.400000           0   0.00000       0.00000    
      9850 MEMB     55       POPE     O12      OD30B     1.17720       15.5994           0 -0.901000      0.181000    
      9851 MEMB     55       POPE     DO12     DRUD     -1.64720      0.400000           0   0.00000       0.00000    
      9852 MEMB     55       POPE     C1       CD32A     2.42220       11.6110           0  -1.64200      0.862000    
      9853 MEMB     55       POPE     DC1      DRUD     -2.22370      0.400000           0   0.00000       0.00000    
      9854 MEMB     55       POPE     HA       HDA2A    0.260000E-01   1.00800           0   0.00000       0.00000    
      9855 MEMB     55       POPE     HB       HDA2A    0.260000E-01   1.00800           0   0.00000       0.00000    
      9856 MEMB     55       POPE     C2       CD31C     2.52830       11.6110           0  -1.79700      0.410000    
      9857 MEMB     55       POPE     DC2      DRUD     -2.32630      0.400000           0   0.00000       0.00000    
      9858 MEMB     55       POPE     HS       HDA1A    0.116000       1.00800           0   0.00000       0.00000    
      9859 MEMB     55       POPE     O21      OD30CL    1.48470       15.5994           0 -0.732000      0.601000    
      9860 MEMB     55       POPE     DO21     DRUD     -1.48470      0.400000           0   0.00000       0.00000    
      9861 MEMB     55       POPE     C21      CD2O3B    2.72820       11.6110           0  -1.37000       1.74700    
      9862 MEMB     55       POPE     DC21     DRUD     -2.03120      0.400000           0   0.00000       0.00000    
      9863 MEMB     55       POPE     O22      OD2C3B    1.64990       15.5994           0 -0.904000      0.565000    
      9864 MEMB     55       POPE     DO22     DRUD     -1.64990      0.400000           0   0.00000       0.00000    
      9865 MEMB     55       POPE     C22      CD32C     2.24380       11.6110           0  -1.99300      0.410000    
      9866 MEMB     55       POPE     DC22     DRUD     -2.44980      0.400000           0   0.00000       0.00000    
      9867 MEMB     55       POPE     H2R      HDA2A    0.690000E-01   1.00800           0   0.00000       0.00000    
      9868 MEMB     55       POPE     H2S      HDA2A    0.690000E-01   1.00800           0   0.00000       0.00000    
      9869 MEMB     55       POPE     LP1A     LPD     -0.349000       0.00000          -1   0.00000       0.00000    
      9870 MEMB     55       POPE     LP1B     LPD     -0.258000       0.00000          -1   0.00000       0.00000    
      9871 MEMB     55       POPE     LPMA     LPD     -0.170000       0.00000          -1   0.00000       0.00000    
      9872 MEMB     55       POPE     LPMB     LPD     -0.170000       0.00000          -1   0.00000       0.00000    
      9873 MEMB     55       POPE     C3       CD32C     2.41230       11.6110           0  -1.79700      0.410000    
      9874 MEMB     55       POPE     DC3      DRUD     -2.32630      0.400000           0   0.00000       0.00000    
      9875 MEMB     55       POPE     HX       HDA2A    0.116000       1.00800           0   0.00000       0.00000    
      9876 MEMB     55       POPE     HY       HDA2A    0.116000       1.00800           0   0.00000       0.00000    
      9877 MEMB     55       POPE     O31      OD30CL    1.48470       15.5994           0 -0.732000      0.601000    
      9878 MEMB     55       POPE     DO31     DRUD     -1.48470      0.400000           0   0.00000       0.00000    
      9879 MEMB     55       POPE     C31      CD2O3B    2.72820       11.6110           0  -1.37000       1.74700    
      9880 MEMB     55       POPE     DC31     DRUD     -2.03120      0.400000           0   0.00000       0.00000    
      9881 MEMB     55       POPE     O32      OD2C3B    1.64990       15.5994           0 -0.904000      0.565000    
      9882 MEMB     55       POPE     DO32     DRUD     -1.64990      0.400000           0   0.00000       0.00000    
      9883 MEMB     55       POPE     C32      CD32C     2.24380       11.6110           0  -1.99300      0.410000    
      9884 MEMB     55       POPE     DC32     DRUD     -2.44980      0.400000           0   0.00000       0.00000    
      9885 MEMB     55       POPE     H2X      HDA2A    0.690000E-01   1.00800           0   0.00000       0.00000    
      9886 MEMB     55       POPE     H2Y      HDA2A    0.690000E-01   1.00800           0   0.00000       0.00000    
      9887 MEMB     55       POPE     LP1C     LPD     -0.349000       0.00000          -1   0.00000       0.00000    
      9888 MEMB     55       POPE     LP1D     LPD     -0.258000       0.00000          -1   0.00000       0.00000    
      9889 MEMB     55       POPE     LPMC     LPD     -0.170000       0.00000          -1   0.00000       0.00000    
      9890 MEMB     55       POPE     LPMD     LPD     -0.170000       0.00000          -1   0.00000       0.00000    
      9891 MEMB     55       POPE     C23      CD32A     2.07980       11.6110           0  -1.66000       1.30000    
      9892 MEMB     55       POPE     DC23     DRUD     -2.23580      0.400000           0   0.00000       0.00000    
      9893 MEMB     55       POPE     H3R      HDA2A    0.780000E-01   1.00800           0   0.00000       0.00000    
      9894 MEMB     55       POPE     H3S      HDA2A    0.780000E-01   1.00800           0   0.00000       0.00000    
      9895 MEMB     55       POPE     C24      CD32A     2.07980       11.6110           0  -1.66000       1.30000    
      9896 MEMB     55       POPE     DC24     DRUD     -2.23580      0.400000           0   0.00000       0.00000    
      9897 MEMB     55       POPE     H4R      HDA2A    0.780000E-01   1.00800           0   0.00000       0.00000    
      9898 MEMB     55       POPE     H4S      HDA2A    0.780000E-01   1.00800           0   0.00000       0.00000    
      9899 MEMB     55       POPE     C25      CD32A     2.07980       11.6110           0  -1.66000       1.30000    
      9900 MEMB     55       POPE     DC25     DRUD     -2.23580      0.400000           0   0.00000       0.00000    
      9901 MEMB     55       POPE     H5R      HDA2A    0.780000E-01   1.00800           0   0.00000       0.00000    
      9902 MEMB     55       POPE     H5S      HDA2A    0.780000E-01   1.00800           0   0.00000       0.00000    
      9903 MEMB     55       POPE     C26      CD32A     2.07980       11.6110           0  -1.66000       1.30000    
      9904 MEMB     55       POPE     DC26     DRUD     -2.23580      0.400000           0   0.00000       0.00000    
      9905 MEMB     55       POPE     H6R      HDA2A    0.780000E-01   1.00800           0   0.00000       0.00000    
      9906 MEMB     55       POPE     H6S      HDA2A    0.780000E-01   1.00800           0   0.00000       0.00000    
      9907 MEMB     55       POPE     C27      CD32A     2.07980       11.6110           0  -1.66000       1.30000    
      9908 MEMB     55       POPE     DC27     DRUD     -2.23580      0.400000           0   0.00000       0.00000    
      9909 MEMB     55       POPE     H7R      HDA2A    0.780000E-01   1.00800           0   0.00000       0.00000    
      9910 MEMB     55       POPE     H7S      HDA2A    0.780000E-01   1.00800           0   0.00000       0.00000    
      9911 MEMB     55       POPE     C28      CD32A     2.07980       11.6110           0  -1.66000       1.30000    
      9912 MEMB     55       POPE     DC28     DRUD     -2.23580      0.400000           0   0.00000       0.00000    
      9913 MEMB     55       POPE     H8R      HDA2A    0.780000E-01   1.00800           0   0.00000       0.00000    
      9914 MEMB     55       POPE     H8S      HDA2A    0.780000E-01   1.00800           0   0.00000       0.00000    
      9915 MEMB     55       POPE     C29      CD2C1A    2.33700       11.6110           0  -1.99000      0.750000    
      9916 MEMB     55       POPE     DC29     DRUD     -2.44800      0.400000           0   0.00000       0.00000    
      9917 MEMB     55       POPE     H91      HD2C1A   0.111000       1.00800           0   0.00000       0.00000    
      9918 MEMB     55       POPE     C210     CD2C1A    2.33700       11.6110           0  -1.99000      0.750000    
      9919 MEMB     55       POPE     DC210    DRUD     -2.44800      0.400000           0   0.00000       0.00000    
      9920 MEMB     55       POPE     H101     HD2C1A   0.111000       1.00800           0   0.00000       0.00000    
      9921 MEMB     55       POPE     C211     CD32A     2.07980       11.6110           0  -1.66000       1.30000    
      9922 MEMB     55       POPE     DC211    DRUD     -2.23580      0.400000           0   0.00000       0.00000    
      9923 MEMB     55       POPE     H11R     HDA2A    0.780000E-01   1.00800           0   0.00000       0.00000    
      9924 MEMB     55       POPE     H11S     HDA2A    0.780000E-01   1.00800           0   0.00000       0.00000    
      9925 MEMB     55       POPE     C212     CD32A     2.07980       11.6110           0  -1.66000       1.30000    
      9926 MEMB     55       POPE     DC212    DRUD     -2.23580      0.400000           0   0.00000       0.00000    
      9927 MEMB     55       POPE     H12R     HDA2A    0.780000E-01   1.00800           0   0.00000       0.00000    
      9928 MEMB     55       POPE     H12S     HDA2A    0.780000E-01   1.00800           0   0.00000       0.00000    
      9929 MEMB     55       POPE     C213     CD32A     2.07980       11.6110           0  -1.66000       1.30000    
      9930 MEMB     55       POPE     DC213    DRUD     -2.23580      0.400000           0   0.00000       0.00000    
      9931 MEMB     55       POPE     H13R     HDA2A    0.780000E-01   1.00800           0   0.00000       0.00000    
      9932 MEMB     55       POPE     H13S     HDA2A    0.780000E-01   1.00800           0   0.00000       0.00000    
      9933 MEMB     55       POPE     C214     CD32A     2.07980       11.6110           0  -1.66000       1.30000    
      9934 MEMB     55       POPE     DC214    DRUD     -2.23580      0.400000           0   0.00000       0.00000    
      9935 MEMB     55       POPE     H14R     HDA2A    0.780000E-01   1.00800           0   0.00000       0.00000    
      9936 MEMB     55       POPE     H14S     HDA2A    0.780000E-01   1.00800           0   0.00000       0.00000    
      9937 MEMB     55       POPE     C215     CD32A     2.07980       11.6110           0  -1.66000       1.30000    
      9938 MEMB     55       POPE     DC215    DRUD     -2.23580      0.400000           0   0.00000       0.00000    
      9939 MEMB     55       POPE     H15R     HDA2A    0.780000E-01   1.00800           0   0.00000       0.00000    
      9940 MEMB     55       POPE     H15S     HDA2A    0.780000E-01   1.00800           0   0.00000       0.00000    
      9941 MEMB     55       POPE     C216     CD32A     2.07980       11.6110           0  -1.66000       1.30000    
      9942 MEMB     55       POPE     DC216    DRUD     -2.23580      0.400000           0   0.00000       0.00000    
      9943 MEMB     55       POPE     H16R     HDA2A    0.780000E-01   1.00800           0   0.00000       0.00000    
      9944 MEMB     55       POPE     H16S     HDA2A    0.780000E-01   1.00800           0   0.00000       0.00000    
      9945 MEMB     55       POPE     C217     CD32A     2.07980       11.6110           0  -1.66000       1.30000    
      9946 MEMB     55       POPE     DC217    DRUD     -2.23580      0.400000           0   0.00000       0.00000    
      9947 MEMB     55       POPE     H17R     HDA2A    0.780000E-01   1.00800           0   0.00000       0.00000    
      9948 MEMB     55       POPE     H17S     HDA2A    0.780000E-01   1.00800           0   0.00000       0.00000    
      9949 MEMB     55       POPE     C218     CD33A     2.30820       11.6110           0  -2.05100       1.30000    
      9950 MEMB     55       POPE     DC218    DRUD     -2.48520      0.400000           0   0.00000       0.00000    
      9951 MEMB     55       POPE     H18R     HDA3A    0.590000E-01   1.00800           0   0.00000       0.00000    
      9952 MEMB     55       POPE     H18S     HDA3A    0.590000E-01   1.00800           0   0.00000       0.00000    
      9953 MEMB     55       POPE     H18T     HDA3A    0.590000E-01   1.00800           0   0.00000       0.00000    
      9954 MEMB     55       POPE     C33      CD32A     2.07980       11.6110           0  -1.66000       1.30000    
      9955 MEMB     55       POPE     DC33     DRUD     -2.23580      0.400000           0   0.00000       0.00000    
      9956 MEMB     55       POPE     H3X      HDA2A    0.780000E-01   1.00800           0   0.00000       0.00000    
      9957 MEMB     55       POPE     H3Y      HDA2A    0.780000E-01   1.00800           0   0.00000       0.00000    
      9958 MEMB     55       POPE     C34      CD32A     2.07980       11.6110           0  -1.66000       1.30000    
      9959 MEMB     55       POPE     DC34     DRUD     -2.23580      0.400000           0   0.00000       0.00000    
      9960 MEMB     55       POPE     H4X      HDA2A    0.780000E-01   1.00800           0   0.00000       0.00000    
      9961 MEMB     55       POPE     H4Y      HDA2A    0.780000E-01   1.00800           0   0.00000       0.00000    
      9962 MEMB     55       POPE     C35      CD32A     2.07980       11.6110           0  -1.66000       1.30000    
      9963 MEMB     55       POPE     DC35     DRUD     -2.23580      0.400000           0   0.00000       0.00000    
      9964 MEMB     55       POPE     H5X      HDA2A    0.780000E-01   1.00800           0   0.00000       0.00000    
      9965 MEMB     55       POPE     H5Y      HDA2A    0.780000E-01   1.00800           0   0.00000       0.00000    
      9966 MEMB     55       POPE     C36      CD32A     2.07980       11.6110           0  -1.66000       1.30000    
      9967 MEMB     55       POPE     DC36     DRUD     -2.23580      0.400000           0   0.00000       0.00000    
      9968 MEMB     55       POPE     H6X      HDA2A    0.780000E-01   1.00800           0   0.00000       0.00000    
      9969 MEMB     55       POPE     H6Y      HDA2A    0.780000E-01   1.00800           0   0.00000       0.00000    
      9970 MEMB     55       POPE     C37      CD32A     2.07980       11.6110           0  -1.66000       1.30000    
      9971 MEMB     55       POPE     DC37     DRUD     -2.23580      0.400000           0   0.00000       0.00000    
      9972 MEMB     55       POPE     H7X      HDA2A    0.780000E-01   1.00800           0   0.00000       0.00000    
      9973 MEMB     55       POPE     H7Y      HDA2A    0.780000E-01   1.00800           0   0.00000       0.00000    
      9974 MEMB     55       POPE     C38      CD32A     2.07980       11.6110           0  -1.66000       1.30000    
      9975 MEMB     55       POPE     DC38     DRUD     -2.23580      0.400000           0   0.00000       0.00000    
      9976 MEMB     55       POPE     H8X      HDA2A    0.780000E-01   1.00800           0   0.00000       0.00000    
      9977 MEMB     55       POPE     H8Y      HDA2A    0.780000E-01   1.00800           0   0.00000       0.00000    
      9978 MEMB     55       POPE     C39      CD32A     2.07980       11.6110           0  -1.66000       1.30000    
      9979 MEMB     55       POPE     DC39     DRUD     -2.23580      0.400000           0   0.00000       0.00000    
      9980 MEMB     55       POPE     H9X      HDA2A    0.780000E-01   1.00800           0   0.00000       0.00000    
      9981 MEMB     55       POPE     H9Y      HDA2A    0.780000E-01   1.00800           0   0.00000       0.00000    
      9982 MEMB     55       POPE     C310     CD32A     2.07980       11.6110           0  -1.66000       1.30000    
      9983 MEMB     55       POPE     DC310    DRUD     -2.23580      0.400000           0   0.00000       0.00000    
      9984 MEMB     55       POPE     H10X     HDA2A    0.780000E-01   1.00800           0   0.00000       0.00000    
      9985 MEMB     55       POPE     H10Y     HDA2A    0.780000E-01   1.00800           0   0.00000       0.00000    
      9986 MEMB     55       POPE     C311     CD32A     2.07980       11.6110           0  -1.66000       1.30000    
      9987 MEMB     55       POPE     DC311    DRUD     -2.23580      0.400000           0   0.00000       0.00000    
      9988 MEMB     55       POPE     H11X     HDA2A    0.780000E-01   1.00800           0   0.00000       0.00000    
      9989 MEMB     55       POPE     H11Y     HDA2A    0.780000E-01   1.00800           0   0.00000       0.00000    
      9990 MEMB     55       POPE     C312     CD32A     2.07980       11.6110           0  -1.66000       1.30000    
      9991 MEMB     55       POPE     DC312    DRUD     -2.23580      0.400000           0   0.00000       0.00000    
      9992 MEMB     55       POPE     H12X     HDA2A    0.780000E-01   1.00800           0   0.00000       0.00000    
      9993 MEMB     55       POPE     H12Y     HDA2A    0.780000E-01   1.00800           0   0.00000       0.00000    
      9994 MEMB     55       POPE     C313     CD32A     2.07980       11.6110           0  -1.66000       1.30000    
      9995 MEMB     55       POPE     DC313    DRUD     -2.23580      0.400000           0   0.00000       0.00000    
      9996 MEMB     55       POPE     H13X     HDA2A    0.780000E-01   1.00800           0   0.00000       0.00000    
      9997 MEMB     55       POPE     H13Y     HDA2A    0.780000E-01   1.00800           0   0.00000       0.00000    
      9998 MEMB     55       POPE     C314     CD32A     2.07980       11.6110           0  -1.66000       1.30000    
      9999 MEMB     55       POPE     DC314    DRUD     -2.23580      0.400000           0   0.00000       0.00000    
     10000 MEMB     55       POPE     H14X     HDA2A    0.780000E-01   1.00800           0   0.00000       0.00000    
     10001 MEMB     55       POPE     H14Y     HDA2A    0.780000E-01   1.00800           0   0.00000       0.00000    
     10002 MEMB     55       POPE     C315     CD32A     2.07980       11.6110           0  -1.66000       1.30000    
     10003 MEMB     55       POPE     DC315    DRUD     -2.23580      0.400000           0   0.00000       0.00000    
     10004 MEMB     55       POPE     H15X     HDA2A    0.780000E-01   1.00800           0   0.00000       0.00000    
     10005 MEMB     55       POPE     H15Y     HDA2A    0.780000E-01   1.00800           0   0.00000       0.00000    
     10006 MEMB     55       POPE     C316     CD33A     2.30820       11.6110           0  -2.05100       1.30000    
     10007 MEMB     55       POPE     DC316    DRUD     -2.48520      0.400000           0   0.00000       0.00000    
     10008 MEMB     55       POPE     H16X     HDA3A    0.590000E-01   1.00800           0   0.00000       0.00000    
     10009 MEMB     55       POPE     H16Y     HDA3A    0.590000E-01   1.00800           0   0.00000       0.00000    
     10010 MEMB     55       POPE     H16Z     HDA3A    0.590000E-01   1.00800           0   0.00000       0.00000    
     10011 MEMB     56       POPE     N        ND3P3A    1.62810       13.6070           0  -1.29800      0.895000    
     10012 MEMB     56       POPE     DN       DRUD     -1.97710      0.400000           0   0.00000       0.00000    
     10013 MEMB     56       POPE     HN1      HDP1B    0.340000       1.00800           0   0.00000       0.00000    
     10014 MEMB     56       POPE     HN2      HDP1B    0.340000       1.00800           0   0.00000       0.00000    
     10015 MEMB     56       POPE     HN3      HDP1B    0.340000       1.00800           0   0.00000       0.00000    
     10016 MEMB     56       POPE     C12      CD32A     2.27610       11.6110           0  -1.65600      0.895000    
     10017 MEMB     56       POPE     DC12     DRUD     -2.23310      0.400000           0   0.00000       0.00000    
     10018 MEMB     56       POPE     H12A     HDA2A    0.143000       1.00800           0   0.00000       0.00000    
     10019 MEMB     56       POPE     H12B     HDA2A    0.143000       1.00800           0   0.00000       0.00000    
     10020 MEMB     56       POPE     C11      CD32A     2.42220       11.6110           0  -1.64200      0.862000    
     10021 MEMB     56       POPE     DC11     DRUD     -2.22370      0.400000           0   0.00000       0.00000    
     10022 MEMB     56       POPE     H11A     HDA2A    0.260000E-01   1.00800           0   0.00000       0.00000    
     10023 MEMB     56       POPE     H11B     HDA2A    0.260000E-01   1.00800           0   0.00000       0.00000    
     10024 MEMB     56       POPE     P        PD1A      2.90360       30.5740           0 -0.974000       2.09800    
     10025 MEMB     56       POPE     DP       DRUD     -1.71260      0.400000           0   0.00000       0.00000    
     10026 MEMB     56       POPE     O13      OD2C2B   0.798400       15.5994           0 -0.931000       1.08300    
     10027 MEMB     56       POPE     DO13     DRUD     -1.67440      0.400000           0   0.00000       0.00000    
     10028 MEMB     56       POPE     O14      OD2C2B   0.798400       15.5994           0 -0.931000       1.08300    
     10029 MEMB     56       POPE     DO14     DRUD     -1.67440      0.400000           0   0.00000       0.00000    
     10030 MEMB     56       POPE     O11      OD30B     1.17720       15.5994           0 -0.901000      0.181000    
     10031 MEMB     56       POPE     DO11     DRUD     -1.64720      0.400000           0   0.00000       0.00000    
     10032 MEMB     56       POPE     O12      OD30B     1.17720       15.5994           0 -0.901000      0.181000    
     10033 MEMB     56       POPE     DO12     DRUD     -1.64720      0.400000           0   0.00000       0.00000    
     10034 MEMB     56       POPE     C1       CD32A     2.42220       11.6110           0  -1.64200      0.862000    
     10035 MEMB     56       POPE     DC1      DRUD     -2.22370      0.400000           0   0.00000       0.00000    
     10036 MEMB     56       POPE     HA       HDA2A    0.260000E-01   1.00800           0   0.00000       0.00000    
     10037 MEMB     56       POPE     HB       HDA2A    0.260000E-01   1.00800           0   0.00000       0.00000    
     10038 MEMB     56       POPE     C2       CD31C     2.52830       11.6110           0  -1.79700      0.410000    
     10039 MEMB     56       POPE     DC2      DRUD     -2.32630      0.400000           0   0.00000       0.00000    
     10040 MEMB     56       POPE     HS       HDA1A    0.116000       1.00800           0   0.00000       0.00000    
     10041 MEMB     56       POPE     O21      OD30CL    1.48470       15.5994           0 -0.732000      0.601000    
     10042 MEMB     56       POPE     DO21     DRUD     -1.48470      0.400000           0   0.00000       0.00000    
     10043 MEMB     56       POPE     C21      CD2O3B    2.72820       11.6110           0  -1.37000       1.74700    
     10044 MEMB     56       POPE     DC21     DRUD     -2.03120      0.400000           0   0.00000       0.00000    
     10045 MEMB     56       POPE     O22      OD2C3B    1.64990       15.5994           0 -0.904000      0.565000    
     10046 MEMB     56       POPE     DO22     DRUD     -1.64990      0.400000           0   0.00000       0.00000    
     10047 MEMB     56       POPE     C22      CD32C     2.24380       11.6110           0  -1.99300      0.410000    
     10048 MEMB     56       POPE     DC22     DRUD     -2.44980      0.400000           0   0.00000       0.00000    
     10049 MEMB     56       POPE     H2R      HDA2A    0.690000E-01   1.00800           0   0.00000       0.00000    
     10050 MEMB     56       POPE     H2S      HDA2A    0.690000E-01   1.00800           0   0.00000       0.00000    
     10051 MEMB     56       POPE     LP1A     LPD     -0.349000       0.00000          -1   0.00000       0.00000    
     10052 MEMB     56       POPE     LP1B     LPD     -0.258000       0.00000          -1   0.00000       0.00000    
     10053 MEMB     56       POPE     LPMA     LPD     -0.170000       0.00000          -1   0.00000       0.00000    
     10054 MEMB     56       POPE     LPMB     LPD     -0.170000       0.00000          -1   0.00000       0.00000    
     10055 MEMB     56       POPE     C3       CD32C     2.41230       11.6110           0  -1.79700      0.410000    
     10056 MEMB     56       POPE     DC3      DRUD     -2.32630      0.400000           0   0.00000       0.00000    
     10057 MEMB     56       POPE     HX       HDA2A    0.116000       1.00800           0   0.00000       0.00000    
     10058 MEMB     56       POPE     HY       HDA2A    0.116000       1.00800           0   0.00000       0.00000    
     10059 MEMB     56       POPE     O31      OD30CL    1.48470       15.5994           0 -0.732000      0.601000    
     10060 MEMB     56       POPE     DO31     DRUD     -1.48470      0.400000           0   0.00000       0.00000    
     10061 MEMB     56       POPE     C31      CD2O3B    2.72820       11.6110           0  -1.37000       1.74700    
     10062 MEMB     56       POPE     DC31     DRUD     -2.03120      0.400000           0   0.00000       0.00000    
     10063 MEMB     56       POPE     O32      OD2C3B    1.64990       15.5994           0 -0.904000      0.565000    
     10064 MEMB     56       POPE     DO32     DRUD     -1.64990      0.400000           0   0.00000       0.00000    
     10065 MEMB     56       POPE     C32      CD32C     2.24380       11.6110           0  -1.99300      0.410000    
     10066 MEMB     56       POPE     DC32     DRUD     -2.44980      0.400000           0   0.00000       0.00000    
     10067 MEMB     56       POPE     H2X      HDA2A    0.690000E-01   1.00800           0   0.00000       0.00000    
     10068 MEMB     56       POPE     H2Y      HDA2A    0.690000E-01   1.00800           0   0.00000       0.00000    
     10069 MEMB     56       POPE     LP1C     LPD     -0.349000       0.00000          -1   0.00000       0.00000    
     10070 MEMB     56       POPE     LP1D     LPD     -0.258000       0.00000          -1   0.00000       0.00000    
     10071 MEMB     56       POPE     LPMC     LPD     -0.170000       0.00000          -1   0.00000       0.00000    
     10072 MEMB     56       POPE     LPMD     LPD     -0.170000       0.00000          -1   0.00000       0.00000    
     10073 MEMB     56       POPE     C23      CD32A     2.07980       11.6110           0  -1.66000       1.30000    
     10074 MEMB     56       POPE     DC23     DRUD     -2.23580      0.400000           0   0.00000       0.00000    
     10075 MEMB     56       POPE     H3R      HDA2A    0.780000E-01   1.00800           0   0.00000       0.00000    
     10076 MEMB     56       POPE     H3S      HDA2A    0.780000E-01   1.00800           0   0.00000       0.00000    
     10077 MEMB     56       POPE     C24      CD32A     2.07980       11.6110           0  -1.66000       1.30000    
     10078 MEMB     56       POPE     DC24     DRUD     -2.23580      0.400000           0   0.00000       0.00000    
     10079 MEMB     56       POPE     H4R      HDA2A    0.780000E-01   1.00800           0   0.00000       0.00000    
     10080 MEMB     56       POPE     H4S      HDA2A    0.780000E-01   1.00800           0   0.00000       0.00000    
     10081 MEMB     56       POPE     C25      CD32A     2.07980       11.6110           0  -1.66000       1.30000    
     10082 MEMB     56       POPE     DC25     DRUD     -2.23580      0.400000           0   0.00000       0.00000    
     10083 MEMB     56       POPE     H5R      HDA2A    0.780000E-01   1.00800           0   0.00000       0.00000    
     10084 MEMB     56       POPE     H5S      HDA2A    0.780000E-01   1.00800           0   0.00000       0.00000    
     10085 MEMB     56       POPE     C26      CD32A     2.07980       11.6110           0  -1.66000       1.30000    
     10086 MEMB     56       POPE     DC26     DRUD     -2.23580      0.400000           0   0.00000       0.00000    
     10087 MEMB     56       POPE     H6R      HDA2A    0.780000E-01   1.00800           0   0.00000       0.00000    
     10088 MEMB     56       POPE     H6S      HDA2A    0.780000E-01   1.00800           0   0.00000       0.00000    
     10089 MEMB     56       POPE     C27      CD32A     2.07980       11.6110           0  -1.66000       1.30000    
     10090 MEMB     56       POPE     DC27     DRUD     -2.23580      0.400000           0   0.00000       0.00000    
     10091 MEMB     56       POPE     H7R      HDA2A    0.780000E-01   1.00800           0   0.00000       0.00000    
     10092 MEMB     56       POPE     H7S      HDA2A    0.780000E-01   1.00800           0   0.00000       0.00000    
     10093 MEMB     56       POPE     C28      CD32A     2.07980       11.6110           0  -1.66000       1.30000    
     10094 MEMB     56       POPE     DC28     DRUD     -2.23580      0.400000           0   0.00000       0.00000    
     10095 MEMB     56       POPE     H8R      HDA2A    0.780000E-01   1.00800           0   0.00000       0.00000    
     10096 MEMB     56       POPE     H8S      HDA2A    0.780000E-01   1.00800           0   0.00000       0.00000    
     10097 MEMB     56       POPE     C29      CD2C1A    2.33700       11.6110           0  -1.99000      0.750000    
     10098 MEMB     56       POPE     DC29     DRUD     -2.44800      0.400000           0   0.00000       0.00000    
     10099 MEMB     56       POPE     H91      HD2C1A   0.111000       1.00800           0   0.00000       0.00000    
     10100 MEMB     56       POPE     C210     CD2C1A    2.33700       11.6110           0  -1.99000      0.750000    
     10101 MEMB     56       POPE     DC210    DRUD     -2.44800      0.400000           0   0.00000       0.00000    
     10102 MEMB     56       POPE     H101     HD2C1A   0.111000       1.00800           0   0.00000       0.00000    
     10103 MEMB     56       POPE     C211     CD32A     2.07980       11.6110           0  -1.66000       1.30000    
     10104 MEMB     56       POPE     DC211    DRUD     -2.23580      0.400000           0   0.00000       0.00000    
     10105 MEMB     56       POPE     H11R     HDA2A    0.780000E-01   1.00800           0   0.00000       0.00000    
     10106 MEMB     56       POPE     H11S     HDA2A    0.780000E-01   1.00800           0   0.00000       0.00000    
     10107 MEMB     56       POPE     C212     CD32A     2.07980       11.6110           0  -1.66000       1.30000    
     10108 MEMB     56       POPE     DC212    DRUD     -2.23580      0.400000           0   0.00000       0.00000    
     10109 MEMB     56       POPE     H12R     HDA2A    0.780000E-01   1.00800           0   0.00000       0.00000    
     10110 MEMB     56       POPE     H12S     HDA2A    0.780000E-01   1.00800           0   0.00000       0.00000    
     10111 MEMB     56       POPE     C213     CD32A     2.07980       11.6110           0  -1.66000       1.30000    
     10112 MEMB     56       POPE     DC213    DRUD     -2.23580      0.400000           0   0.00000       0.00000    
     10113 MEMB     56       POPE     H13R     HDA2A    0.780000E-01   1.00800           0   0.00000       0.00000    
     10114 MEMB     56       POPE     H13S     HDA2A    0.780000E-01   1.00800           0   0.00000       0.00000    
     10115 MEMB     56       POPE     C214     CD32A     2.07980       11.6110           0  -1.66000       1.30000    
     10116 MEMB     56       POPE     DC214    DRUD     -2.23580      0.400000           0   0.00000       0.00000    
     10117 MEMB     56       POPE     H14R     HDA2A    0.780000E-01   1.00800           0   0.00000       0.00000    
     10118 MEMB     56       POPE     H14S     HDA2A    0.780000E-01   1.00800           0   0.00000       0.00000    
     10119 MEMB     56       POPE     C215     CD32A     2.07980       11.6110           0  -1.66000       1.30000    
     10120 MEMB     56       POPE     DC215    DRUD     -2.23580      0.400000           0   0.00000       0.00000    
     10121 MEMB     56       POPE     H15R     HDA2A    0.780000E-01   1.00800           0   0.00000       0.00000    
     10122 MEMB     56       POPE     H15S     HDA2A    0.780000E-01   1.00800           0   0.00000       0.00000    
     10123 MEMB     56       POPE     C216     CD32A     2.07980       11.6110           0  -1.66000       1.30000    
     10124 MEMB     56       POPE     DC216    DRUD     -2.23580      0.400000           0   0.00000       0.00000    
     10125 MEMB     56       POPE     H16R     HDA2A    0.780000E-01   1.00800           0   0.00000       0.00000    
     10126 MEMB     56       POPE     H16S     HDA2A    0.780000E-01   1.00800           0   0.00000       0.00000    
     10127 MEMB     56       POPE     C217     CD32A     2.07980       11.6110           0  -1.66000       1.30000    
     10128 MEMB     56       POPE     DC217    DRUD     -2.23580      0.400000           0   0.00000       0.00000    
     10129 MEMB     56       POPE     H17R     HDA2A    0.780000E-01   1.00800           0   0.00000       0.00000    
     10130 MEMB     56       POPE     H17S     HDA2A    0.780000E-01   1.00800           0   0.00000       0.00000    
     10131 MEMB     56       POPE     C218     CD33A     2.30820       11.6110           0  -2.05100       1.30000    
     10132 MEMB     56       POPE     DC218    DRUD     -2.48520      0.400000           0   0.00000       0.00000    
     10133 MEMB     56       POPE     H18R     HDA3A    0.590000E-01   1.00800           0   0.00000       0.00000    
     10134 MEMB     56       POPE     H18S     HDA3A    0.590000E-01   1.00800           0   0.00000       0.00000    
     10135 MEMB     56       POPE     H18T     HDA3A    0.590000E-01   1.00800           0   0.00000       0.00000    
     10136 MEMB     56       POPE     C33      CD32A     2.07980       11.6110           0  -1.66000       1.30000    
     10137 MEMB     56       POPE     DC33     DRUD     -2.23580      0.400000           0   0.00000       0.00000    
     10138 MEMB     56       POPE     H3X      HDA2A    0.780000E-01   1.00800           0   0.00000       0.00000    
     10139 MEMB     56       POPE     H3Y      HDA2A    0.780000E-01   1.00800           0   0.00000       0.00000    
     10140 MEMB     56       POPE     C34      CD32A     2.07980       11.6110           0  -1.66000       1.30000    
     10141 MEMB     56       POPE     DC34     DRUD     -2.23580      0.400000           0   0.00000       0.00000    
     10142 MEMB     56       POPE     H4X      HDA2A    0.780000E-01   1.00800           0   0.00000       0.00000    
     10143 MEMB     56       POPE     H4Y      HDA2A    0.780000E-01   1.00800           0   0.00000       0.00000    
     10144 MEMB     56       POPE     C35      CD32A     2.07980       11.6110           0  -1.66000       1.30000    
     10145 MEMB     56       POPE     DC35     DRUD     -2.23580      0.400000           0   0.00000       0.00000    
     10146 MEMB     56       POPE     H5X      HDA2A    0.780000E-01   1.00800           0   0.00000       0.00000    
     10147 MEMB     56       POPE     H5Y      HDA2A    0.780000E-01   1.00800           0   0.00000       0.00000    
     10148 MEMB     56       POPE     C36      CD32A     2.07980       11.6110           0  -1.66000       1.30000    
     10149 MEMB     56       POPE     DC36     DRUD     -2.23580      0.400000           0   0.00000       0.00000    
     10150 MEMB     56       POPE     H6X      HDA2A    0.780000E-01   1.00800           0   0.00000       0.00000    
     10151 MEMB     56       POPE     H6Y      HDA2A    0.780000E-01   1.00800           0   0.00000       0.00000    
     10152 MEMB     56       POPE     C37      CD32A     2.07980       11.6110           0  -1.66000       1.30000    
     10153 MEMB     56       POPE     DC37     DRUD     -2.23580      0.400000           0   0.00000       0.00000    
     10154 MEMB     56       POPE     H7X      HDA2A    0.780000E-01   1.00800           0   0.00000       0.00000    
     10155 MEMB     56       POPE     H7Y      HDA2A    0.780000E-01   1.00800           0   0.00000       0.00000    
     10156 MEMB     56       POPE     C38      CD32A     2.07980       11.6110           0  -1.66000       1.30000    
     10157 MEMB     56       POPE     DC38     DRUD     -2.23580      0.400000           0   0.00000       0.00000    
     10158 MEMB     56       POPE     H8X      HDA2A    0.780000E-01   1.00800           0   0.00000       0.00000    
     10159 MEMB     56       POPE     H8Y      HDA2A    0.780000E-01   1.00800           0   0.00000       0.00000    
     10160 MEMB     56       POPE     C39      CD32A     2.07980       11.6110           0  -1.66000       1.30000    
     10161 MEMB     56       POPE     DC39     DRUD     -2.23580      0.400000           0   0.00000       0.00000    
     10162 MEMB     56       POPE     H9X      HDA2A    0.780000E-01   1.00800           0   0.00000       0.00000    
     10163 MEMB     56       POPE     H9Y      HDA2A    0.780000E-01   1.00800           0   0.00000       0.00000    
     10164 MEMB     56       POPE     C310     CD32A     2.07980       11.6110           0  -1.66000       1.30000    
     10165 MEMB     56       POPE     DC310    DRUD     -2.23580      0.400000           0   0.00000       0.00000    
     10166 MEMB     56       POPE     H10X     HDA2A    0.780000E-01   1.00800           0   0.00000       0.00000    
     10167 MEMB     56       POPE     H10Y     HDA2A    0.780000E-01   1.00800           0   0.00000       0.00000    
     10168 MEMB     56       POPE     C311     CD32A     2.07980       11.6110           0  -1.66000       1.30000    
     10169 MEMB     56       POPE     DC311    DRUD     -2.23580      0.400000           0   0.00000       0.00000    
     10170 MEMB     56       POPE     H11X     HDA2A    0.780000E-01   1.00800           0   0.00000       0.00000    
     10171 MEMB     56       POPE     H11Y     HDA2A    0.780000E-01   1.00800           0   0.00000       0.00000    
     10172 MEMB     56       POPE     C312     CD32A     2.07980       11.6110           0  -1.66000       1.30000    
     10173 MEMB     56       POPE     DC312    DRUD     -2.23580      0.400000           0   0.00000       0.00000    
     10174 MEMB     56       POPE     H12X     HDA2A    0.780000E-01   1.00800           0   0.00000       0.00000    
     10175 MEMB     56       POPE     H12Y     HDA2A    0.780000E-01   1.00800           0   0.00000       0.00000    
     10176 MEMB     56       POPE     C313     CD32A     2.07980       11.6110           0  -1.66000       1.30000    
     10177 MEMB     56       POPE     DC313    DRUD     -2.23580      0.400000           0   0.00000       0.00000    
     10178 MEMB     56       POPE     H13X     HDA2A    0.780000E-01   1.00800           0   0.00000       0.00000    
     10179 MEMB     56       POPE     H13Y     HDA2A    0.780000E-01   1.00800           0   0.00000       0.00000    
     10180 MEMB     56       POPE     C314     CD32A     2.07980       11.6110           0  -1.66000       1.30000    
     10181 MEMB     56       POPE     DC314    DRUD     -2.23580      0.400000           0   0.00000       0.00000    
     10182 MEMB     56       POPE     H14X     HDA2A    0.780000E-01   1.00800           0   0.00000       0.00000    
     10183 MEMB     56       POPE     H14Y     HDA2A    0.780000E-01   1.00800           0   0.00000       0.00000    
     10184 MEMB     56       POPE     C315     CD32A     2.07980       11.6110           0  -1.66000       1.30000    
     10185 MEMB     56       POPE     DC315    DRUD     -2.23580      0.400000           0   0.00000       0.00000    
     10186 MEMB     56       POPE     H15X     HDA2A    0.780000E-01   1.00800           0   0.00000       0.00000    
     10187 MEMB     56       POPE     H15Y     HDA2A    0.780000E-01   1.00800           0   0.00000       0.00000    
     10188 MEMB     56       POPE     C316     CD33A     2.30820       11.6110           0  -2.05100       1.30000    
     10189 MEMB     56       POPE     DC316    DRUD     -2.48520      0.400000           0   0.00000       0.00000    
     10190 MEMB     56       POPE     H16X     HDA3A    0.590000E-01   1.00800           0   0.00000       0.00000    
     10191 MEMB     56       POPE     H16Y     HDA3A    0.590000E-01   1.00800           0   0.00000       0.00000    
     10192 MEMB     56       POPE     H16Z     HDA3A    0.590000E-01   1.00800           0   0.00000       0.00000    
     10193 MEMB     57       POPE     N        ND3P3A    1.62810       13.6070           0  -1.29800      0.895000    
     10194 MEMB     57       POPE     DN       DRUD     -1.97710      0.400000           0   0.00000       0.00000    
     10195 MEMB     57       POPE     HN1      HDP1B    0.340000       1.00800           0   0.00000       0.00000    
     10196 MEMB     57       POPE     HN2      HDP1B    0.340000       1.00800           0   0.00000       0.00000    
     10197 MEMB     57       POPE     HN3      HDP1B    0.340000       1.00800           0   0.00000       0.00000    
     10198 MEMB     57       POPE     C12      CD32A     2.27610       11.6110           0  -1.65600      0.895000    
     10199 MEMB     57       POPE     DC12     DRUD     -2.23310      0.400000           0   0.00000       0.00000    
     10200 MEMB     57       POPE     H12A     HDA2A    0.143000       1.00800           0   0.00000       0.00000    
     10201 MEMB     57       POPE     H12B     HDA2A    0.143000       1.00800           0   0.00000       0.00000    
     10202 MEMB     57       POPE     C11      CD32A     2.42220       11.6110           0  -1.64200      0.862000    
     10203 MEMB     57       POPE     DC11     DRUD     -2.22370      0.400000           0   0.00000       0.00000    
     10204 MEMB     57       POPE     H11A     HDA2A    0.260000E-01   1.00800           0   0.00000       0.00000    
     10205 MEMB     57       POPE     H11B     HDA2A    0.260000E-01   1.00800           0   0.00000       0.00000    
     10206 MEMB     57       POPE     P        PD1A      2.90360       30.5740           0 -0.974000       2.09800    
     10207 MEMB     57       POPE     DP       DRUD     -1.71260      0.400000           0   0.00000       0.00000    
     10208 MEMB     57       POPE     O13      OD2C2B   0.798400       15.5994           0 -0.931000       1.08300    
     10209 MEMB     57       POPE     DO13     DRUD     -1.67440      0.400000           0   0.00000       0.00000    
     10210 MEMB     57       POPE     O14      OD2C2B   0.798400       15.5994           0 -0.931000       1.08300    
     10211 MEMB     57       POPE     DO14     DRUD     -1.67440      0.400000           0   0.00000       0.00000    
     10212 MEMB     57       POPE     O11      OD30B     1.17720       15.5994           0 -0.901000      0.181000    
     10213 MEMB     57       POPE     DO11     DRUD     -1.64720      0.400000           0   0.00000       0.00000    
     10214 MEMB     57       POPE     O12      OD30B     1.17720       15.5994           0 -0.901000      0.181000    
     10215 MEMB     57       POPE     DO12     DRUD     -1.64720      0.400000           0   0.00000       0.00000    
     10216 MEMB     57       POPE     C1       CD32A     2.42220       11.6110           0  -1.64200      0.862000    
     10217 MEMB     57       POPE     DC1      DRUD     -2.22370      0.400000           0   0.00000       0.00000    
     10218 MEMB     57       POPE     HA       HDA2A    0.260000E-01   1.00800           0   0.00000       0.00000    
     10219 MEMB     57       POPE     HB       HDA2A    0.260000E-01   1.00800           0   0.00000       0.00000    
     10220 MEMB     57       POPE     C2       CD31C     2.52830       11.6110           0  -1.79700      0.410000    
     10221 MEMB     57       POPE     DC2      DRUD     -2.32630      0.400000           0   0.00000       0.00000    
     10222 MEMB     57       POPE     HS       HDA1A    0.116000       1.00800           0   0.00000       0.00000    
     10223 MEMB     57       POPE     O21      OD30CL    1.48470       15.5994           0 -0.732000      0.601000    
     10224 MEMB     57       POPE     DO21     DRUD     -1.48470      0.400000           0   0.00000       0.00000    
     10225 MEMB     57       POPE     C21      CD2O3B    2.72820       11.6110           0  -1.37000       1.74700    
     10226 MEMB     57       POPE     DC21     DRUD     -2.03120      0.400000           0   0.00000       0.00000    
     10227 MEMB     57       POPE     O22      OD2C3B    1.64990       15.5994           0 -0.904000      0.565000    
     10228 MEMB     57       POPE     DO22     DRUD     -1.64990      0.400000           0   0.00000       0.00000    
     10229 MEMB     57       POPE     C22      CD32C     2.24380       11.6110           0  -1.99300      0.410000    
     10230 MEMB     57       POPE     DC22     DRUD     -2.44980      0.400000           0   0.00000       0.00000    
     10231 MEMB     57       POPE     H2R      HDA2A    0.690000E-01   1.00800           0   0.00000       0.00000    
     10232 MEMB     57       POPE     H2S      HDA2A    0.690000E-01   1.00800           0   0.00000       0.00000    
     10233 MEMB     57       POPE     LP1A     LPD     -0.349000       0.00000          -1   0.00000       0.00000    
     10234 MEMB     57       POPE     LP1B     LPD     -0.258000       0.00000          -1   0.00000       0.00000    
     10235 MEMB     57       POPE     LPMA     LPD     -0.170000       0.00000          -1   0.00000       0.00000    
     10236 MEMB     57       POPE     LPMB     LPD     -0.170000       0.00000          -1   0.00000       0.00000    
     10237 MEMB     57       POPE     C3       CD32C     2.41230       11.6110           0  -1.79700      0.410000    
     10238 MEMB     57       POPE     DC3      DRUD     -2.32630      0.400000           0   0.00000       0.00000    
     10239 MEMB     57       POPE     HX       HDA2A    0.116000       1.00800           0   0.00000       0.00000    
     10240 MEMB     57       POPE     HY       HDA2A    0.116000       1.00800           0   0.00000       0.00000    
     10241 MEMB     57       POPE     O31      OD30CL    1.48470       15.5994           0 -0.732000      0.601000    
     10242 MEMB     57       POPE     DO31     DRUD     -1.48470      0.400000           0   0.00000       0.00000    
     10243 MEMB     57       POPE     C31      CD2O3B    2.72820       11.6110           0  -1.37000       1.74700    
     10244 MEMB     57       POPE     DC31     DRUD     -2.03120      0.400000           0   0.00000       0.00000    
     10245 MEMB     57       POPE     O32      OD2C3B    1.64990       15.5994           0 -0.904000      0.565000    
     10246 MEMB     57       POPE     DO32     DRUD     -1.64990      0.400000           0   0.00000       0.00000    
     10247 MEMB     57       POPE     C32      CD32C     2.24380       11.6110           0  -1.99300      0.410000    
     10248 MEMB     57       POPE     DC32     DRUD     -2.44980      0.400000           0   0.00000       0.00000    
     10249 MEMB     57       POPE     H2X      HDA2A    0.690000E-01   1.00800           0   0.00000       0.00000    
     10250 MEMB     57       POPE     H2Y      HDA2A    0.690000E-01   1.00800           0   0.00000       0.00000    
     10251 MEMB     57       POPE     LP1C     LPD     -0.349000       0.00000          -1   0.00000       0.00000    
     10252 MEMB     57       POPE     LP1D     LPD     -0.258000       0.00000          -1   0.00000       0.00000    
     10253 MEMB     57       POPE     LPMC     LPD     -0.170000       0.00000          -1   0.00000       0.00000    
     10254 MEMB     57       POPE     LPMD     LPD     -0.170000       0.00000          -1   0.00000       0.00000    
     10255 MEMB     57       POPE     C23      CD32A     2.07980       11.6110           0  -1.66000       1.30000    
     10256 MEMB     57       POPE     DC23     DRUD     -2.23580      0.400000           0   0.00000       0.00000    
     10257 MEMB     57       POPE     H3R      HDA2A    0.780000E-01   1.00800           0   0.00000       0.00000    
     10258 MEMB     57       POPE     H3S      HDA2A    0.780000E-01   1.00800           0   0.00000       0.00000    
     10259 MEMB     57       POPE     C24      CD32A     2.07980       11.6110           0  -1.66000       1.30000    
     10260 MEMB     57       POPE     DC24     DRUD     -2.23580      0.400000           0   0.00000       0.00000    
     10261 MEMB     57       POPE     H4R      HDA2A    0.780000E-01   1.00800           0   0.00000       0.00000    
     10262 MEMB     57       POPE     H4S      HDA2A    0.780000E-01   1.00800           0   0.00000       0.00000    
     10263 MEMB     57       POPE     C25      CD32A     2.07980       11.6110           0  -1.66000       1.30000    
     10264 MEMB     57       POPE     DC25     DRUD     -2.23580      0.400000           0   0.00000       0.00000    
     10265 MEMB     57       POPE     H5R      HDA2A    0.780000E-01   1.00800           0   0.00000       0.00000    
     10266 MEMB     57       POPE     H5S      HDA2A    0.780000E-01   1.00800           0   0.00000       0.00000    
     10267 MEMB     57       POPE     C26      CD32A     2.07980       11.6110           0  -1.66000       1.30000    
     10268 MEMB     57       POPE     DC26     DRUD     -2.23580      0.400000           0   0.00000       0.00000    
     10269 MEMB     57       POPE     H6R      HDA2A    0.780000E-01   1.00800           0   0.00000       0.00000    
     10270 MEMB     57       POPE     H6S      HDA2A    0.780000E-01   1.00800           0   0.00000       0.00000    
     10271 MEMB     57       POPE     C27      CD32A     2.07980       11.6110           0  -1.66000       1.30000    
     10272 MEMB     57       POPE     DC27     DRUD     -2.23580      0.400000           0   0.00000       0.00000    
     10273 MEMB     57       POPE     H7R      HDA2A    0.780000E-01   1.00800           0   0.00000       0.00000    
     10274 MEMB     57       POPE     H7S      HDA2A    0.780000E-01   1.00800           0   0.00000       0.00000    
     10275 MEMB     57       POPE     C28      CD32A     2.07980       11.6110           0  -1.66000       1.30000    
     10276 MEMB     57       POPE     DC28     DRUD     -2.23580      0.400000           0   0.00000       0.00000    
     10277 MEMB     57       POPE     H8R      HDA2A    0.780000E-01   1.00800           0   0.00000       0.00000    
     10278 MEMB     57       POPE     H8S      HDA2A    0.780000E-01   1.00800           0   0.00000       0.00000    
     10279 MEMB     57       POPE     C29      CD2C1A    2.33700       11.6110           0  -1.99000      0.750000    
     10280 MEMB     57       POPE     DC29     DRUD     -2.44800      0.400000           0   0.00000       0.00000    
     10281 MEMB     57       POPE     H91      HD2C1A   0.111000       1.00800           0   0.00000       0.00000    
     10282 MEMB     57       POPE     C210     CD2C1A    2.33700       11.6110           0  -1.99000      0.750000    
     10283 MEMB     57       POPE     DC210    DRUD     -2.44800      0.400000           0   0.00000       0.00000    
     10284 MEMB     57       POPE     H101     HD2C1A   0.111000       1.00800           0   0.00000       0.00000    
     10285 MEMB     57       POPE     C211     CD32A     2.07980       11.6110           0  -1.66000       1.30000    
     10286 MEMB     57       POPE     DC211    DRUD     -2.23580      0.400000           0   0.00000       0.00000    
     10287 MEMB     57       POPE     H11R     HDA2A    0.780000E-01   1.00800           0   0.00000       0.00000    
     10288 MEMB     57       POPE     H11S     HDA2A    0.780000E-01   1.00800           0   0.00000       0.00000    
     10289 MEMB     57       POPE     C212     CD32A     2.07980       11.6110           0  -1.66000       1.30000    
     10290 MEMB     57       POPE     DC212    DRUD     -2.23580      0.400000           0   0.00000       0.00000    
     10291 MEMB     57       POPE     H12R     HDA2A    0.780000E-01   1.00800           0   0.00000       0.00000    
     10292 MEMB     57       POPE     H12S     HDA2A    0.780000E-01   1.00800           0   0.00000       0.00000    
     10293 MEMB     57       POPE     C213     CD32A     2.07980       11.6110           0  -1.66000       1.30000    
     10294 MEMB     57       POPE     DC213    DRUD     -2.23580      0.400000           0   0.00000       0.00000    
     10295 MEMB     57       POPE     H13R     HDA2A    0.780000E-01   1.00800           0   0.00000       0.00000    
     10296 MEMB     57       POPE     H13S     HDA2A    0.780000E-01   1.00800           0   0.00000       0.00000    
     10297 MEMB     57       POPE     C214     CD32A     2.07980       11.6110           0  -1.66000       1.30000    
     10298 MEMB     57       POPE     DC214    DRUD     -2.23580      0.400000           0   0.00000       0.00000    
     10299 MEMB     57       POPE     H14R     HDA2A    0.780000E-01   1.00800           0   0.00000       0.00000    
     10300 MEMB     57       POPE     H14S     HDA2A    0.780000E-01   1.00800           0   0.00000       0.00000    
     10301 MEMB     57       POPE     C215     CD32A     2.07980       11.6110           0  -1.66000       1.30000    
     10302 MEMB     57       POPE     DC215    DRUD     -2.23580      0.400000           0   0.00000       0.00000    
     10303 MEMB     57       POPE     H15R     HDA2A    0.780000E-01   1.00800           0   0.00000       0.00000    
     10304 MEMB     57       POPE     H15S     HDA2A    0.780000E-01   1.00800           0   0.00000       0.00000    
     10305 MEMB     57       POPE     C216     CD32A     2.07980       11.6110           0  -1.66000       1.30000    
     10306 MEMB     57       POPE     DC216    DRUD     -2.23580      0.400000           0   0.00000       0.00000    
     10307 MEMB     57       POPE     H16R     HDA2A    0.780000E-01   1.00800           0   0.00000       0.00000    
     10308 MEMB     57       POPE     H16S     HDA2A    0.780000E-01   1.00800           0   0.00000       0.00000    
     10309 MEMB     57       POPE     C217     CD32A     2.07980       11.6110           0  -1.66000       1.30000    
     10310 MEMB     57       POPE     DC217    DRUD     -2.23580      0.400000           0   0.00000       0.00000    
     10311 MEMB     57       POPE     H17R     HDA2A    0.780000E-01   1.00800           0   0.00000       0.00000    
     10312 MEMB     57       POPE     H17S     HDA2A    0.780000E-01   1.00800           0   0.00000       0.00000    
     10313 MEMB     57       POPE     C218     CD33A     2.30820       11.6110           0  -2.05100       1.30000    
     10314 MEMB     57       POPE     DC218    DRUD     -2.48520      0.400000           0   0.00000       0.00000    
     10315 MEMB     57       POPE     H18R     HDA3A    0.590000E-01   1.00800           0   0.00000       0.00000    
     10316 MEMB     57       POPE     H18S     HDA3A    0.590000E-01   1.00800           0   0.00000       0.00000    
     10317 MEMB     57       POPE     H18T     HDA3A    0.590000E-01   1.00800           0   0.00000       0.00000    
     10318 MEMB     57       POPE     C33      CD32A     2.07980       11.6110           0  -1.66000       1.30000    
     10319 MEMB     57       POPE     DC33     DRUD     -2.23580      0.400000           0   0.00000       0.00000    
     10320 MEMB     57       POPE     H3X      HDA2A    0.780000E-01   1.00800           0   0.00000       0.00000    
     10321 MEMB     57       POPE     H3Y      HDA2A    0.780000E-01   1.00800           0   0.00000       0.00000    
     10322 MEMB     57       POPE     C34      CD32A     2.07980       11.6110           0  -1.66000       1.30000    
     10323 MEMB     57       POPE     DC34     DRUD     -2.23580      0.400000           0   0.00000       0.00000    
     10324 MEMB     57       POPE     H4X      HDA2A    0.780000E-01   1.00800           0   0.00000       0.00000    
     10325 MEMB     57       POPE     H4Y      HDA2A    0.780000E-01   1.00800           0   0.00000       0.00000    
     10326 MEMB     57       POPE     C35      CD32A     2.07980       11.6110           0  -1.66000       1.30000    
     10327 MEMB     57       POPE     DC35     DRUD     -2.23580      0.400000           0   0.00000       0.00000    
     10328 MEMB     57       POPE     H5X      HDA2A    0.780000E-01   1.00800           0   0.00000       0.00000    
     10329 MEMB     57       POPE     H5Y      HDA2A    0.780000E-01   1.00800           0   0.00000       0.00000    
     10330 MEMB     57       POPE     C36      CD32A     2.07980       11.6110           0  -1.66000       1.30000    
     10331 MEMB     57       POPE     DC36     DRUD     -2.23580      0.400000           0   0.00000       0.00000    
     10332 MEMB     57       POPE     H6X      HDA2A    0.780000E-01   1.00800           0   0.00000       0.00000    
     10333 MEMB     57       POPE     H6Y      HDA2A    0.780000E-01   1.00800           0   0.00000       0.00000    
     10334 MEMB     57       POPE     C37      CD32A     2.07980       11.6110           0  -1.66000       1.30000    
     10335 MEMB     57       POPE     DC37     DRUD     -2.23580      0.400000           0   0.00000       0.00000    
     10336 MEMB     57       POPE     H7X      HDA2A    0.780000E-01   1.00800           0   0.00000       0.00000    
     10337 MEMB     57       POPE     H7Y      HDA2A    0.780000E-01   1.00800           0   0.00000       0.00000    
     10338 MEMB     57       POPE     C38      CD32A     2.07980       11.6110           0  -1.66000       1.30000    
     10339 MEMB     57       POPE     DC38     DRUD     -2.23580      0.400000           0   0.00000       0.00000    
     10340 MEMB     57       POPE     H8X      HDA2A    0.780000E-01   1.00800           0   0.00000       0.00000    
     10341 MEMB     57       POPE     H8Y      HDA2A    0.780000E-01   1.00800           0   0.00000       0.00000    
     10342 MEMB     57       POPE     C39      CD32A     2.07980       11.6110           0  -1.66000       1.30000    
     10343 MEMB     57       POPE     DC39     DRUD     -2.23580      0.400000           0   0.00000       0.00000    
     10344 MEMB     57       POPE     H9X      HDA2A    0.780000E-01   1.00800           0   0.00000       0.00000    
     10345 MEMB     57       POPE     H9Y      HDA2A    0.780000E-01   1.00800           0   0.00000       0.00000    
     10346 MEMB     57       POPE     C310     CD32A     2.07980       11.6110           0  -1.66000       1.30000    
     10347 MEMB     57       POPE     DC310    DRUD     -2.23580      0.400000           0   0.00000       0.00000    
     10348 MEMB     57       POPE     H10X     HDA2A    0.780000E-01   1.00800           0   0.00000       0.00000    
     10349 MEMB     57       POPE     H10Y     HDA2A    0.780000E-01   1.00800           0   0.00000       0.00000    
     10350 MEMB     57       POPE     C311     CD32A     2.07980       11.6110           0  -1.66000       1.30000    
     10351 MEMB     57       POPE     DC311    DRUD     -2.23580      0.400000           0   0.00000       0.00000    
     10352 MEMB     57       POPE     H11X     HDA2A    0.780000E-01   1.00800           0   0.00000       0.00000    
     10353 MEMB     57       POPE     H11Y     HDA2A    0.780000E-01   1.00800           0   0.00000       0.00000    
     10354 MEMB     57       POPE     C312     CD32A     2.07980       11.6110           0  -1.66000       1.30000    
     10355 MEMB     57       POPE     DC312    DRUD     -2.23580      0.400000           0   0.00000       0.00000    
     10356 MEMB     57       POPE     H12X     HDA2A    0.780000E-01   1.00800           0   0.00000       0.00000    
     10357 MEMB     57       POPE     H12Y     HDA2A    0.780000E-01   1.00800           0   0.00000       0.00000    
     10358 MEMB     57       POPE     C313     CD32A     2.07980       11.6110           0  -1.66000       1.30000    
     10359 MEMB     57       POPE     DC313    DRUD     -2.23580      0.400000           0   0.00000       0.00000    
     10360 MEMB     57       POPE     H13X     HDA2A    0.780000E-01   1.00800           0   0.00000       0.00000    
     10361 MEMB     57       POPE     H13Y     HDA2A    0.780000E-01   1.00800           0   0.00000       0.00000    
     10362 MEMB     57       POPE     C314     CD32A     2.07980       11.6110           0  -1.66000       1.30000    
     10363 MEMB     57       POPE     DC314    DRUD     -2.23580      0.400000           0   0.00000       0.00000    
     10364 MEMB     57       POPE     H14X     HDA2A    0.780000E-01   1.00800           0   0.00000       0.00000    
     10365 MEMB     57       POPE     H14Y     HDA2A    0.780000E-01   1.00800           0   0.00000       0.00000    
     10366 MEMB     57       POPE     C315     CD32A     2.07980       11.6110           0  -1.66000       1.30000    
     10367 MEMB     57       POPE     DC315    DRUD     -2.23580      0.400000           0   0.00000       0.00000    
     10368 MEMB     57       POPE     H15X     HDA2A    0.780000E-01   1.00800           0   0.00000       0.00000    
     10369 MEMB     57       POPE     H15Y     HDA2A    0.780000E-01   1.00800           0   0.00000       0.00000    
     10370 MEMB     57       POPE     C316     CD33A     2.30820       11.6110           0  -2.05100       1.30000    
     10371 MEMB     57       POPE     DC316    DRUD     -2.48520      0.400000           0   0.00000       0.00000    
     10372 MEMB     57       POPE     H16X     HDA3A    0.590000E-01   1.00800           0   0.00000       0.00000    
     10373 MEMB     57       POPE     H16Y     HDA3A    0.590000E-01   1.00800           0   0.00000       0.00000    
     10374 MEMB     57       POPE     H16Z     HDA3A    0.590000E-01   1.00800           0   0.00000       0.00000    
     10375 MEMB     58       POPE     N        ND3P3A    1.62810       13.6070           0  -1.29800      0.895000    
     10376 MEMB     58       POPE     DN       DRUD     -1.97710      0.400000           0   0.00000       0.00000    
     10377 MEMB     58       POPE     HN1      HDP1B    0.340000       1.00800           0   0.00000       0.00000    
     10378 MEMB     58       POPE     HN2      HDP1B    0.340000       1.00800           0   0.00000       0.00000    
     10379 MEMB     58       POPE     HN3      HDP1B    0.340000       1.00800           0   0.00000       0.00000    
     10380 MEMB     58       POPE     C12      CD32A     2.27610       11.6110           0  -1.65600      0.895000    
     10381 MEMB     58       POPE     DC12     DRUD     -2.23310      0.400000           0   0.00000       0.00000    
     10382 MEMB     58       POPE     H12A     HDA2A    0.143000       1.00800           0   0.00000       0.00000    
     10383 MEMB     58       POPE     H12B     HDA2A    0.143000       1.00800           0   0.00000       0.00000    
     10384 MEMB     58       POPE     C11      CD32A     2.42220       11.6110           0  -1.64200      0.862000    
     10385 MEMB     58       POPE     DC11     DRUD     -2.22370      0.400000           0   0.00000       0.00000    
     10386 MEMB     58       POPE     H11A     HDA2A    0.260000E-01   1.00800           0   0.00000       0.00000    
     10387 MEMB     58       POPE     H11B     HDA2A    0.260000E-01   1.00800           0   0.00000       0.00000    
     10388 MEMB     58       POPE     P        PD1A      2.90360       30.5740           0 -0.974000       2.09800    
     10389 MEMB     58       POPE     DP       DRUD     -1.71260      0.400000           0   0.00000       0.00000    
     10390 MEMB     58       POPE     O13      OD2C2B   0.798400       15.5994           0 -0.931000       1.08300    
     10391 MEMB     58       POPE     DO13     DRUD     -1.67440      0.400000           0   0.00000       0.00000    
     10392 MEMB     58       POPE     O14      OD2C2B   0.798400       15.5994           0 -0.931000       1.08300    
     10393 MEMB     58       POPE     DO14     DRUD     -1.67440      0.400000           0   0.00000       0.00000    
     10394 MEMB     58       POPE     O11      OD30B     1.17720       15.5994           0 -0.901000      0.181000    
     10395 MEMB     58       POPE     DO11     DRUD     -1.64720      0.400000           0   0.00000       0.00000    
     10396 MEMB     58       POPE     O12      OD30B     1.17720       15.5994           0 -0.901000      0.181000    
     10397 MEMB     58       POPE     DO12     DRUD     -1.64720      0.400000           0   0.00000       0.00000    
     10398 MEMB     58       POPE     C1       CD32A     2.42220       11.6110           0  -1.64200      0.862000    
     10399 MEMB     58       POPE     DC1      DRUD     -2.22370      0.400000           0   0.00000       0.00000    
     10400 MEMB     58       POPE     HA       HDA2A    0.260000E-01   1.00800           0   0.00000       0.00000    
     10401 MEMB     58       POPE     HB       HDA2A    0.260000E-01   1.00800           0   0.00000       0.00000    
     10402 MEMB     58       POPE     C2       CD31C     2.52830       11.6110           0  -1.79700      0.410000    
     10403 MEMB     58       POPE     DC2      DRUD     -2.32630      0.400000           0   0.00000       0.00000    
     10404 MEMB     58       POPE     HS       HDA1A    0.116000       1.00800           0   0.00000       0.00000    
     10405 MEMB     58       POPE     O21      OD30CL    1.48470       15.5994           0 -0.732000      0.601000    
     10406 MEMB     58       POPE     DO21     DRUD     -1.48470      0.400000           0   0.00000       0.00000    
     10407 MEMB     58       POPE     C21      CD2O3B    2.72820       11.6110           0  -1.37000       1.74700    
     10408 MEMB     58       POPE     DC21     DRUD     -2.03120      0.400000           0   0.00000       0.00000    
     10409 MEMB     58       POPE     O22      OD2C3B    1.64990       15.5994           0 -0.904000      0.565000    
     10410 MEMB     58       POPE     DO22     DRUD     -1.64990      0.400000           0   0.00000       0.00000    
     10411 MEMB     58       POPE     C22      CD32C     2.24380       11.6110           0  -1.99300      0.410000    
     10412 MEMB     58       POPE     DC22     DRUD     -2.44980      0.400000           0   0.00000       0.00000    
     10413 MEMB     58       POPE     H2R      HDA2A    0.690000E-01   1.00800           0   0.00000       0.00000    
     10414 MEMB     58       POPE     H2S      HDA2A    0.690000E-01   1.00800           0   0.00000       0.00000    
     10415 MEMB     58       POPE     LP1A     LPD     -0.349000       0.00000          -1   0.00000       0.00000    
     10416 MEMB     58       POPE     LP1B     LPD     -0.258000       0.00000          -1   0.00000       0.00000    
     10417 MEMB     58       POPE     LPMA     LPD     -0.170000       0.00000          -1   0.00000       0.00000    
     10418 MEMB     58       POPE     LPMB     LPD     -0.170000       0.00000          -1   0.00000       0.00000    
     10419 MEMB     58       POPE     C3       CD32C     2.41230       11.6110           0  -1.79700      0.410000    
     10420 MEMB     58       POPE     DC3      DRUD     -2.32630      0.400000           0   0.00000       0.00000    
     10421 MEMB     58       POPE     HX       HDA2A    0.116000       1.00800           0   0.00000       0.00000    
     10422 MEMB     58       POPE     HY       HDA2A    0.116000       1.00800           0   0.00000       0.00000    
     10423 MEMB     58       POPE     O31      OD30CL    1.48470       15.5994           0 -0.732000      0.601000    
     10424 MEMB     58       POPE     DO31     DRUD     -1.48470      0.400000           0   0.00000       0.00000    
     10425 MEMB     58       POPE     C31      CD2O3B    2.72820       11.6110           0  -1.37000       1.74700    
     10426 MEMB     58       POPE     DC31     DRUD     -2.03120      0.400000           0   0.00000       0.00000    
     10427 MEMB     58       POPE     O32      OD2C3B    1.64990       15.5994           0 -0.904000      0.565000    
     10428 MEMB     58       POPE     DO32     DRUD     -1.64990      0.400000           0   0.00000       0.00000    
     10429 MEMB     58       POPE     C32      CD32C     2.24380       11.6110           0  -1.99300      0.410000    
     10430 MEMB     58       POPE     DC32     DRUD     -2.44980      0.400000           0   0.00000       0.00000    
     10431 MEMB     58       POPE     H2X      HDA2A    0.690000E-01   1.00800           0   0.00000       0.00000    
     10432 MEMB     58       POPE     H2Y      HDA2A    0.690000E-01   1.00800           0   0.00000       0.00000    
     10433 MEMB     58       POPE     LP1C     LPD     -0.349000       0.00000          -1   0.00000       0.00000    
     10434 MEMB     58       POPE     LP1D     LPD     -0.258000       0.00000          -1   0.00000       0.00000    
     10435 MEMB     58       POPE     LPMC     LPD     -0.170000       0.00000          -1   0.00000       0.00000    
     10436 MEMB     58       POPE     LPMD     LPD     -0.170000       0.00000          -1   0.00000       0.00000    
     10437 MEMB     58       POPE     C23      CD32A     2.07980       11.6110           0  -1.66000       1.30000    
     10438 MEMB     58       POPE     DC23     DRUD     -2.23580      0.400000           0   0.00000       0.00000    
     10439 MEMB     58       POPE     H3R      HDA2A    0.780000E-01   1.00800           0   0.00000       0.00000    
     10440 MEMB     58       POPE     H3S      HDA2A    0.780000E-01   1.00800           0   0.00000       0.00000    
     10441 MEMB     58       POPE     C24      CD32A     2.07980       11.6110           0  -1.66000       1.30000    
     10442 MEMB     58       POPE     DC24     DRUD     -2.23580      0.400000           0   0.00000       0.00000    
     10443 MEMB     58       POPE     H4R      HDA2A    0.780000E-01   1.00800           0   0.00000       0.00000    
     10444 MEMB     58       POPE     H4S      HDA2A    0.780000E-01   1.00800           0   0.00000       0.00000    
     10445 MEMB     58       POPE     C25      CD32A     2.07980       11.6110           0  -1.66000       1.30000    
     10446 MEMB     58       POPE     DC25     DRUD     -2.23580      0.400000           0   0.00000       0.00000    
     10447 MEMB     58       POPE     H5R      HDA2A    0.780000E-01   1.00800           0   0.00000       0.00000    
     10448 MEMB     58       POPE     H5S      HDA2A    0.780000E-01   1.00800           0   0.00000       0.00000    
     10449 MEMB     58       POPE     C26      CD32A     2.07980       11.6110           0  -1.66000       1.30000    
     10450 MEMB     58       POPE     DC26     DRUD     -2.23580      0.400000           0   0.00000       0.00000    
     10451 MEMB     58       POPE     H6R      HDA2A    0.780000E-01   1.00800           0   0.00000       0.00000    
     10452 MEMB     58       POPE     H6S      HDA2A    0.780000E-01   1.00800           0   0.00000       0.00000    
     10453 MEMB     58       POPE     C27      CD32A     2.07980       11.6110           0  -1.66000       1.30000    
     10454 MEMB     58       POPE     DC27     DRUD     -2.23580      0.400000           0   0.00000       0.00000    
     10455 MEMB     58       POPE     H7R      HDA2A    0.780000E-01   1.00800           0   0.00000       0.00000    
     10456 MEMB     58       POPE     H7S      HDA2A    0.780000E-01   1.00800           0   0.00000       0.00000    
     10457 MEMB     58       POPE     C28      CD32A     2.07980       11.6110           0  -1.66000       1.30000    
     10458 MEMB     58       POPE     DC28     DRUD     -2.23580      0.400000           0   0.00000       0.00000    
     10459 MEMB     58       POPE     H8R      HDA2A    0.780000E-01   1.00800           0   0.00000       0.00000    
     10460 MEMB     58       POPE     H8S      HDA2A    0.780000E-01   1.00800           0   0.00000       0.00000    
     10461 MEMB     58       POPE     C29      CD2C1A    2.33700       11.6110           0  -1.99000      0.750000    
     10462 MEMB     58       POPE     DC29     DRUD     -2.44800      0.400000           0   0.00000       0.00000    
     10463 MEMB     58       POPE     H91      HD2C1A   0.111000       1.00800           0   0.00000       0.00000    
     10464 MEMB     58       POPE     C210     CD2C1A    2.33700       11.6110           0  -1.99000      0.750000    
     10465 MEMB     58       POPE     DC210    DRUD     -2.44800      0.400000           0   0.00000       0.00000    
     10466 MEMB     58       POPE     H101     HD2C1A   0.111000       1.00800           0   0.00000       0.00000    
     10467 MEMB     58       POPE     C211     CD32A     2.07980       11.6110           0  -1.66000       1.30000    
     10468 MEMB     58       POPE     DC211    DRUD     -2.23580      0.400000           0   0.00000       0.00000    
     10469 MEMB     58       POPE     H11R     HDA2A    0.780000E-01   1.00800           0   0.00000       0.00000    
     10470 MEMB     58       POPE     H11S     HDA2A    0.780000E-01   1.00800           0   0.00000       0.00000    
     10471 MEMB     58       POPE     C212     CD32A     2.07980       11.6110           0  -1.66000       1.30000    
     10472 MEMB     58       POPE     DC212    DRUD     -2.23580      0.400000           0   0.00000       0.00000    
     10473 MEMB     58       POPE     H12R     HDA2A    0.780000E-01   1.00800           0   0.00000       0.00000    
     10474 MEMB     58       POPE     H12S     HDA2A    0.780000E-01   1.00800           0   0.00000       0.00000    
     10475 MEMB     58       POPE     C213     CD32A     2.07980       11.6110           0  -1.66000       1.30000    
     10476 MEMB     58       POPE     DC213    DRUD     -2.23580      0.400000           0   0.00000       0.00000    
     10477 MEMB     58       POPE     H13R     HDA2A    0.780000E-01   1.00800           0   0.00000       0.00000    
     10478 MEMB     58       POPE     H13S     HDA2A    0.780000E-01   1.00800           0   0.00000       0.00000    
     10479 MEMB     58       POPE     C214     CD32A     2.07980       11.6110           0  -1.66000       1.30000    
     10480 MEMB     58       POPE     DC214    DRUD     -2.23580      0.400000           0   0.00000       0.00000    
     10481 MEMB     58       POPE     H14R     HDA2A    0.780000E-01   1.00800           0   0.00000       0.00000    
     10482 MEMB     58       POPE     H14S     HDA2A    0.780000E-01   1.00800           0   0.00000       0.00000    
     10483 MEMB     58       POPE     C215     CD32A     2.07980       11.6110           0  -1.66000       1.30000    
     10484 MEMB     58       POPE     DC215    DRUD     -2.23580      0.400000           0   0.00000       0.00000    
     10485 MEMB     58       POPE     H15R     HDA2A    0.780000E-01   1.00800           0   0.00000       0.00000    
     10486 MEMB     58       POPE     H15S     HDA2A    0.780000E-01   1.00800           0   0.00000       0.00000    
     10487 MEMB     58       POPE     C216     CD32A     2.07980       11.6110           0  -1.66000       1.30000    
     10488 MEMB     58       POPE     DC216    DRUD     -2.23580      0.400000           0   0.00000       0.00000    
     10489 MEMB     58       POPE     H16R     HDA2A    0.780000E-01   1.00800           0   0.00000       0.00000    
     10490 MEMB     58       POPE     H16S     HDA2A    0.780000E-01   1.00800           0   0.00000       0.00000    
     10491 MEMB     58       POPE     C217     CD32A     2.07980       11.6110           0  -1.66000       1.30000    
     10492 MEMB     58       POPE     DC217    DRUD     -2.23580      0.400000           0   0.00000       0.00000    
     10493 MEMB     58       POPE     H17R     HDA2A    0.780000E-01   1.00800           0   0.00000       0.00000    
     10494 MEMB     58       POPE     H17S     HDA2A    0.780000E-01   1.00800           0   0.00000       0.00000    
     10495 MEMB     58       POPE     C218     CD33A     2.30820       11.6110           0  -2.05100       1.30000    
     10496 MEMB     58       POPE     DC218    DRUD     -2.48520      0.400000           0   0.00000       0.00000    
     10497 MEMB     58       POPE     H18R     HDA3A    0.590000E-01   1.00800           0   0.00000       0.00000    
     10498 MEMB     58       POPE     H18S     HDA3A    0.590000E-01   1.00800           0   0.00000       0.00000    
     10499 MEMB     58       POPE     H18T     HDA3A    0.590000E-01   1.00800           0   0.00000       0.00000    
     10500 MEMB     58       POPE     C33      CD32A     2.07980       11.6110           0  -1.66000       1.30000    
     10501 MEMB     58       POPE     DC33     DRUD     -2.23580      0.400000           0   0.00000       0.00000    
     10502 MEMB     58       POPE     H3X      HDA2A    0.780000E-01   1.00800           0   0.00000       0.00000    
     10503 MEMB     58       POPE     H3Y      HDA2A    0.780000E-01   1.00800           0   0.00000       0.00000    
     10504 MEMB     58       POPE     C34      CD32A     2.07980       11.6110           0  -1.66000       1.30000    
     10505 MEMB     58       POPE     DC34     DRUD     -2.23580      0.400000           0   0.00000       0.00000    
     10506 MEMB     58       POPE     H4X      HDA2A    0.780000E-01   1.00800           0   0.00000       0.00000    
     10507 MEMB     58       POPE     H4Y      HDA2A    0.780000E-01   1.00800           0   0.00000       0.00000    
     10508 MEMB     58       POPE     C35      CD32A     2.07980       11.6110           0  -1.66000       1.30000    
     10509 MEMB     58       POPE     DC35     DRUD     -2.23580      0.400000           0   0.00000       0.00000    
     10510 MEMB     58       POPE     H5X      HDA2A    0.780000E-01   1.00800           0   0.00000       0.00000    
     10511 MEMB     58       POPE     H5Y      HDA2A    0.780000E-01   1.00800           0   0.00000       0.00000    
     10512 MEMB     58       POPE     C36      CD32A     2.07980       11.6110           0  -1.66000       1.30000    
     10513 MEMB     58       POPE     DC36     DRUD     -2.23580      0.400000           0   0.00000       0.00000    
     10514 MEMB     58       POPE     H6X      HDA2A    0.780000E-01   1.00800           0   0.00000       0.00000    
     10515 MEMB     58       POPE     H6Y      HDA2A    0.780000E-01   1.00800           0   0.00000       0.00000    
     10516 MEMB     58       POPE     C37      CD32A     2.07980       11.6110           0  -1.66000       1.30000    
     10517 MEMB     58       POPE     DC37     DRUD     -2.23580      0.400000           0   0.00000       0.00000    
     10518 MEMB     58       POPE     H7X      HDA2A    0.780000E-01   1.00800           0   0.00000       0.00000    
     10519 MEMB     58       POPE     H7Y      HDA2A    0.780000E-01   1.00800           0   0.00000       0.00000    
     10520 MEMB     58       POPE     C38      CD32A     2.07980       11.6110           0  -1.66000       1.30000    
     10521 MEMB     58       POPE     DC38     DRUD     -2.23580      0.400000           0   0.00000       0.00000    
     10522 MEMB     58       POPE     H8X      HDA2A    0.780000E-01   1.00800           0   0.00000       0.00000    
     10523 MEMB     58       POPE     H8Y      HDA2A    0.780000E-01   1.00800           0   0.00000       0.00000    
     10524 MEMB     58       POPE     C39      CD32A     2.07980       11.6110           0  -1.66000       1.30000    
     10525 MEMB     58       POPE     DC39     DRUD     -2.23580      0.400000           0   0.00000       0.00000    
     10526 MEMB     58       POPE     H9X      HDA2A    0.780000E-01   1.00800           0   0.00000       0.00000    
     10527 MEMB     58       POPE     H9Y      HDA2A    0.780000E-01   1.00800           0   0.00000       0.00000    
     10528 MEMB     58       POPE     C310     CD32A     2.07980       11.6110           0  -1.66000       1.30000    
     10529 MEMB     58       POPE     DC310    DRUD     -2.23580      0.400000           0   0.00000       0.00000    
     10530 MEMB     58       POPE     H10X     HDA2A    0.780000E-01   1.00800           0   0.00000       0.00000    
     10531 MEMB     58       POPE     H10Y     HDA2A    0.780000E-01   1.00800           0   0.00000       0.00000    
     10532 MEMB     58       POPE     C311     CD32A     2.07980       11.6110           0  -1.66000       1.30000    
     10533 MEMB     58       POPE     DC311    DRUD     -2.23580      0.400000           0   0.00000       0.00000    
     10534 MEMB     58       POPE     H11X     HDA2A    0.780000E-01   1.00800           0   0.00000       0.00000    
     10535 MEMB     58       POPE     H11Y     HDA2A    0.780000E-01   1.00800           0   0.00000       0.00000    
     10536 MEMB     58       POPE     C312     CD32A     2.07980       11.6110           0  -1.66000       1.30000    
     10537 MEMB     58       POPE     DC312    DRUD     -2.23580      0.400000           0   0.00000       0.00000    
     10538 MEMB     58       POPE     H12X     HDA2A    0.780000E-01   1.00800           0   0.00000       0.00000    
     10539 MEMB     58       POPE     H12Y     HDA2A    0.780000E-01   1.00800           0   0.00000       0.00000    
     10540 MEMB     58       POPE     C313     CD32A     2.07980       11.6110           0  -1.66000       1.30000    
     10541 MEMB     58       POPE     DC313    DRUD     -2.23580      0.400000           0   0.00000       0.00000    
     10542 MEMB     58       POPE     H13X     HDA2A    0.780000E-01   1.00800           0   0.00000       0.00000    
     10543 MEMB     58       POPE     H13Y     HDA2A    0.780000E-01   1.00800           0   0.00000       0.00000    
     10544 MEMB     58       POPE     C314     CD32A     2.07980       11.6110           0  -1.66000       1.30000    
     10545 MEMB     58       POPE     DC314    DRUD     -2.23580      0.400000           0   0.00000       0.00000    
     10546 MEMB     58       POPE     H14X     HDA2A    0.780000E-01   1.00800           0   0.00000       0.00000    
     10547 MEMB     58       POPE     H14Y     HDA2A    0.780000E-01   1.00800           0   0.00000       0.00000    
     10548 MEMB     58       POPE     C315     CD32A     2.07980       11.6110           0  -1.66000       1.30000    
     10549 MEMB     58       POPE     DC315    DRUD     -2.23580      0.400000           0   0.00000       0.00000    
     10550 MEMB     58       POPE     H15X     HDA2A    0.780000E-01   1.00800           0   0.00000       0.00000    
     10551 MEMB     58       POPE     H15Y     HDA2A    0.780000E-01   1.00800           0   0.00000       0.00000    
     10552 MEMB     58       POPE     C316     CD33A     2.30820       11.6110           0  -2.05100       1.30000    
     10553 MEMB     58       POPE     DC316    DRUD     -2.48520      0.400000           0   0.00000       0.00000    
     10554 MEMB     58       POPE     H16X     HDA3A    0.590000E-01   1.00800           0   0.00000       0.00000    
     10555 MEMB     58       POPE     H16Y     HDA3A    0.590000E-01   1.00800           0   0.00000       0.00000    
     10556 MEMB     58       POPE     H16Z     HDA3A    0.590000E-01   1.00800           0   0.00000       0.00000    
     10557 MEMB     59       POPE     N        ND3P3A    1.62810       13.6070           0  -1.29800      0.895000    
     10558 MEMB     59       POPE     DN       DRUD     -1.97710      0.400000           0   0.00000       0.00000    
     10559 MEMB     59       POPE     HN1      HDP1B    0.340000       1.00800           0   0.00000       0.00000    
     10560 MEMB     59       POPE     HN2      HDP1B    0.340000       1.00800           0   0.00000       0.00000    
     10561 MEMB     59       POPE     HN3      HDP1B    0.340000       1.00800           0   0.00000       0.00000    
     10562 MEMB     59       POPE     C12      CD32A     2.27610       11.6110           0  -1.65600      0.895000    
     10563 MEMB     59       POPE     DC12     DRUD     -2.23310      0.400000           0   0.00000       0.00000    
     10564 MEMB     59       POPE     H12A     HDA2A    0.143000       1.00800           0   0.00000       0.00000    
     10565 MEMB     59       POPE     H12B     HDA2A    0.143000       1.00800           0   0.00000       0.00000    
     10566 MEMB     59       POPE     C11      CD32A     2.42220       11.6110           0  -1.64200      0.862000    
     10567 MEMB     59       POPE     DC11     DRUD     -2.22370      0.400000           0   0.00000       0.00000    
     10568 MEMB     59       POPE     H11A     HDA2A    0.260000E-01   1.00800           0   0.00000       0.00000    
     10569 MEMB     59       POPE     H11B     HDA2A    0.260000E-01   1.00800           0   0.00000       0.00000    
     10570 MEMB     59       POPE     P        PD1A      2.90360       30.5740           0 -0.974000       2.09800    
     10571 MEMB     59       POPE     DP       DRUD     -1.71260      0.400000           0   0.00000       0.00000    
     10572 MEMB     59       POPE     O13      OD2C2B   0.798400       15.5994           0 -0.931000       1.08300    
     10573 MEMB     59       POPE     DO13     DRUD     -1.67440      0.400000           0   0.00000       0.00000    
     10574 MEMB     59       POPE     O14      OD2C2B   0.798400       15.5994           0 -0.931000       1.08300    
     10575 MEMB     59       POPE     DO14     DRUD     -1.67440      0.400000           0   0.00000       0.00000    
     10576 MEMB     59       POPE     O11      OD30B     1.17720       15.5994           0 -0.901000      0.181000    
     10577 MEMB     59       POPE     DO11     DRUD     -1.64720      0.400000           0   0.00000       0.00000    
     10578 MEMB     59       POPE     O12      OD30B     1.17720       15.5994           0 -0.901000      0.181000    
     10579 MEMB     59       POPE     DO12     DRUD     -1.64720      0.400000           0   0.00000       0.00000    
     10580 MEMB     59       POPE     C1       CD32A     2.42220       11.6110           0  -1.64200      0.862000    
     10581 MEMB     59       POPE     DC1      DRUD     -2.22370      0.400000           0   0.00000       0.00000    
     10582 MEMB     59       POPE     HA       HDA2A    0.260000E-01   1.00800           0   0.00000       0.00000    
     10583 MEMB     59       POPE     HB       HDA2A    0.260000E-01   1.00800           0   0.00000       0.00000    
     10584 MEMB     59       POPE     C2       CD31C     2.52830       11.6110           0  -1.79700      0.410000    
     10585 MEMB     59       POPE     DC2      DRUD     -2.32630      0.400000           0   0.00000       0.00000    
     10586 MEMB     59       POPE     HS       HDA1A    0.116000       1.00800           0   0.00000       0.00000    
     10587 MEMB     59       POPE     O21      OD30CL    1.48470       15.5994           0 -0.732000      0.601000    
     10588 MEMB     59       POPE     DO21     DRUD     -1.48470      0.400000           0   0.00000       0.00000    
     10589 MEMB     59       POPE     C21      CD2O3B    2.72820       11.6110           0  -1.37000       1.74700    
     10590 MEMB     59       POPE     DC21     DRUD     -2.03120      0.400000           0   0.00000       0.00000    
     10591 MEMB     59       POPE     O22      OD2C3B    1.64990       15.5994           0 -0.904000      0.565000    
     10592 MEMB     59       POPE     DO22     DRUD     -1.64990      0.400000           0   0.00000       0.00000    
     10593 MEMB     59       POPE     C22      CD32C     2.24380       11.6110           0  -1.99300      0.410000    
     10594 MEMB     59       POPE     DC22     DRUD     -2.44980      0.400000           0   0.00000       0.00000    
     10595 MEMB     59       POPE     H2R      HDA2A    0.690000E-01   1.00800           0   0.00000       0.00000    
     10596 MEMB     59       POPE     H2S      HDA2A    0.690000E-01   1.00800           0   0.00000       0.00000    
     10597 MEMB     59       POPE     LP1A     LPD     -0.349000       0.00000          -1   0.00000       0.00000    
     10598 MEMB     59       POPE     LP1B     LPD     -0.258000       0.00000          -1   0.00000       0.00000    
     10599 MEMB     59       POPE     LPMA     LPD     -0.170000       0.00000          -1   0.00000       0.00000    
     10600 MEMB     59       POPE     LPMB     LPD     -0.170000       0.00000          -1   0.00000       0.00000    
     10601 MEMB     59       POPE     C3       CD32C     2.41230       11.6110           0  -1.79700      0.410000    
     10602 MEMB     59       POPE     DC3      DRUD     -2.32630      0.400000           0   0.00000       0.00000    
     10603 MEMB     59       POPE     HX       HDA2A    0.116000       1.00800           0   0.00000       0.00000    
     10604 MEMB     59       POPE     HY       HDA2A    0.116000       1.00800           0   0.00000       0.00000    
     10605 MEMB     59       POPE     O31      OD30CL    1.48470       15.5994           0 -0.732000      0.601000    
     10606 MEMB     59       POPE     DO31     DRUD     -1.48470      0.400000           0   0.00000       0.00000    
     10607 MEMB     59       POPE     C31      CD2O3B    2.72820       11.6110           0  -1.37000       1.74700    
     10608 MEMB     59       POPE     DC31     DRUD     -2.03120      0.400000           0   0.00000       0.00000    
     10609 MEMB     59       POPE     O32      OD2C3B    1.64990       15.5994           0 -0.904000      0.565000    
     10610 MEMB     59       POPE     DO32     DRUD     -1.64990      0.400000           0   0.00000       0.00000    
     10611 MEMB     59       POPE     C32      CD32C     2.24380       11.6110           0  -1.99300      0.410000    
     10612 MEMB     59       POPE     DC32     DRUD     -2.44980      0.400000           0   0.00000       0.00000    
     10613 MEMB     59       POPE     H2X      HDA2A    0.690000E-01   1.00800           0   0.00000       0.00000    
     10614 MEMB     59       POPE     H2Y      HDA2A    0.690000E-01   1.00800           0   0.00000       0.00000    
     10615 MEMB     59       POPE     LP1C     LPD     -0.349000       0.00000          -1   0.00000       0.00000    
     10616 MEMB     59       POPE     LP1D     LPD     -0.258000       0.00000          -1   0.00000       0.00000    
     10617 MEMB     59       POPE     LPMC     LPD     -0.170000       0.00000          -1   0.00000       0.00000    
     10618 MEMB     59       POPE     LPMD     LPD     -0.170000       0.00000          -1   0.00000       0.00000    
     10619 MEMB     59       POPE     C23      CD32A     2.07980       11.6110           0  -1.66000       1.30000    
     10620 MEMB     59       POPE     DC23     DRUD     -2.23580      0.400000           0   0.00000       0.00000    
     10621 MEMB     59       POPE     H3R      HDA2A    0.780000E-01   1.00800           0   0.00000       0.00000    
     10622 MEMB     59       POPE     H3S      HDA2A    0.780000E-01   1.00800           0   0.00000       0.00000    
     10623 MEMB     59       POPE     C24      CD32A     2.07980       11.6110           0  -1.66000       1.30000    
     10624 MEMB     59       POPE     DC24     DRUD     -2.23580      0.400000           0   0.00000       0.00000    
     10625 MEMB     59       POPE     H4R      HDA2A    0.780000E-01   1.00800           0   0.00000       0.00000    
     10626 MEMB     59       POPE     H4S      HDA2A    0.780000E-01   1.00800           0   0.00000       0.00000    
     10627 MEMB     59       POPE     C25      CD32A     2.07980       11.6110           0  -1.66000       1.30000    
     10628 MEMB     59       POPE     DC25     DRUD     -2.23580      0.400000           0   0.00000       0.00000    
     10629 MEMB     59       POPE     H5R      HDA2A    0.780000E-01   1.00800           0   0.00000       0.00000    
     10630 MEMB     59       POPE     H5S      HDA2A    0.780000E-01   1.00800           0   0.00000       0.00000    
     10631 MEMB     59       POPE     C26      CD32A     2.07980       11.6110           0  -1.66000       1.30000    
     10632 MEMB     59       POPE     DC26     DRUD     -2.23580      0.400000           0   0.00000       0.00000    
     10633 MEMB     59       POPE     H6R      HDA2A    0.780000E-01   1.00800           0   0.00000       0.00000    
     10634 MEMB     59       POPE     H6S      HDA2A    0.780000E-01   1.00800           0   0.00000       0.00000    
     10635 MEMB     59       POPE     C27      CD32A     2.07980       11.6110           0  -1.66000       1.30000    
     10636 MEMB     59       POPE     DC27     DRUD     -2.23580      0.400000           0   0.00000       0.00000    
     10637 MEMB     59       POPE     H7R      HDA2A    0.780000E-01   1.00800           0   0.00000       0.00000    
     10638 MEMB     59       POPE     H7S      HDA2A    0.780000E-01   1.00800           0   0.00000       0.00000    
     10639 MEMB     59       POPE     C28      CD32A     2.07980       11.6110           0  -1.66000       1.30000    
     10640 MEMB     59       POPE     DC28     DRUD     -2.23580      0.400000           0   0.00000       0.00000    
     10641 MEMB     59       POPE     H8R      HDA2A    0.780000E-01   1.00800           0   0.00000       0.00000    
     10642 MEMB     59       POPE     H8S      HDA2A    0.780000E-01   1.00800           0   0.00000       0.00000    
     10643 MEMB     59       POPE     C29      CD2C1A    2.33700       11.6110           0  -1.99000      0.750000    
     10644 MEMB     59       POPE     DC29     DRUD     -2.44800      0.400000           0   0.00000       0.00000    
     10645 MEMB     59       POPE     H91      HD2C1A   0.111000       1.00800           0   0.00000       0.00000    
     10646 MEMB     59       POPE     C210     CD2C1A    2.33700       11.6110           0  -1.99000      0.750000    
     10647 MEMB     59       POPE     DC210    DRUD     -2.44800      0.400000           0   0.00000       0.00000    
     10648 MEMB     59       POPE     H101     HD2C1A   0.111000       1.00800           0   0.00000       0.00000    
     10649 MEMB     59       POPE     C211     CD32A     2.07980       11.6110           0  -1.66000       1.30000    
     10650 MEMB     59       POPE     DC211    DRUD     -2.23580      0.400000           0   0.00000       0.00000    
     10651 MEMB     59       POPE     H11R     HDA2A    0.780000E-01   1.00800           0   0.00000       0.00000    
     10652 MEMB     59       POPE     H11S     HDA2A    0.780000E-01   1.00800           0   0.00000       0.00000    
     10653 MEMB     59       POPE     C212     CD32A     2.07980       11.6110           0  -1.66000       1.30000    
     10654 MEMB     59       POPE     DC212    DRUD     -2.23580      0.400000           0   0.00000       0.00000    
     10655 MEMB     59       POPE     H12R     HDA2A    0.780000E-01   1.00800           0   0.00000       0.00000    
     10656 MEMB     59       POPE     H12S     HDA2A    0.780000E-01   1.00800           0   0.00000       0.00000    
     10657 MEMB     59       POPE     C213     CD32A     2.07980       11.6110           0  -1.66000       1.30000    
     10658 MEMB     59       POPE     DC213    DRUD     -2.23580      0.400000           0   0.00000       0.00000    
     10659 MEMB     59       POPE     H13R     HDA2A    0.780000E-01   1.00800           0   0.00000       0.00000    
     10660 MEMB     59       POPE     H13S     HDA2A    0.780000E-01   1.00800           0   0.00000       0.00000    
     10661 MEMB     59       POPE     C214     CD32A     2.07980       11.6110           0  -1.66000       1.30000    
     10662 MEMB     59       POPE     DC214    DRUD     -2.23580      0.400000           0   0.00000       0.00000    
     10663 MEMB     59       POPE     H14R     HDA2A    0.780000E-01   1.00800           0   0.00000       0.00000    
     10664 MEMB     59       POPE     H14S     HDA2A    0.780000E-01   1.00800           0   0.00000       0.00000    
     10665 MEMB     59       POPE     C215     CD32A     2.07980       11.6110           0  -1.66000       1.30000    
     10666 MEMB     59       POPE     DC215    DRUD     -2.23580      0.400000           0   0.00000       0.00000    
     10667 MEMB     59       POPE     H15R     HDA2A    0.780000E-01   1.00800           0   0.00000       0.00000    
     10668 MEMB     59       POPE     H15S     HDA2A    0.780000E-01   1.00800           0   0.00000       0.00000    
     10669 MEMB     59       POPE     C216     CD32A     2.07980       11.6110           0  -1.66000       1.30000    
     10670 MEMB     59       POPE     DC216    DRUD     -2.23580      0.400000           0   0.00000       0.00000    
     10671 MEMB     59       POPE     H16R     HDA2A    0.780000E-01   1.00800           0   0.00000       0.00000    
     10672 MEMB     59       POPE     H16S     HDA2A    0.780000E-01   1.00800           0   0.00000       0.00000    
     10673 MEMB     59       POPE     C217     CD32A     2.07980       11.6110           0  -1.66000       1.30000    
     10674 MEMB     59       POPE     DC217    DRUD     -2.23580      0.400000           0   0.00000       0.00000    
     10675 MEMB     59       POPE     H17R     HDA2A    0.780000E-01   1.00800           0   0.00000       0.00000    
     10676 MEMB     59       POPE     H17S     HDA2A    0.780000E-01   1.00800           0   0.00000       0.00000    
     10677 MEMB     59       POPE     C218     CD33A     2.30820       11.6110           0  -2.05100       1.30000    
     10678 MEMB     59       POPE     DC218    DRUD     -2.48520      0.400000           0   0.00000       0.00000    
     10679 MEMB     59       POPE     H18R     HDA3A    0.590000E-01   1.00800           0   0.00000       0.00000    
     10680 MEMB     59       POPE     H18S     HDA3A    0.590000E-01   1.00800           0   0.00000       0.00000    
     10681 MEMB     59       POPE     H18T     HDA3A    0.590000E-01   1.00800           0   0.00000       0.00000    
     10682 MEMB     59       POPE     C33      CD32A     2.07980       11.6110           0  -1.66000       1.30000    
     10683 MEMB     59       POPE     DC33     DRUD     -2.23580      0.400000           0   0.00000       0.00000    
     10684 MEMB     59       POPE     H3X      HDA2A    0.780000E-01   1.00800           0   0.00000       0.00000    
     10685 MEMB     59       POPE     H3Y      HDA2A    0.780000E-01   1.00800           0   0.00000       0.00000    
     10686 MEMB     59       POPE     C34      CD32A     2.07980       11.6110           0  -1.66000       1.30000    
     10687 MEMB     59       POPE     DC34     DRUD     -2.23580      0.400000           0   0.00000       0.00000    
     10688 MEMB     59       POPE     H4X      HDA2A    0.780000E-01   1.00800           0   0.00000       0.00000    
     10689 MEMB     59       POPE     H4Y      HDA2A    0.780000E-01   1.00800           0   0.00000       0.00000    
     10690 MEMB     59       POPE     C35      CD32A     2.07980       11.6110           0  -1.66000       1.30000    
     10691 MEMB     59       POPE     DC35     DRUD     -2.23580      0.400000           0   0.00000       0.00000    
     10692 MEMB     59       POPE     H5X      HDA2A    0.780000E-01   1.00800           0   0.00000       0.00000    
     10693 MEMB     59       POPE     H5Y      HDA2A    0.780000E-01   1.00800           0   0.00000       0.00000    
     10694 MEMB     59       POPE     C36      CD32A     2.07980       11.6110           0  -1.66000       1.30000    
     10695 MEMB     59       POPE     DC36     DRUD     -2.23580      0.400000           0   0.00000       0.00000    
     10696 MEMB     59       POPE     H6X      HDA2A    0.780000E-01   1.00800           0   0.00000       0.00000    
     10697 MEMB     59       POPE     H6Y      HDA2A    0.780000E-01   1.00800           0   0.00000       0.00000    
     10698 MEMB     59       POPE     C37      CD32A     2.07980       11.6110           0  -1.66000       1.30000    
     10699 MEMB     59       POPE     DC37     DRUD     -2.23580      0.400000           0   0.00000       0.00000    
     10700 MEMB     59       POPE     H7X      HDA2A    0.780000E-01   1.00800           0   0.00000       0.00000    
     10701 MEMB     59       POPE     H7Y      HDA2A    0.780000E-01   1.00800           0   0.00000       0.00000    
     10702 MEMB     59       POPE     C38      CD32A     2.07980       11.6110           0  -1.66000       1.30000    
     10703 MEMB     59       POPE     DC38     DRUD     -2.23580      0.400000           0   0.00000       0.00000    
     10704 MEMB     59       POPE     H8X      HDA2A    0.780000E-01   1.00800           0   0.00000       0.00000    
     10705 MEMB     59       POPE     H8Y      HDA2A    0.780000E-01   1.00800           0   0.00000       0.00000    
     10706 MEMB     59       POPE     C39      CD32A     2.07980       11.6110           0  -1.66000       1.30000    
     10707 MEMB     59       POPE     DC39     DRUD     -2.23580      0.400000           0   0.00000       0.00000    
     10708 MEMB     59       POPE     H9X      HDA2A    0.780000E-01   1.00800           0   0.00000       0.00000    
     10709 MEMB     59       POPE     H9Y      HDA2A    0.780000E-01   1.00800           0   0.00000       0.00000    
     10710 MEMB     59       POPE     C310     CD32A     2.07980       11.6110           0  -1.66000       1.30000    
     10711 MEMB     59       POPE     DC310    DRUD     -2.23580      0.400000           0   0.00000       0.00000    
     10712 MEMB     59       POPE     H10X     HDA2A    0.780000E-01   1.00800           0   0.00000       0.00000    
     10713 MEMB     59       POPE     H10Y     HDA2A    0.780000E-01   1.00800           0   0.00000       0.00000    
     10714 MEMB     59       POPE     C311     CD32A     2.07980       11.6110           0  -1.66000       1.30000    
     10715 MEMB     59       POPE     DC311    DRUD     -2.23580      0.400000           0   0.00000       0.00000    
     10716 MEMB     59       POPE     H11X     HDA2A    0.780000E-01   1.00800           0   0.00000       0.00000    
     10717 MEMB     59       POPE     H11Y     HDA2A    0.780000E-01   1.00800           0   0.00000       0.00000    
     10718 MEMB     59       POPE     C312     CD32A     2.07980       11.6110           0  -1.66000       1.30000    
     10719 MEMB     59       POPE     DC312    DRUD     -2.23580      0.400000           0   0.00000       0.00000    
     10720 MEMB     59       POPE     H12X     HDA2A    0.780000E-01   1.00800           0   0.00000       0.00000    
     10721 MEMB     59       POPE     H12Y     HDA2A    0.780000E-01   1.00800           0   0.00000       0.00000    
     10722 MEMB     59       POPE     C313     CD32A     2.07980       11.6110           0  -1.66000       1.30000    
     10723 MEMB     59       POPE     DC313    DRUD     -2.23580      0.400000           0   0.00000       0.00000    
     10724 MEMB     59       POPE     H13X     HDA2A    0.780000E-01   1.00800           0   0.00000       0.00000    
     10725 MEMB     59       POPE     H13Y     HDA2A    0.780000E-01   1.00800           0   0.00000       0.00000    
     10726 MEMB     59       POPE     C314     CD32A     2.07980       11.6110           0  -1.66000       1.30000    
     10727 MEMB     59       POPE     DC314    DRUD     -2.23580      0.400000           0   0.00000       0.00000    
     10728 MEMB     59       POPE     H14X     HDA2A    0.780000E-01   1.00800           0   0.00000       0.00000    
     10729 MEMB     59       POPE     H14Y     HDA2A    0.780000E-01   1.00800           0   0.00000       0.00000    
     10730 MEMB     59       POPE     C315     CD32A     2.07980       11.6110           0  -1.66000       1.30000    
     10731 MEMB     59       POPE     DC315    DRUD     -2.23580      0.400000           0   0.00000       0.00000    
     10732 MEMB     59       POPE     H15X     HDA2A    0.780000E-01   1.00800           0   0.00000       0.00000    
     10733 MEMB     59       POPE     H15Y     HDA2A    0.780000E-01   1.00800           0   0.00000       0.00000    
     10734 MEMB     59       POPE     C316     CD33A     2.30820       11.6110           0  -2.05100       1.30000    
     10735 MEMB     59       POPE     DC316    DRUD     -2.48520      0.400000           0   0.00000       0.00000    
     10736 MEMB     59       POPE     H16X     HDA3A    0.590000E-01   1.00800           0   0.00000       0.00000    
     10737 MEMB     59       POPE     H16Y     HDA3A    0.590000E-01   1.00800           0   0.00000       0.00000    
     10738 MEMB     59       POPE     H16Z     HDA3A    0.590000E-01   1.00800           0   0.00000       0.00000    
     10739 MEMB     60       POPE     N        ND3P3A    1.62810       13.6070           0  -1.29800      0.895000    
     10740 MEMB     60       POPE     DN       DRUD     -1.97710      0.400000           0   0.00000       0.00000    
     10741 MEMB     60       POPE     HN1      HDP1B    0.340000       1.00800           0   0.00000       0.00000    
     10742 MEMB     60       POPE     HN2      HDP1B    0.340000       1.00800           0   0.00000       0.00000    
     10743 MEMB     60       POPE     HN3      HDP1B    0.340000       1.00800           0   0.00000       0.00000    
     10744 MEMB     60       POPE     C12      CD32A     2.27610       11.6110           0  -1.65600      0.895000    
     10745 MEMB     60       POPE     DC12     DRUD     -2.23310      0.400000           0   0.00000       0.00000    
     10746 MEMB     60       POPE     H12A     HDA2A    0.143000       1.00800           0   0.00000       0.00000    
     10747 MEMB     60       POPE     H12B     HDA2A    0.143000       1.00800           0   0.00000       0.00000    
     10748 MEMB     60       POPE     C11      CD32A     2.42220       11.6110           0  -1.64200      0.862000    
     10749 MEMB     60       POPE     DC11     DRUD     -2.22370      0.400000           0   0.00000       0.00000    
     10750 MEMB     60       POPE     H11A     HDA2A    0.260000E-01   1.00800           0   0.00000       0.00000    
     10751 MEMB     60       POPE     H11B     HDA2A    0.260000E-01   1.00800           0   0.00000       0.00000    
     10752 MEMB     60       POPE     P        PD1A      2.90360       30.5740           0 -0.974000       2.09800    
     10753 MEMB     60       POPE     DP       DRUD     -1.71260      0.400000           0   0.00000       0.00000    
     10754 MEMB     60       POPE     O13      OD2C2B   0.798400       15.5994           0 -0.931000       1.08300    
     10755 MEMB     60       POPE     DO13     DRUD     -1.67440      0.400000           0   0.00000       0.00000    
     10756 MEMB     60       POPE     O14      OD2C2B   0.798400       15.5994           0 -0.931000       1.08300    
     10757 MEMB     60       POPE     DO14     DRUD     -1.67440      0.400000           0   0.00000       0.00000    
     10758 MEMB     60       POPE     O11      OD30B     1.17720       15.5994           0 -0.901000      0.181000    
     10759 MEMB     60       POPE     DO11     DRUD     -1.64720      0.400000           0   0.00000       0.00000    
     10760 MEMB     60       POPE     O12      OD30B     1.17720       15.5994           0 -0.901000      0.181000    
     10761 MEMB     60       POPE     DO12     DRUD     -1.64720      0.400000           0   0.00000       0.00000    
     10762 MEMB     60       POPE     C1       CD32A     2.42220       11.6110           0  -1.64200      0.862000    
     10763 MEMB     60       POPE     DC1      DRUD     -2.22370      0.400000           0   0.00000       0.00000    
     10764 MEMB     60       POPE     HA       HDA2A    0.260000E-01   1.00800           0   0.00000       0.00000    
     10765 MEMB     60       POPE     HB       HDA2A    0.260000E-01   1.00800           0   0.00000       0.00000    
     10766 MEMB     60       POPE     C2       CD31C     2.52830       11.6110           0  -1.79700      0.410000    
     10767 MEMB     60       POPE     DC2      DRUD     -2.32630      0.400000           0   0.00000       0.00000    
     10768 MEMB     60       POPE     HS       HDA1A    0.116000       1.00800           0   0.00000       0.00000    
     10769 MEMB     60       POPE     O21      OD30CL    1.48470       15.5994           0 -0.732000      0.601000    
     10770 MEMB     60       POPE     DO21     DRUD     -1.48470      0.400000           0   0.00000       0.00000    
     10771 MEMB     60       POPE     C21      CD2O3B    2.72820       11.6110           0  -1.37000       1.74700    
     10772 MEMB     60       POPE     DC21     DRUD     -2.03120      0.400000           0   0.00000       0.00000    
     10773 MEMB     60       POPE     O22      OD2C3B    1.64990       15.5994           0 -0.904000      0.565000    
     10774 MEMB     60       POPE     DO22     DRUD     -1.64990      0.400000           0   0.00000       0.00000    
     10775 MEMB     60       POPE     C22      CD32C     2.24380       11.6110           0  -1.99300      0.410000    
     10776 MEMB     60       POPE     DC22     DRUD     -2.44980      0.400000           0   0.00000       0.00000    
     10777 MEMB     60       POPE     H2R      HDA2A    0.690000E-01   1.00800           0   0.00000       0.00000    
     10778 MEMB     60       POPE     H2S      HDA2A    0.690000E-01   1.00800           0   0.00000       0.00000    
     10779 MEMB     60       POPE     LP1A     LPD     -0.349000       0.00000          -1   0.00000       0.00000    
     10780 MEMB     60       POPE     LP1B     LPD     -0.258000       0.00000          -1   0.00000       0.00000    
     10781 MEMB     60       POPE     LPMA     LPD     -0.170000       0.00000          -1   0.00000       0.00000    
     10782 MEMB     60       POPE     LPMB     LPD     -0.170000       0.00000          -1   0.00000       0.00000    
     10783 MEMB     60       POPE     C3       CD32C     2.41230       11.6110           0  -1.79700      0.410000    
     10784 MEMB     60       POPE     DC3      DRUD     -2.32630      0.400000           0   0.00000       0.00000    
     10785 MEMB     60       POPE     HX       HDA2A    0.116000       1.00800           0   0.00000       0.00000    
     10786 MEMB     60       POPE     HY       HDA2A    0.116000       1.00800           0   0.00000       0.00000    
     10787 MEMB     60       POPE     O31      OD30CL    1.48470       15.5994           0 -0.732000      0.601000    
     10788 MEMB     60       POPE     DO31     DRUD     -1.48470      0.400000           0   0.00000       0.00000    
     10789 MEMB     60       POPE     C31      CD2O3B    2.72820       11.6110           0  -1.37000       1.74700    
     10790 MEMB     60       POPE     DC31     DRUD     -2.03120      0.400000           0   0.00000       0.00000    
     10791 MEMB     60       POPE     O32      OD2C3B    1.64990       15.5994           0 -0.904000      0.565000    
     10792 MEMB     60       POPE     DO32     DRUD     -1.64990      0.400000           0   0.00000       0.00000    
     10793 MEMB     60       POPE     C32      CD32C     2.24380       11.6110           0  -1.99300      0.410000    
     10794 MEMB     60       POPE     DC32     DRUD     -2.44980      0.400000           0   0.00000       0.00000    
     10795 MEMB     60       POPE     H2X      HDA2A    0.690000E-01   1.00800           0   0.00000       0.00000    
     10796 MEMB     60       POPE     H2Y      HDA2A    0.690000E-01   1.00800           0   0.00000       0.00000    
     10797 MEMB     60       POPE     LP1C     LPD     -0.349000       0.00000          -1   0.00000       0.00000    
     10798 MEMB     60       POPE     LP1D     LPD     -0.258000       0.00000          -1   0.00000       0.00000    
     10799 MEMB     60       POPE     LPMC     LPD     -0.170000       0.00000          -1   0.00000       0.00000    
     10800 MEMB     60       POPE     LPMD     LPD     -0.170000       0.00000          -1   0.00000       0.00000    
     10801 MEMB     60       POPE     C23      CD32A     2.07980       11.6110           0  -1.66000       1.30000    
     10802 MEMB     60       POPE     DC23     DRUD     -2.23580      0.400000           0   0.00000       0.00000    
     10803 MEMB     60       POPE     H3R      HDA2A    0.780000E-01   1.00800           0   0.00000       0.00000    
     10804 MEMB     60       POPE     H3S      HDA2A    0.780000E-01   1.00800           0   0.00000       0.00000    
     10805 MEMB     60       POPE     C24      CD32A     2.07980       11.6110           0  -1.66000       1.30000    
     10806 MEMB     60       POPE     DC24     DRUD     -2.23580      0.400000           0   0.00000       0.00000    
     10807 MEMB     60       POPE     H4R      HDA2A    0.780000E-01   1.00800           0   0.00000       0.00000    
     10808 MEMB     60       POPE     H4S      HDA2A    0.780000E-01   1.00800           0   0.00000       0.00000    
     10809 MEMB     60       POPE     C25      CD32A     2.07980       11.6110           0  -1.66000       1.30000    
     10810 MEMB     60       POPE     DC25     DRUD     -2.23580      0.400000           0   0.00000       0.00000    
     10811 MEMB     60       POPE     H5R      HDA2A    0.780000E-01   1.00800           0   0.00000       0.00000    
     10812 MEMB     60       POPE     H5S      HDA2A    0.780000E-01   1.00800           0   0.00000       0.00000    
     10813 MEMB     60       POPE     C26      CD32A     2.07980       11.6110           0  -1.66000       1.30000    
     10814 MEMB     60       POPE     DC26     DRUD     -2.23580      0.400000           0   0.00000       0.00000    
     10815 MEMB     60       POPE     H6R      HDA2A    0.780000E-01   1.00800           0   0.00000       0.00000    
     10816 MEMB     60       POPE     H6S      HDA2A    0.780000E-01   1.00800           0   0.00000       0.00000    
     10817 MEMB     60       POPE     C27      CD32A     2.07980       11.6110           0  -1.66000       1.30000    
     10818 MEMB     60       POPE     DC27     DRUD     -2.23580      0.400000           0   0.00000       0.00000    
     10819 MEMB     60       POPE     H7R      HDA2A    0.780000E-01   1.00800           0   0.00000       0.00000    
     10820 MEMB     60       POPE     H7S      HDA2A    0.780000E-01   1.00800           0   0.00000       0.00000    
     10821 MEMB     60       POPE     C28      CD32A     2.07980       11.6110           0  -1.66000       1.30000    
     10822 MEMB     60       POPE     DC28     DRUD     -2.23580      0.400000           0   0.00000       0.00000    
     10823 MEMB     60       POPE     H8R      HDA2A    0.780000E-01   1.00800           0   0.00000       0.00000    
     10824 MEMB     60       POPE     H8S      HDA2A    0.780000E-01   1.00800           0   0.00000       0.00000    
     10825 MEMB     60       POPE     C29      CD2C1A    2.33700       11.6110           0  -1.99000      0.750000    
     10826 MEMB     60       POPE     DC29     DRUD     -2.44800      0.400000           0   0.00000       0.00000    
     10827 MEMB     60       POPE     H91      HD2C1A   0.111000       1.00800           0   0.00000       0.00000    
     10828 MEMB     60       POPE     C210     CD2C1A    2.33700       11.6110           0  -1.99000      0.750000    
     10829 MEMB     60       POPE     DC210    DRUD     -2.44800      0.400000           0   0.00000       0.00000    
     10830 MEMB     60       POPE     H101     HD2C1A   0.111000       1.00800           0   0.00000       0.00000    
     10831 MEMB     60       POPE     C211     CD32A     2.07980       11.6110           0  -1.66000       1.30000    
     10832 MEMB     60       POPE     DC211    DRUD     -2.23580      0.400000           0   0.00000       0.00000    
     10833 MEMB     60       POPE     H11R     HDA2A    0.780000E-01   1.00800           0   0.00000       0.00000    
     10834 MEMB     60       POPE     H11S     HDA2A    0.780000E-01   1.00800           0   0.00000       0.00000    
     10835 MEMB     60       POPE     C212     CD32A     2.07980       11.6110           0  -1.66000       1.30000    
     10836 MEMB     60       POPE     DC212    DRUD     -2.23580      0.400000           0   0.00000       0.00000    
     10837 MEMB     60       POPE     H12R     HDA2A    0.780000E-01   1.00800           0   0.00000       0.00000    
     10838 MEMB     60       POPE     H12S     HDA2A    0.780000E-01   1.00800           0   0.00000       0.00000    
     10839 MEMB     60       POPE     C213     CD32A     2.07980       11.6110           0  -1.66000       1.30000    
     10840 MEMB     60       POPE     DC213    DRUD     -2.23580      0.400000           0   0.00000       0.00000    
     10841 MEMB     60       POPE     H13R     HDA2A    0.780000E-01   1.00800           0   0.00000       0.00000    
     10842 MEMB     60       POPE     H13S     HDA2A    0.780000E-01   1.00800           0   0.00000       0.00000    
     10843 MEMB     60       POPE     C214     CD32A     2.07980       11.6110           0  -1.66000       1.30000    
     10844 MEMB     60       POPE     DC214    DRUD     -2.23580      0.400000           0   0.00000       0.00000    
     10845 MEMB     60       POPE     H14R     HDA2A    0.780000E-01   1.00800           0   0.00000       0.00000    
     10846 MEMB     60       POPE     H14S     HDA2A    0.780000E-01   1.00800           0   0.00000       0.00000    
     10847 MEMB     60       POPE     C215     CD32A     2.07980       11.6110           0  -1.66000       1.30000    
     10848 MEMB     60       POPE     DC215    DRUD     -2.23580      0.400000           0   0.00000       0.00000    
     10849 MEMB     60       POPE     H15R     HDA2A    0.780000E-01   1.00800           0   0.00000       0.00000    
     10850 MEMB     60       POPE     H15S     HDA2A    0.780000E-01   1.00800           0   0.00000       0.00000    
     10851 MEMB     60       POPE     C216     CD32A     2.07980       11.6110           0  -1.66000       1.30000    
     10852 MEMB     60       POPE     DC216    DRUD     -2.23580      0.400000           0   0.00000       0.00000    
     10853 MEMB     60       POPE     H16R     HDA2A    0.780000E-01   1.00800           0   0.00000       0.00000    
     10854 MEMB     60       POPE     H16S     HDA2A    0.780000E-01   1.00800           0   0.00000       0.00000    
     10855 MEMB     60       POPE     C217     CD32A     2.07980       11.6110           0  -1.66000       1.30000    
     10856 MEMB     60       POPE     DC217    DRUD     -2.23580      0.400000           0   0.00000       0.00000    
     10857 MEMB     60       POPE     H17R     HDA2A    0.780000E-01   1.00800           0   0.00000       0.00000    
     10858 MEMB     60       POPE     H17S     HDA2A    0.780000E-01   1.00800           0   0.00000       0.00000    
     10859 MEMB     60       POPE     C218     CD33A     2.30820       11.6110           0  -2.05100       1.30000    
     10860 MEMB     60       POPE     DC218    DRUD     -2.48520      0.400000           0   0.00000       0.00000    
     10861 MEMB     60       POPE     H18R     HDA3A    0.590000E-01   1.00800           0   0.00000       0.00000    
     10862 MEMB     60       POPE     H18S     HDA3A    0.590000E-01   1.00800           0   0.00000       0.00000    
     10863 MEMB     60       POPE     H18T     HDA3A    0.590000E-01   1.00800           0   0.00000       0.00000    
     10864 MEMB     60       POPE     C33      CD32A     2.07980       11.6110           0  -1.66000       1.30000    
     10865 MEMB     60       POPE     DC33     DRUD     -2.23580      0.400000           0   0.00000       0.00000    
     10866 MEMB     60       POPE     H3X      HDA2A    0.780000E-01   1.00800           0   0.00000       0.00000    
     10867 MEMB     60       POPE     H3Y      HDA2A    0.780000E-01   1.00800           0   0.00000       0.00000    
     10868 MEMB     60       POPE     C34      CD32A     2.07980       11.6110           0  -1.66000       1.30000    
     10869 MEMB     60       POPE     DC34     DRUD     -2.23580      0.400000           0   0.00000       0.00000    
     10870 MEMB     60       POPE     H4X      HDA2A    0.780000E-01   1.00800           0   0.00000       0.00000    
     10871 MEMB     60       POPE     H4Y      HDA2A    0.780000E-01   1.00800           0   0.00000       0.00000    
     10872 MEMB     60       POPE     C35      CD32A     2.07980       11.6110           0  -1.66000       1.30000    
     10873 MEMB     60       POPE     DC35     DRUD     -2.23580      0.400000           0   0.00000       0.00000    
     10874 MEMB     60       POPE     H5X      HDA2A    0.780000E-01   1.00800           0   0.00000       0.00000    
     10875 MEMB     60       POPE     H5Y      HDA2A    0.780000E-01   1.00800           0   0.00000       0.00000    
     10876 MEMB     60       POPE     C36      CD32A     2.07980       11.6110           0  -1.66000       1.30000    
     10877 MEMB     60       POPE     DC36     DRUD     -2.23580      0.400000           0   0.00000       0.00000    
     10878 MEMB     60       POPE     H6X      HDA2A    0.780000E-01   1.00800           0   0.00000       0.00000    
     10879 MEMB     60       POPE     H6Y      HDA2A    0.780000E-01   1.00800           0   0.00000       0.00000    
     10880 MEMB     60       POPE     C37      CD32A     2.07980       11.6110           0  -1.66000       1.30000    
     10881 MEMB     60       POPE     DC37     DRUD     -2.23580      0.400000           0   0.00000       0.00000    
     10882 MEMB     60       POPE     H7X      HDA2A    0.780000E-01   1.00800           0   0.00000       0.00000    
     10883 MEMB     60       POPE     H7Y      HDA2A    0.780000E-01   1.00800           0   0.00000       0.00000    
     10884 MEMB     60       POPE     C38      CD32A     2.07980       11.6110           0  -1.66000       1.30000    
     10885 MEMB     60       POPE     DC38     DRUD     -2.23580      0.400000           0   0.00000       0.00000    
     10886 MEMB     60       POPE     H8X      HDA2A    0.780000E-01   1.00800           0   0.00000       0.00000    
     10887 MEMB     60       POPE     H8Y      HDA2A    0.780000E-01   1.00800           0   0.00000       0.00000    
     10888 MEMB     60       POPE     C39      CD32A     2.07980       11.6110           0  -1.66000       1.30000    
     10889 MEMB     60       POPE     DC39     DRUD     -2.23580      0.400000           0   0.00000       0.00000    
     10890 MEMB     60       POPE     H9X      HDA2A    0.780000E-01   1.00800           0   0.00000       0.00000    
     10891 MEMB     60       POPE     H9Y      HDA2A    0.780000E-01   1.00800           0   0.00000       0.00000    
     10892 MEMB     60       POPE     C310     CD32A     2.07980       11.6110           0  -1.66000       1.30000    
     10893 MEMB     60       POPE     DC310    DRUD     -2.23580      0.400000           0   0.00000       0.00000    
     10894 MEMB     60       POPE     H10X     HDA2A    0.780000E-01   1.00800           0   0.00000       0.00000    
     10895 MEMB     60       POPE     H10Y     HDA2A    0.780000E-01   1.00800           0   0.00000       0.00000    
     10896 MEMB     60       POPE     C311     CD32A     2.07980       11.6110           0  -1.66000       1.30000    
     10897 MEMB     60       POPE     DC311    DRUD     -2.23580      0.400000           0   0.00000       0.00000    
     10898 MEMB     60       POPE     H11X     HDA2A    0.780000E-01   1.00800           0   0.00000       0.00000    
     10899 MEMB     60       POPE     H11Y     HDA2A    0.780000E-01   1.00800           0   0.00000       0.00000    
     10900 MEMB     60       POPE     C312     CD32A     2.07980       11.6110           0  -1.66000       1.30000    
     10901 MEMB     60       POPE     DC312    DRUD     -2.23580      0.400000           0   0.00000       0.00000    
     10902 MEMB     60       POPE     H12X     HDA2A    0.780000E-01   1.00800           0   0.00000       0.00000    
     10903 MEMB     60       POPE     H12Y     HDA2A    0.780000E-01   1.00800           0   0.00000       0.00000    
     10904 MEMB     60       POPE     C313     CD32A     2.07980       11.6110           0  -1.66000       1.30000    
     10905 MEMB     60       POPE     DC313    DRUD     -2.23580      0.400000           0   0.00000       0.00000    
     10906 MEMB     60       POPE     H13X     HDA2A    0.780000E-01   1.00800           0   0.00000       0.00000    
     10907 MEMB     60       POPE     H13Y     HDA2A    0.780000E-01   1.00800           0   0.00000       0.00000    
     10908 MEMB     60       POPE     C314     CD32A     2.07980       11.6110           0  -1.66000       1.30000    
     10909 MEMB     60       POPE     DC314    DRUD     -2.23580      0.400000           0   0.00000       0.00000    
     10910 MEMB     60       POPE     H14X     HDA2A    0.780000E-01   1.00800           0   0.00000       0.00000    
     10911 MEMB     60       POPE     H14Y     HDA2A    0.780000E-01   1.00800           0   0.00000       0.00000    
     10912 MEMB     60       POPE     C315     CD32A     2.07980       11.6110           0  -1.66000       1.30000    
     10913 MEMB     60       POPE     DC315    DRUD     -2.23580      0.400000           0   0.00000       0.00000    
     10914 MEMB     60       POPE     H15X     HDA2A    0.780000E-01   1.00800           0   0.00000       0.00000    
     10915 MEMB     60       POPE     H15Y     HDA2A    0.780000E-01   1.00800           0   0.00000       0.00000    
     10916 MEMB     60       POPE     C316     CD33A     2.30820       11.6110           0  -2.05100       1.30000    
     10917 MEMB     60       POPE     DC316    DRUD     -2.48520      0.400000           0   0.00000       0.00000    
     10918 MEMB     60       POPE     H16X     HDA3A    0.590000E-01   1.00800           0   0.00000       0.00000    
     10919 MEMB     60       POPE     H16Y     HDA3A    0.590000E-01   1.00800           0   0.00000       0.00000    
     10920 MEMB     60       POPE     H16Z     HDA3A    0.590000E-01   1.00800           0   0.00000       0.00000    
     10921 MEMB     61       POPE     N        ND3P3A    1.62810       13.6070           0  -1.29800      0.895000    
     10922 MEMB     61       POPE     DN       DRUD     -1.97710      0.400000           0   0.00000       0.00000    
     10923 MEMB     61       POPE     HN1      HDP1B    0.340000       1.00800           0   0.00000       0.00000    
     10924 MEMB     61       POPE     HN2      HDP1B    0.340000       1.00800           0   0.00000       0.00000    
     10925 MEMB     61       POPE     HN3      HDP1B    0.340000       1.00800           0   0.00000       0.00000    
     10926 MEMB     61       POPE     C12      CD32A     2.27610       11.6110           0  -1.65600      0.895000    
     10927 MEMB     61       POPE     DC12     DRUD     -2.23310      0.400000           0   0.00000       0.00000    
     10928 MEMB     61       POPE     H12A     HDA2A    0.143000       1.00800           0   0.00000       0.00000    
     10929 MEMB     61       POPE     H12B     HDA2A    0.143000       1.00800           0   0.00000       0.00000    
     10930 MEMB     61       POPE     C11      CD32A     2.42220       11.6110           0  -1.64200      0.862000    
     10931 MEMB     61       POPE     DC11     DRUD     -2.22370      0.400000           0   0.00000       0.00000    
     10932 MEMB     61       POPE     H11A     HDA2A    0.260000E-01   1.00800           0   0.00000       0.00000    
     10933 MEMB     61       POPE     H11B     HDA2A    0.260000E-01   1.00800           0   0.00000       0.00000    
     10934 MEMB     61       POPE     P        PD1A      2.90360       30.5740           0 -0.974000       2.09800    
     10935 MEMB     61       POPE     DP       DRUD     -1.71260      0.400000           0   0.00000       0.00000    
     10936 MEMB     61       POPE     O13      OD2C2B   0.798400       15.5994           0 -0.931000       1.08300    
     10937 MEMB     61       POPE     DO13     DRUD     -1.67440      0.400000           0   0.00000       0.00000    
     10938 MEMB     61       POPE     O14      OD2C2B   0.798400       15.5994           0 -0.931000       1.08300    
     10939 MEMB     61       POPE     DO14     DRUD     -1.67440      0.400000           0   0.00000       0.00000    
     10940 MEMB     61       POPE     O11      OD30B     1.17720       15.5994           0 -0.901000      0.181000    
     10941 MEMB     61       POPE     DO11     DRUD     -1.64720      0.400000           0   0.00000       0.00000    
     10942 MEMB     61       POPE     O12      OD30B     1.17720       15.5994           0 -0.901000      0.181000    
     10943 MEMB     61       POPE     DO12     DRUD     -1.64720      0.400000           0   0.00000       0.00000    
     10944 MEMB     61       POPE     C1       CD32A     2.42220       11.6110           0  -1.64200      0.862000    
     10945 MEMB     61       POPE     DC1      DRUD     -2.22370      0.400000           0   0.00000       0.00000    
     10946 MEMB     61       POPE     HA       HDA2A    0.260000E-01   1.00800           0   0.00000       0.00000    
     10947 MEMB     61       POPE     HB       HDA2A    0.260000E-01   1.00800           0   0.00000       0.00000    
     10948 MEMB     61       POPE     C2       CD31C     2.52830       11.6110           0  -1.79700      0.410000    
     10949 MEMB     61       POPE     DC2      DRUD     -2.32630      0.400000           0   0.00000       0.00000    
     10950 MEMB     61       POPE     HS       HDA1A    0.116000       1.00800           0   0.00000       0.00000    
     10951 MEMB     61       POPE     O21      OD30CL    1.48470       15.5994           0 -0.732000      0.601000    
     10952 MEMB     61       POPE     DO21     DRUD     -1.48470      0.400000           0   0.00000       0.00000    
     10953 MEMB     61       POPE     C21      CD2O3B    2.72820       11.6110           0  -1.37000       1.74700    
     10954 MEMB     61       POPE     DC21     DRUD     -2.03120      0.400000           0   0.00000       0.00000    
     10955 MEMB     61       POPE     O22      OD2C3B    1.64990       15.5994           0 -0.904000      0.565000    
     10956 MEMB     61       POPE     DO22     DRUD     -1.64990      0.400000           0   0.00000       0.00000    
     10957 MEMB     61       POPE     C22      CD32C     2.24380       11.6110           0  -1.99300      0.410000    
     10958 MEMB     61       POPE     DC22     DRUD     -2.44980      0.400000           0   0.00000       0.00000    
     10959 MEMB     61       POPE     H2R      HDA2A    0.690000E-01   1.00800           0   0.00000       0.00000    
     10960 MEMB     61       POPE     H2S      HDA2A    0.690000E-01   1.00800           0   0.00000       0.00000    
     10961 MEMB     61       POPE     LP1A     LPD     -0.349000       0.00000          -1   0.00000       0.00000    
     10962 MEMB     61       POPE     LP1B     LPD     -0.258000       0.00000          -1   0.00000       0.00000    
     10963 MEMB     61       POPE     LPMA     LPD     -0.170000       0.00000          -1   0.00000       0.00000    
     10964 MEMB     61       POPE     LPMB     LPD     -0.170000       0.00000          -1   0.00000       0.00000    
     10965 MEMB     61       POPE     C3       CD32C     2.41230       11.6110           0  -1.79700      0.410000    
     10966 MEMB     61       POPE     DC3      DRUD     -2.32630      0.400000           0   0.00000       0.00000    
     10967 MEMB     61       POPE     HX       HDA2A    0.116000       1.00800           0   0.00000       0.00000    
     10968 MEMB     61       POPE     HY       HDA2A    0.116000       1.00800           0   0.00000       0.00000    
     10969 MEMB     61       POPE     O31      OD30CL    1.48470       15.5994           0 -0.732000      0.601000    
     10970 MEMB     61       POPE     DO31     DRUD     -1.48470      0.400000           0   0.00000       0.00000    
     10971 MEMB     61       POPE     C31      CD2O3B    2.72820       11.6110           0  -1.37000       1.74700    
     10972 MEMB     61       POPE     DC31     DRUD     -2.03120      0.400000           0   0.00000       0.00000    
     10973 MEMB     61       POPE     O32      OD2C3B    1.64990       15.5994           0 -0.904000      0.565000    
     10974 MEMB     61       POPE     DO32     DRUD     -1.64990      0.400000           0   0.00000       0.00000    
     10975 MEMB     61       POPE     C32      CD32C     2.24380       11.6110           0  -1.99300      0.410000    
     10976 MEMB     61       POPE     DC32     DRUD     -2.44980      0.400000           0   0.00000       0.00000    
     10977 MEMB     61       POPE     H2X      HDA2A    0.690000E-01   1.00800           0   0.00000       0.00000    
     10978 MEMB     61       POPE     H2Y      HDA2A    0.690000E-01   1.00800           0   0.00000       0.00000    
     10979 MEMB     61       POPE     LP1C     LPD     -0.349000       0.00000          -1   0.00000       0.00000    
     10980 MEMB     61       POPE     LP1D     LPD     -0.258000       0.00000          -1   0.00000       0.00000    
     10981 MEMB     61       POPE     LPMC     LPD     -0.170000       0.00000          -1   0.00000       0.00000    
     10982 MEMB     61       POPE     LPMD     LPD     -0.170000       0.00000          -1   0.00000       0.00000    
     10983 MEMB     61       POPE     C23      CD32A     2.07980       11.6110           0  -1.66000       1.30000    
     10984 MEMB     61       POPE     DC23     DRUD     -2.23580      0.400000           0   0.00000       0.00000    
     10985 MEMB     61       POPE     H3R      HDA2A    0.780000E-01   1.00800           0   0.00000       0.00000    
     10986 MEMB     61       POPE     H3S      HDA2A    0.780000E-01   1.00800           0   0.00000       0.00000    
     10987 MEMB     61       POPE     C24      CD32A     2.07980       11.6110           0  -1.66000       1.30000    
     10988 MEMB     61       POPE     DC24     DRUD     -2.23580      0.400000           0   0.00000       0.00000    
     10989 MEMB     61       POPE     H4R      HDA2A    0.780000E-01   1.00800           0   0.00000       0.00000    
     10990 MEMB     61       POPE     H4S      HDA2A    0.780000E-01   1.00800           0   0.00000       0.00000    
     10991 MEMB     61       POPE     C25      CD32A     2.07980       11.6110           0  -1.66000       1.30000    
     10992 MEMB     61       POPE     DC25     DRUD     -2.23580      0.400000           0   0.00000       0.00000    
     10993 MEMB     61       POPE     H5R      HDA2A    0.780000E-01   1.00800           0   0.00000       0.00000    
     10994 MEMB     61       POPE     H5S      HDA2A    0.780000E-01   1.00800           0   0.00000       0.00000    
     10995 MEMB     61       POPE     C26      CD32A     2.07980       11.6110           0  -1.66000       1.30000    
     10996 MEMB     61       POPE     DC26     DRUD     -2.23580      0.400000           0   0.00000       0.00000    
     10997 MEMB     61       POPE     H6R      HDA2A    0.780000E-01   1.00800           0   0.00000       0.00000    
     10998 MEMB     61       POPE     H6S      HDA2A    0.780000E-01   1.00800           0   0.00000       0.00000    
     10999 MEMB     61       POPE     C27      CD32A     2.07980       11.6110           0  -1.66000       1.30000    
     11000 MEMB     61       POPE     DC27     DRUD     -2.23580      0.400000           0   0.00000       0.00000    
     11001 MEMB     61       POPE     H7R      HDA2A    0.780000E-01   1.00800           0   0.00000       0.00000    
     11002 MEMB     61       POPE     H7S      HDA2A    0.780000E-01   1.00800           0   0.00000       0.00000    
     11003 MEMB     61       POPE     C28      CD32A     2.07980       11.6110           0  -1.66000       1.30000    
     11004 MEMB     61       POPE     DC28     DRUD     -2.23580      0.400000           0   0.00000       0.00000    
     11005 MEMB     61       POPE     H8R      HDA2A    0.780000E-01   1.00800           0   0.00000       0.00000    
     11006 MEMB     61       POPE     H8S      HDA2A    0.780000E-01   1.00800           0   0.00000       0.00000    
     11007 MEMB     61       POPE     C29      CD2C1A    2.33700       11.6110           0  -1.99000      0.750000    
     11008 MEMB     61       POPE     DC29     DRUD     -2.44800      0.400000           0   0.00000       0.00000    
     11009 MEMB     61       POPE     H91      HD2C1A   0.111000       1.00800           0   0.00000       0.00000    
     11010 MEMB     61       POPE     C210     CD2C1A    2.33700       11.6110           0  -1.99000      0.750000    
     11011 MEMB     61       POPE     DC210    DRUD     -2.44800      0.400000           0   0.00000       0.00000    
     11012 MEMB     61       POPE     H101     HD2C1A   0.111000       1.00800           0   0.00000       0.00000    
     11013 MEMB     61       POPE     C211     CD32A     2.07980       11.6110           0  -1.66000       1.30000    
     11014 MEMB     61       POPE     DC211    DRUD     -2.23580      0.400000           0   0.00000       0.00000    
     11015 MEMB     61       POPE     H11R     HDA2A    0.780000E-01   1.00800           0   0.00000       0.00000    
     11016 MEMB     61       POPE     H11S     HDA2A    0.780000E-01   1.00800           0   0.00000       0.00000    
     11017 MEMB     61       POPE     C212     CD32A     2.07980       11.6110           0  -1.66000       1.30000    
     11018 MEMB     61       POPE     DC212    DRUD     -2.23580      0.400000           0   0.00000       0.00000    
     11019 MEMB     61       POPE     H12R     HDA2A    0.780000E-01   1.00800           0   0.00000       0.00000    
     11020 MEMB     61       POPE     H12S     HDA2A    0.780000E-01   1.00800           0   0.00000       0.00000    
     11021 MEMB     61       POPE     C213     CD32A     2.07980       11.6110           0  -1.66000       1.30000    
     11022 MEMB     61       POPE     DC213    DRUD     -2.23580      0.400000           0   0.00000       0.00000    
     11023 MEMB     61       POPE     H13R     HDA2A    0.780000E-01   1.00800           0   0.00000       0.00000    
     11024 MEMB     61       POPE     H13S     HDA2A    0.780000E-01   1.00800           0   0.00000       0.00000    
     11025 MEMB     61       POPE     C214     CD32A     2.07980       11.6110           0  -1.66000       1.30000    
     11026 MEMB     61       POPE     DC214    DRUD     -2.23580      0.400000           0   0.00000       0.00000    
     11027 MEMB     61       POPE     H14R     HDA2A    0.780000E-01   1.00800           0   0.00000       0.00000    
     11028 MEMB     61       POPE     H14S     HDA2A    0.780000E-01   1.00800           0   0.00000       0.00000    
     11029 MEMB     61       POPE     C215     CD32A     2.07980       11.6110           0  -1.66000       1.30000    
     11030 MEMB     61       POPE     DC215    DRUD     -2.23580      0.400000           0   0.00000       0.00000    
     11031 MEMB     61       POPE     H15R     HDA2A    0.780000E-01   1.00800           0   0.00000       0.00000    
     11032 MEMB     61       POPE     H15S     HDA2A    0.780000E-01   1.00800           0   0.00000       0.00000    
     11033 MEMB     61       POPE     C216     CD32A     2.07980       11.6110           0  -1.66000       1.30000    
     11034 MEMB     61       POPE     DC216    DRUD     -2.23580      0.400000           0   0.00000       0.00000    
     11035 MEMB     61       POPE     H16R     HDA2A    0.780000E-01   1.00800           0   0.00000       0.00000    
     11036 MEMB     61       POPE     H16S     HDA2A    0.780000E-01   1.00800           0   0.00000       0.00000    
     11037 MEMB     61       POPE     C217     CD32A     2.07980       11.6110           0  -1.66000       1.30000    
     11038 MEMB     61       POPE     DC217    DRUD     -2.23580      0.400000           0   0.00000       0.00000    
     11039 MEMB     61       POPE     H17R     HDA2A    0.780000E-01   1.00800           0   0.00000       0.00000    
     11040 MEMB     61       POPE     H17S     HDA2A    0.780000E-01   1.00800           0   0.00000       0.00000    
     11041 MEMB     61       POPE     C218     CD33A     2.30820       11.6110           0  -2.05100       1.30000    
     11042 MEMB     61       POPE     DC218    DRUD     -2.48520      0.400000           0   0.00000       0.00000    
     11043 MEMB     61       POPE     H18R     HDA3A    0.590000E-01   1.00800           0   0.00000       0.00000    
     11044 MEMB     61       POPE     H18S     HDA3A    0.590000E-01   1.00800           0   0.00000       0.00000    
     11045 MEMB     61       POPE     H18T     HDA3A    0.590000E-01   1.00800           0   0.00000       0.00000    
     11046 MEMB     61       POPE     C33      CD32A     2.07980       11.6110           0  -1.66000       1.30000    
     11047 MEMB     61       POPE     DC33     DRUD     -2.23580      0.400000           0   0.00000       0.00000    
     11048 MEMB     61       POPE     H3X      HDA2A    0.780000E-01   1.00800           0   0.00000       0.00000    
     11049 MEMB     61       POPE     H3Y      HDA2A    0.780000E-01   1.00800           0   0.00000       0.00000    
     11050 MEMB     61       POPE     C34      CD32A     2.07980       11.6110           0  -1.66000       1.30000    
     11051 MEMB     61       POPE     DC34     DRUD     -2.23580      0.400000           0   0.00000       0.00000    
     11052 MEMB     61       POPE     H4X      HDA2A    0.780000E-01   1.00800           0   0.00000       0.00000    
     11053 MEMB     61       POPE     H4Y      HDA2A    0.780000E-01   1.00800           0   0.00000       0.00000    
     11054 MEMB     61       POPE     C35      CD32A     2.07980       11.6110           0  -1.66000       1.30000    
     11055 MEMB     61       POPE     DC35     DRUD     -2.23580      0.400000           0   0.00000       0.00000    
     11056 MEMB     61       POPE     H5X      HDA2A    0.780000E-01   1.00800           0   0.00000       0.00000    
     11057 MEMB     61       POPE     H5Y      HDA2A    0.780000E-01   1.00800           0   0.00000       0.00000    
     11058 MEMB     61       POPE     C36      CD32A     2.07980       11.6110           0  -1.66000       1.30000    
     11059 MEMB     61       POPE     DC36     DRUD     -2.23580      0.400000           0   0.00000       0.00000    
     11060 MEMB     61       POPE     H6X      HDA2A    0.780000E-01   1.00800           0   0.00000       0.00000    
     11061 MEMB     61       POPE     H6Y      HDA2A    0.780000E-01   1.00800           0   0.00000       0.00000    
     11062 MEMB     61       POPE     C37      CD32A     2.07980       11.6110           0  -1.66000       1.30000    
     11063 MEMB     61       POPE     DC37     DRUD     -2.23580      0.400000           0   0.00000       0.00000    
     11064 MEMB     61       POPE     H7X      HDA2A    0.780000E-01   1.00800           0   0.00000       0.00000    
     11065 MEMB     61       POPE     H7Y      HDA2A    0.780000E-01   1.00800           0   0.00000       0.00000    
     11066 MEMB     61       POPE     C38      CD32A     2.07980       11.6110           0  -1.66000       1.30000    
     11067 MEMB     61       POPE     DC38     DRUD     -2.23580      0.400000           0   0.00000       0.00000    
     11068 MEMB     61       POPE     H8X      HDA2A    0.780000E-01   1.00800           0   0.00000       0.00000    
     11069 MEMB     61       POPE     H8Y      HDA2A    0.780000E-01   1.00800           0   0.00000       0.00000    
     11070 MEMB     61       POPE     C39      CD32A     2.07980       11.6110           0  -1.66000       1.30000    
     11071 MEMB     61       POPE     DC39     DRUD     -2.23580      0.400000           0   0.00000       0.00000    
     11072 MEMB     61       POPE     H9X      HDA2A    0.780000E-01   1.00800           0   0.00000       0.00000    
     11073 MEMB     61       POPE     H9Y      HDA2A    0.780000E-01   1.00800           0   0.00000       0.00000    
     11074 MEMB     61       POPE     C310     CD32A     2.07980       11.6110           0  -1.66000       1.30000    
     11075 MEMB     61       POPE     DC310    DRUD     -2.23580      0.400000           0   0.00000       0.00000    
     11076 MEMB     61       POPE     H10X     HDA2A    0.780000E-01   1.00800           0   0.00000       0.00000    
     11077 MEMB     61       POPE     H10Y     HDA2A    0.780000E-01   1.00800           0   0.00000       0.00000    
     11078 MEMB     61       POPE     C311     CD32A     2.07980       11.6110           0  -1.66000       1.30000    
     11079 MEMB     61       POPE     DC311    DRUD     -2.23580      0.400000           0   0.00000       0.00000    
     11080 MEMB     61       POPE     H11X     HDA2A    0.780000E-01   1.00800           0   0.00000       0.00000    
     11081 MEMB     61       POPE     H11Y     HDA2A    0.780000E-01   1.00800           0   0.00000       0.00000    
     11082 MEMB     61       POPE     C312     CD32A     2.07980       11.6110           0  -1.66000       1.30000    
     11083 MEMB     61       POPE     DC312    DRUD     -2.23580      0.400000           0   0.00000       0.00000    
     11084 MEMB     61       POPE     H12X     HDA2A    0.780000E-01   1.00800           0   0.00000       0.00000    
     11085 MEMB     61       POPE     H12Y     HDA2A    0.780000E-01   1.00800           0   0.00000       0.00000    
     11086 MEMB     61       POPE     C313     CD32A     2.07980       11.6110           0  -1.66000       1.30000    
     11087 MEMB     61       POPE     DC313    DRUD     -2.23580      0.400000           0   0.00000       0.00000    
     11088 MEMB     61       POPE     H13X     HDA2A    0.780000E-01   1.00800           0   0.00000       0.00000    
     11089 MEMB     61       POPE     H13Y     HDA2A    0.780000E-01   1.00800           0   0.00000       0.00000    
     11090 MEMB     61       POPE     C314     CD32A     2.07980       11.6110           0  -1.66000       1.30000    
     11091 MEMB     61       POPE     DC314    DRUD     -2.23580      0.400000           0   0.00000       0.00000    
     11092 MEMB     61       POPE     H14X     HDA2A    0.780000E-01   1.00800           0   0.00000       0.00000    
     11093 MEMB     61       POPE     H14Y     HDA2A    0.780000E-01   1.00800           0   0.00000       0.00000    
     11094 MEMB     61       POPE     C315     CD32A     2.07980       11.6110           0  -1.66000       1.30000    
     11095 MEMB     61       POPE     DC315    DRUD     -2.23580      0.400000           0   0.00000       0.00000    
     11096 MEMB     61       POPE     H15X     HDA2A    0.780000E-01   1.00800           0   0.00000       0.00000    
     11097 MEMB     61       POPE     H15Y     HDA2A    0.780000E-01   1.00800           0   0.00000       0.00000    
     11098 MEMB     61       POPE     C316     CD33A     2.30820       11.6110           0  -2.05100       1.30000    
     11099 MEMB     61       POPE     DC316    DRUD     -2.48520      0.400000           0   0.00000       0.00000    
     11100 MEMB     61       POPE     H16X     HDA3A    0.590000E-01   1.00800           0   0.00000       0.00000    
     11101 MEMB     61       POPE     H16Y     HDA3A    0.590000E-01   1.00800           0   0.00000       0.00000    
     11102 MEMB     61       POPE     H16Z     HDA3A    0.590000E-01   1.00800           0   0.00000       0.00000    
     11103 MEMB     62       POPE     N        ND3P3A    1.62810       13.6070           0  -1.29800      0.895000    
     11104 MEMB     62       POPE     DN       DRUD     -1.97710      0.400000           0   0.00000       0.00000    
     11105 MEMB     62       POPE     HN1      HDP1B    0.340000       1.00800           0   0.00000       0.00000    
     11106 MEMB     62       POPE     HN2      HDP1B    0.340000       1.00800           0   0.00000       0.00000    
     11107 MEMB     62       POPE     HN3      HDP1B    0.340000       1.00800           0   0.00000       0.00000    
     11108 MEMB     62       POPE     C12      CD32A     2.27610       11.6110           0  -1.65600      0.895000    
     11109 MEMB     62       POPE     DC12     DRUD     -2.23310      0.400000           0   0.00000       0.00000    
     11110 MEMB     62       POPE     H12A     HDA2A    0.143000       1.00800           0   0.00000       0.00000    
     11111 MEMB     62       POPE     H12B     HDA2A    0.143000       1.00800           0   0.00000       0.00000    
     11112 MEMB     62       POPE     C11      CD32A     2.42220       11.6110           0  -1.64200      0.862000    
     11113 MEMB     62       POPE     DC11     DRUD     -2.22370      0.400000           0   0.00000       0.00000    
     11114 MEMB     62       POPE     H11A     HDA2A    0.260000E-01   1.00800           0   0.00000       0.00000    
     11115 MEMB     62       POPE     H11B     HDA2A    0.260000E-01   1.00800           0   0.00000       0.00000    
     11116 MEMB     62       POPE     P        PD1A      2.90360       30.5740           0 -0.974000       2.09800    
     11117 MEMB     62       POPE     DP       DRUD     -1.71260      0.400000           0   0.00000       0.00000    
     11118 MEMB     62       POPE     O13      OD2C2B   0.798400       15.5994           0 -0.931000       1.08300    
     11119 MEMB     62       POPE     DO13     DRUD     -1.67440      0.400000           0   0.00000       0.00000    
     11120 MEMB     62       POPE     O14      OD2C2B   0.798400       15.5994           0 -0.931000       1.08300    
     11121 MEMB     62       POPE     DO14     DRUD     -1.67440      0.400000           0   0.00000       0.00000    
     11122 MEMB     62       POPE     O11      OD30B     1.17720       15.5994           0 -0.901000      0.181000    
     11123 MEMB     62       POPE     DO11     DRUD     -1.64720      0.400000           0   0.00000       0.00000    
     11124 MEMB     62       POPE     O12      OD30B     1.17720       15.5994           0 -0.901000      0.181000    
     11125 MEMB     62       POPE     DO12     DRUD     -1.64720      0.400000           0   0.00000       0.00000    
     11126 MEMB     62       POPE     C1       CD32A     2.42220       11.6110           0  -1.64200      0.862000    
     11127 MEMB     62       POPE     DC1      DRUD     -2.22370      0.400000           0   0.00000       0.00000    
     11128 MEMB     62       POPE     HA       HDA2A    0.260000E-01   1.00800           0   0.00000       0.00000    
     11129 MEMB     62       POPE     HB       HDA2A    0.260000E-01   1.00800           0   0.00000       0.00000    
     11130 MEMB     62       POPE     C2       CD31C     2.52830       11.6110           0  -1.79700      0.410000    
     11131 MEMB     62       POPE     DC2      DRUD     -2.32630      0.400000           0   0.00000       0.00000    
     11132 MEMB     62       POPE     HS       HDA1A    0.116000       1.00800           0   0.00000       0.00000    
     11133 MEMB     62       POPE     O21      OD30CL    1.48470       15.5994           0 -0.732000      0.601000    
     11134 MEMB     62       POPE     DO21     DRUD     -1.48470      0.400000           0   0.00000       0.00000    
     11135 MEMB     62       POPE     C21      CD2O3B    2.72820       11.6110           0  -1.37000       1.74700    
     11136 MEMB     62       POPE     DC21     DRUD     -2.03120      0.400000           0   0.00000       0.00000    
     11137 MEMB     62       POPE     O22      OD2C3B    1.64990       15.5994           0 -0.904000      0.565000    
     11138 MEMB     62       POPE     DO22     DRUD     -1.64990      0.400000           0   0.00000       0.00000    
     11139 MEMB     62       POPE     C22      CD32C     2.24380       11.6110           0  -1.99300      0.410000    
     11140 MEMB     62       POPE     DC22     DRUD     -2.44980      0.400000           0   0.00000       0.00000    
     11141 MEMB     62       POPE     H2R      HDA2A    0.690000E-01   1.00800           0   0.00000       0.00000    
     11142 MEMB     62       POPE     H2S      HDA2A    0.690000E-01   1.00800           0   0.00000       0.00000    
     11143 MEMB     62       POPE     LP1A     LPD     -0.349000       0.00000          -1   0.00000       0.00000    
     11144 MEMB     62       POPE     LP1B     LPD     -0.258000       0.00000          -1   0.00000       0.00000    
     11145 MEMB     62       POPE     LPMA     LPD     -0.170000       0.00000          -1   0.00000       0.00000    
     11146 MEMB     62       POPE     LPMB     LPD     -0.170000       0.00000          -1   0.00000       0.00000    
     11147 MEMB     62       POPE     C3       CD32C     2.41230       11.6110           0  -1.79700      0.410000    
     11148 MEMB     62       POPE     DC3      DRUD     -2.32630      0.400000           0   0.00000       0.00000    
     11149 MEMB     62       POPE     HX       HDA2A    0.116000       1.00800           0   0.00000       0.00000    
     11150 MEMB     62       POPE     HY       HDA2A    0.116000       1.00800           0   0.00000       0.00000    
     11151 MEMB     62       POPE     O31      OD30CL    1.48470       15.5994           0 -0.732000      0.601000    
     11152 MEMB     62       POPE     DO31     DRUD     -1.48470      0.400000           0   0.00000       0.00000    
     11153 MEMB     62       POPE     C31      CD2O3B    2.72820       11.6110           0  -1.37000       1.74700    
     11154 MEMB     62       POPE     DC31     DRUD     -2.03120      0.400000           0   0.00000       0.00000    
     11155 MEMB     62       POPE     O32      OD2C3B    1.64990       15.5994           0 -0.904000      0.565000    
     11156 MEMB     62       POPE     DO32     DRUD     -1.64990      0.400000           0   0.00000       0.00000    
     11157 MEMB     62       POPE     C32      CD32C     2.24380       11.6110           0  -1.99300      0.410000    
     11158 MEMB     62       POPE     DC32     DRUD     -2.44980      0.400000           0   0.00000       0.00000    
     11159 MEMB     62       POPE     H2X      HDA2A    0.690000E-01   1.00800           0   0.00000       0.00000    
     11160 MEMB     62       POPE     H2Y      HDA2A    0.690000E-01   1.00800           0   0.00000       0.00000    
     11161 MEMB     62       POPE     LP1C     LPD     -0.349000       0.00000          -1   0.00000       0.00000    
     11162 MEMB     62       POPE     LP1D     LPD     -0.258000       0.00000          -1   0.00000       0.00000    
     11163 MEMB     62       POPE     LPMC     LPD     -0.170000       0.00000          -1   0.00000       0.00000    
     11164 MEMB     62       POPE     LPMD     LPD     -0.170000       0.00000          -1   0.00000       0.00000    
     11165 MEMB     62       POPE     C23      CD32A     2.07980       11.6110           0  -1.66000       1.30000    
     11166 MEMB     62       POPE     DC23     DRUD     -2.23580      0.400000           0   0.00000       0.00000    
     11167 MEMB     62       POPE     H3R      HDA2A    0.780000E-01   1.00800           0   0.00000       0.00000    
     11168 MEMB     62       POPE     H3S      HDA2A    0.780000E-01   1.00800           0   0.00000       0.00000    
     11169 MEMB     62       POPE     C24      CD32A     2.07980       11.6110           0  -1.66000       1.30000    
     11170 MEMB     62       POPE     DC24     DRUD     -2.23580      0.400000           0   0.00000       0.00000    
     11171 MEMB     62       POPE     H4R      HDA2A    0.780000E-01   1.00800           0   0.00000       0.00000    
     11172 MEMB     62       POPE     H4S      HDA2A    0.780000E-01   1.00800           0   0.00000       0.00000    
     11173 MEMB     62       POPE     C25      CD32A     2.07980       11.6110           0  -1.66000       1.30000    
     11174 MEMB     62       POPE     DC25     DRUD     -2.23580      0.400000           0   0.00000       0.00000    
     11175 MEMB     62       POPE     H5R      HDA2A    0.780000E-01   1.00800           0   0.00000       0.00000    
     11176 MEMB     62       POPE     H5S      HDA2A    0.780000E-01   1.00800           0   0.00000       0.00000    
     11177 MEMB     62       POPE     C26      CD32A     2.07980       11.6110           0  -1.66000       1.30000    
     11178 MEMB     62       POPE     DC26     DRUD     -2.23580      0.400000           0   0.00000       0.00000    
     11179 MEMB     62       POPE     H6R      HDA2A    0.780000E-01   1.00800           0   0.00000       0.00000    
     11180 MEMB     62       POPE     H6S      HDA2A    0.780000E-01   1.00800           0   0.00000       0.00000    
     11181 MEMB     62       POPE     C27      CD32A     2.07980       11.6110           0  -1.66000       1.30000    
     11182 MEMB     62       POPE     DC27     DRUD     -2.23580      0.400000           0   0.00000       0.00000    
     11183 MEMB     62       POPE     H7R      HDA2A    0.780000E-01   1.00800           0   0.00000       0.00000    
     11184 MEMB     62       POPE     H7S      HDA2A    0.780000E-01   1.00800           0   0.00000       0.00000    
     11185 MEMB     62       POPE     C28      CD32A     2.07980       11.6110           0  -1.66000       1.30000    
     11186 MEMB     62       POPE     DC28     DRUD     -2.23580      0.400000           0   0.00000       0.00000    
     11187 MEMB     62       POPE     H8R      HDA2A    0.780000E-01   1.00800           0   0.00000       0.00000    
     11188 MEMB     62       POPE     H8S      HDA2A    0.780000E-01   1.00800           0   0.00000       0.00000    
     11189 MEMB     62       POPE     C29      CD2C1A    2.33700       11.6110           0  -1.99000      0.750000    
     11190 MEMB     62       POPE     DC29     DRUD     -2.44800      0.400000           0   0.00000       0.00000    
     11191 MEMB     62       POPE     H91      HD2C1A   0.111000       1.00800           0   0.00000       0.00000    
     11192 MEMB     62       POPE     C210     CD2C1A    2.33700       11.6110           0  -1.99000      0.750000    
     11193 MEMB     62       POPE     DC210    DRUD     -2.44800      0.400000           0   0.00000       0.00000    
     11194 MEMB     62       POPE     H101     HD2C1A   0.111000       1.00800           0   0.00000       0.00000    
     11195 MEMB     62       POPE     C211     CD32A     2.07980       11.6110           0  -1.66000       1.30000    
     11196 MEMB     62       POPE     DC211    DRUD     -2.23580      0.400000           0   0.00000       0.00000    
     11197 MEMB     62       POPE     H11R     HDA2A    0.780000E-01   1.00800           0   0.00000       0.00000    
     11198 MEMB     62       POPE     H11S     HDA2A    0.780000E-01   1.00800           0   0.00000       0.00000    
     11199 MEMB     62       POPE     C212     CD32A     2.07980       11.6110           0  -1.66000       1.30000    
     11200 MEMB     62       POPE     DC212    DRUD     -2.23580      0.400000           0   0.00000       0.00000    
     11201 MEMB     62       POPE     H12R     HDA2A    0.780000E-01   1.00800           0   0.00000       0.00000    
     11202 MEMB     62       POPE     H12S     HDA2A    0.780000E-01   1.00800           0   0.00000       0.00000    
     11203 MEMB     62       POPE     C213     CD32A     2.07980       11.6110           0  -1.66000       1.30000    
     11204 MEMB     62       POPE     DC213    DRUD     -2.23580      0.400000           0   0.00000       0.00000    
     11205 MEMB     62       POPE     H13R     HDA2A    0.780000E-01   1.00800           0   0.00000       0.00000    
     11206 MEMB     62       POPE     H13S     HDA2A    0.780000E-01   1.00800           0   0.00000       0.00000    
     11207 MEMB     62       POPE     C214     CD32A     2.07980       11.6110           0  -1.66000       1.30000    
     11208 MEMB     62       POPE     DC214    DRUD     -2.23580      0.400000           0   0.00000       0.00000    
     11209 MEMB     62       POPE     H14R     HDA2A    0.780000E-01   1.00800           0   0.00000       0.00000    
     11210 MEMB     62       POPE     H14S     HDA2A    0.780000E-01   1.00800           0   0.00000       0.00000    
     11211 MEMB     62       POPE     C215     CD32A     2.07980       11.6110           0  -1.66000       1.30000    
     11212 MEMB     62       POPE     DC215    DRUD     -2.23580      0.400000           0   0.00000       0.00000    
     11213 MEMB     62       POPE     H15R     HDA2A    0.780000E-01   1.00800           0   0.00000       0.00000    
     11214 MEMB     62       POPE     H15S     HDA2A    0.780000E-01   1.00800           0   0.00000       0.00000    
     11215 MEMB     62       POPE     C216     CD32A     2.07980       11.6110           0  -1.66000       1.30000    
     11216 MEMB     62       POPE     DC216    DRUD     -2.23580      0.400000           0   0.00000       0.00000    
     11217 MEMB     62       POPE     H16R     HDA2A    0.780000E-01   1.00800           0   0.00000       0.00000    
     11218 MEMB     62       POPE     H16S     HDA2A    0.780000E-01   1.00800           0   0.00000       0.00000    
     11219 MEMB     62       POPE     C217     CD32A     2.07980       11.6110           0  -1.66000       1.30000    
     11220 MEMB     62       POPE     DC217    DRUD     -2.23580      0.400000           0   0.00000       0.00000    
     11221 MEMB     62       POPE     H17R     HDA2A    0.780000E-01   1.00800           0   0.00000       0.00000    
     11222 MEMB     62       POPE     H17S     HDA2A    0.780000E-01   1.00800           0   0.00000       0.00000    
     11223 MEMB     62       POPE     C218     CD33A     2.30820       11.6110           0  -2.05100       1.30000    
     11224 MEMB     62       POPE     DC218    DRUD     -2.48520      0.400000           0   0.00000       0.00000    
     11225 MEMB     62       POPE     H18R     HDA3A    0.590000E-01   1.00800           0   0.00000       0.00000    
     11226 MEMB     62       POPE     H18S     HDA3A    0.590000E-01   1.00800           0   0.00000       0.00000    
     11227 MEMB     62       POPE     H18T     HDA3A    0.590000E-01   1.00800           0   0.00000       0.00000    
     11228 MEMB     62       POPE     C33      CD32A     2.07980       11.6110           0  -1.66000       1.30000    
     11229 MEMB     62       POPE     DC33     DRUD     -2.23580      0.400000           0   0.00000       0.00000    
     11230 MEMB     62       POPE     H3X      HDA2A    0.780000E-01   1.00800           0   0.00000       0.00000    
     11231 MEMB     62       POPE     H3Y      HDA2A    0.780000E-01   1.00800           0   0.00000       0.00000    
     11232 MEMB     62       POPE     C34      CD32A     2.07980       11.6110           0  -1.66000       1.30000    
     11233 MEMB     62       POPE     DC34     DRUD     -2.23580      0.400000           0   0.00000       0.00000    
     11234 MEMB     62       POPE     H4X      HDA2A    0.780000E-01   1.00800           0   0.00000       0.00000    
     11235 MEMB     62       POPE     H4Y      HDA2A    0.780000E-01   1.00800           0   0.00000       0.00000    
     11236 MEMB     62       POPE     C35      CD32A     2.07980       11.6110           0  -1.66000       1.30000    
     11237 MEMB     62       POPE     DC35     DRUD     -2.23580      0.400000           0   0.00000       0.00000    
     11238 MEMB     62       POPE     H5X      HDA2A    0.780000E-01   1.00800           0   0.00000       0.00000    
     11239 MEMB     62       POPE     H5Y      HDA2A    0.780000E-01   1.00800           0   0.00000       0.00000    
     11240 MEMB     62       POPE     C36      CD32A     2.07980       11.6110           0  -1.66000       1.30000    
     11241 MEMB     62       POPE     DC36     DRUD     -2.23580      0.400000           0   0.00000       0.00000    
     11242 MEMB     62       POPE     H6X      HDA2A    0.780000E-01   1.00800           0   0.00000       0.00000    
     11243 MEMB     62       POPE     H6Y      HDA2A    0.780000E-01   1.00800           0   0.00000       0.00000    
     11244 MEMB     62       POPE     C37      CD32A     2.07980       11.6110           0  -1.66000       1.30000    
     11245 MEMB     62       POPE     DC37     DRUD     -2.23580      0.400000           0   0.00000       0.00000    
     11246 MEMB     62       POPE     H7X      HDA2A    0.780000E-01   1.00800           0   0.00000       0.00000    
     11247 MEMB     62       POPE     H7Y      HDA2A    0.780000E-01   1.00800           0   0.00000       0.00000    
     11248 MEMB     62       POPE     C38      CD32A     2.07980       11.6110           0  -1.66000       1.30000    
     11249 MEMB     62       POPE     DC38     DRUD     -2.23580      0.400000           0   0.00000       0.00000    
     11250 MEMB     62       POPE     H8X      HDA2A    0.780000E-01   1.00800           0   0.00000       0.00000    
     11251 MEMB     62       POPE     H8Y      HDA2A    0.780000E-01   1.00800           0   0.00000       0.00000    
     11252 MEMB     62       POPE     C39      CD32A     2.07980       11.6110           0  -1.66000       1.30000    
     11253 MEMB     62       POPE     DC39     DRUD     -2.23580      0.400000           0   0.00000       0.00000    
     11254 MEMB     62       POPE     H9X      HDA2A    0.780000E-01   1.00800           0   0.00000       0.00000    
     11255 MEMB     62       POPE     H9Y      HDA2A    0.780000E-01   1.00800           0   0.00000       0.00000    
     11256 MEMB     62       POPE     C310     CD32A     2.07980       11.6110           0  -1.66000       1.30000    
     11257 MEMB     62       POPE     DC310    DRUD     -2.23580      0.400000           0   0.00000       0.00000    
     11258 MEMB     62       POPE     H10X     HDA2A    0.780000E-01   1.00800           0   0.00000       0.00000    
     11259 MEMB     62       POPE     H10Y     HDA2A    0.780000E-01   1.00800           0   0.00000       0.00000    
     11260 MEMB     62       POPE     C311     CD32A     2.07980       11.6110           0  -1.66000       1.30000    
     11261 MEMB     62       POPE     DC311    DRUD     -2.23580      0.400000           0   0.00000       0.00000    
     11262 MEMB     62       POPE     H11X     HDA2A    0.780000E-01   1.00800           0   0.00000       0.00000    
     11263 MEMB     62       POPE     H11Y     HDA2A    0.780000E-01   1.00800           0   0.00000       0.00000    
     11264 MEMB     62       POPE     C312     CD32A     2.07980       11.6110           0  -1.66000       1.30000    
     11265 MEMB     62       POPE     DC312    DRUD     -2.23580      0.400000           0   0.00000       0.00000    
     11266 MEMB     62       POPE     H12X     HDA2A    0.780000E-01   1.00800           0   0.00000       0.00000    
     11267 MEMB     62       POPE     H12Y     HDA2A    0.780000E-01   1.00800           0   0.00000       0.00000    
     11268 MEMB     62       POPE     C313     CD32A     2.07980       11.6110           0  -1.66000       1.30000    
     11269 MEMB     62       POPE     DC313    DRUD     -2.23580      0.400000           0   0.00000       0.00000    
     11270 MEMB     62       POPE     H13X     HDA2A    0.780000E-01   1.00800           0   0.00000       0.00000    
     11271 MEMB     62       POPE     H13Y     HDA2A    0.780000E-01   1.00800           0   0.00000       0.00000    
     11272 MEMB     62       POPE     C314     CD32A     2.07980       11.6110           0  -1.66000       1.30000    
     11273 MEMB     62       POPE     DC314    DRUD     -2.23580      0.400000           0   0.00000       0.00000    
     11274 MEMB     62       POPE     H14X     HDA2A    0.780000E-01   1.00800           0   0.00000       0.00000    
     11275 MEMB     62       POPE     H14Y     HDA2A    0.780000E-01   1.00800           0   0.00000       0.00000    
     11276 MEMB     62       POPE     C315     CD32A     2.07980       11.6110           0  -1.66000       1.30000    
     11277 MEMB     62       POPE     DC315    DRUD     -2.23580      0.400000           0   0.00000       0.00000    
     11278 MEMB     62       POPE     H15X     HDA2A    0.780000E-01   1.00800           0   0.00000       0.00000    
     11279 MEMB     62       POPE     H15Y     HDA2A    0.780000E-01   1.00800           0   0.00000       0.00000    
     11280 MEMB     62       POPE     C316     CD33A     2.30820       11.6110           0  -2.05100       1.30000    
     11281 MEMB     62       POPE     DC316    DRUD     -2.48520      0.400000           0   0.00000       0.00000    
     11282 MEMB     62       POPE     H16X     HDA3A    0.590000E-01   1.00800           0   0.00000       0.00000    
     11283 MEMB     62       POPE     H16Y     HDA3A    0.590000E-01   1.00800           0   0.00000       0.00000    
     11284 MEMB     62       POPE     H16Z     HDA3A    0.590000E-01   1.00800           0   0.00000       0.00000    
     11285 MEMB     63       POPE     N        ND3P3A    1.62810       13.6070           0  -1.29800      0.895000    
     11286 MEMB     63       POPE     DN       DRUD     -1.97710      0.400000           0   0.00000       0.00000    
     11287 MEMB     63       POPE     HN1      HDP1B    0.340000       1.00800           0   0.00000       0.00000    
     11288 MEMB     63       POPE     HN2      HDP1B    0.340000       1.00800           0   0.00000       0.00000    
     11289 MEMB     63       POPE     HN3      HDP1B    0.340000       1.00800           0   0.00000       0.00000    
     11290 MEMB     63       POPE     C12      CD32A     2.27610       11.6110           0  -1.65600      0.895000    
     11291 MEMB     63       POPE     DC12     DRUD     -2.23310      0.400000           0   0.00000       0.00000    
     11292 MEMB     63       POPE     H12A     HDA2A    0.143000       1.00800           0   0.00000       0.00000    
     11293 MEMB     63       POPE     H12B     HDA2A    0.143000       1.00800           0   0.00000       0.00000    
     11294 MEMB     63       POPE     C11      CD32A     2.42220       11.6110           0  -1.64200      0.862000    
     11295 MEMB     63       POPE     DC11     DRUD     -2.22370      0.400000           0   0.00000       0.00000    
     11296 MEMB     63       POPE     H11A     HDA2A    0.260000E-01   1.00800           0   0.00000       0.00000    
     11297 MEMB     63       POPE     H11B     HDA2A    0.260000E-01   1.00800           0   0.00000       0.00000    
     11298 MEMB     63       POPE     P        PD1A      2.90360       30.5740           0 -0.974000       2.09800    
     11299 MEMB     63       POPE     DP       DRUD     -1.71260      0.400000           0   0.00000       0.00000    
     11300 MEMB     63       POPE     O13      OD2C2B   0.798400       15.5994           0 -0.931000       1.08300    
     11301 MEMB     63       POPE     DO13     DRUD     -1.67440      0.400000           0   0.00000       0.00000    
     11302 MEMB     63       POPE     O14      OD2C2B   0.798400       15.5994           0 -0.931000       1.08300    
     11303 MEMB     63       POPE     DO14     DRUD     -1.67440      0.400000           0   0.00000       0.00000    
     11304 MEMB     63       POPE     O11      OD30B     1.17720       15.5994           0 -0.901000      0.181000    
     11305 MEMB     63       POPE     DO11     DRUD     -1.64720      0.400000           0   0.00000       0.00000    
     11306 MEMB     63       POPE     O12      OD30B     1.17720       15.5994           0 -0.901000      0.181000    
     11307 MEMB     63       POPE     DO12     DRUD     -1.64720      0.400000           0   0.00000       0.00000    
     11308 MEMB     63       POPE     C1       CD32A     2.42220       11.6110           0  -1.64200      0.862000    
     11309 MEMB     63       POPE     DC1      DRUD     -2.22370      0.400000           0   0.00000       0.00000    
     11310 MEMB     63       POPE     HA       HDA2A    0.260000E-01   1.00800           0   0.00000       0.00000    
     11311 MEMB     63       POPE     HB       HDA2A    0.260000E-01   1.00800           0   0.00000       0.00000    
     11312 MEMB     63       POPE     C2       CD31C     2.52830       11.6110           0  -1.79700      0.410000    
     11313 MEMB     63       POPE     DC2      DRUD     -2.32630      0.400000           0   0.00000       0.00000    
     11314 MEMB     63       POPE     HS       HDA1A    0.116000       1.00800           0   0.00000       0.00000    
     11315 MEMB     63       POPE     O21      OD30CL    1.48470       15.5994           0 -0.732000      0.601000    
     11316 MEMB     63       POPE     DO21     DRUD     -1.48470      0.400000           0   0.00000       0.00000    
     11317 MEMB     63       POPE     C21      CD2O3B    2.72820       11.6110           0  -1.37000       1.74700    
     11318 MEMB     63       POPE     DC21     DRUD     -2.03120      0.400000           0   0.00000       0.00000    
     11319 MEMB     63       POPE     O22      OD2C3B    1.64990       15.5994           0 -0.904000      0.565000    
     11320 MEMB     63       POPE     DO22     DRUD     -1.64990      0.400000           0   0.00000       0.00000    
     11321 MEMB     63       POPE     C22      CD32C     2.24380       11.6110           0  -1.99300      0.410000    
     11322 MEMB     63       POPE     DC22     DRUD     -2.44980      0.400000           0   0.00000       0.00000    
     11323 MEMB     63       POPE     H2R      HDA2A    0.690000E-01   1.00800           0   0.00000       0.00000    
     11324 MEMB     63       POPE     H2S      HDA2A    0.690000E-01   1.00800           0   0.00000       0.00000    
     11325 MEMB     63       POPE     LP1A     LPD     -0.349000       0.00000          -1   0.00000       0.00000    
     11326 MEMB     63       POPE     LP1B     LPD     -0.258000       0.00000          -1   0.00000       0.00000    
     11327 MEMB     63       POPE     LPMA     LPD     -0.170000       0.00000          -1   0.00000       0.00000    
     11328 MEMB     63       POPE     LPMB     LPD     -0.170000       0.00000          -1   0.00000       0.00000    
     11329 MEMB     63       POPE     C3       CD32C     2.41230       11.6110           0  -1.79700      0.410000    
     11330 MEMB     63       POPE     DC3      DRUD     -2.32630      0.400000           0   0.00000       0.00000    
     11331 MEMB     63       POPE     HX       HDA2A    0.116000       1.00800           0   0.00000       0.00000    
     11332 MEMB     63       POPE     HY       HDA2A    0.116000       1.00800           0   0.00000       0.00000    
     11333 MEMB     63       POPE     O31      OD30CL    1.48470       15.5994           0 -0.732000      0.601000    
     11334 MEMB     63       POPE     DO31     DRUD     -1.48470      0.400000           0   0.00000       0.00000    
     11335 MEMB     63       POPE     C31      CD2O3B    2.72820       11.6110           0  -1.37000       1.74700    
     11336 MEMB     63       POPE     DC31     DRUD     -2.03120      0.400000           0   0.00000       0.00000    
     11337 MEMB     63       POPE     O32      OD2C3B    1.64990       15.5994           0 -0.904000      0.565000    
     11338 MEMB     63       POPE     DO32     DRUD     -1.64990      0.400000           0   0.00000       0.00000    
     11339 MEMB     63       POPE     C32      CD32C     2.24380       11.6110           0  -1.99300      0.410000    
     11340 MEMB     63       POPE     DC32     DRUD     -2.44980      0.400000           0   0.00000       0.00000    
     11341 MEMB     63       POPE     H2X      HDA2A    0.690000E-01   1.00800           0   0.00000       0.00000    
     11342 MEMB     63       POPE     H2Y      HDA2A    0.690000E-01   1.00800           0   0.00000       0.00000    
     11343 MEMB     63       POPE     LP1C     LPD     -0.349000       0.00000          -1   0.00000       0.00000    
     11344 MEMB     63       POPE     LP1D     LPD     -0.258000       0.00000          -1   0.00000       0.00000    
     11345 MEMB     63       POPE     LPMC     LPD     -0.170000       0.00000          -1   0.00000       0.00000    
     11346 MEMB     63       POPE     LPMD     LPD     -0.170000       0.00000          -1   0.00000       0.00000    
     11347 MEMB     63       POPE     C23      CD32A     2.07980       11.6110           0  -1.66000       1.30000    
     11348 MEMB     63       POPE     DC23     DRUD     -2.23580      0.400000           0   0.00000       0.00000    
     11349 MEMB     63       POPE     H3R      HDA2A    0.780000E-01   1.00800           0   0.00000       0.00000    
     11350 MEMB     63       POPE     H3S      HDA2A    0.780000E-01   1.00800           0   0.00000       0.00000    
     11351 MEMB     63       POPE     C24      CD32A     2.07980       11.6110           0  -1.66000       1.30000    
     11352 MEMB     63       POPE     DC24     DRUD     -2.23580      0.400000           0   0.00000       0.00000    
     11353 MEMB     63       POPE     H4R      HDA2A    0.780000E-01   1.00800           0   0.00000       0.00000    
     11354 MEMB     63       POPE     H4S      HDA2A    0.780000E-01   1.00800           0   0.00000       0.00000    
     11355 MEMB     63       POPE     C25      CD32A     2.07980       11.6110           0  -1.66000       1.30000    
     11356 MEMB     63       POPE     DC25     DRUD     -2.23580      0.400000           0   0.00000       0.00000    
     11357 MEMB     63       POPE     H5R      HDA2A    0.780000E-01   1.00800           0   0.00000       0.00000    
     11358 MEMB     63       POPE     H5S      HDA2A    0.780000E-01   1.00800           0   0.00000       0.00000    
     11359 MEMB     63       POPE     C26      CD32A     2.07980       11.6110           0  -1.66000       1.30000    
     11360 MEMB     63       POPE     DC26     DRUD     -2.23580      0.400000           0   0.00000       0.00000    
     11361 MEMB     63       POPE     H6R      HDA2A    0.780000E-01   1.00800           0   0.00000       0.00000    
     11362 MEMB     63       POPE     H6S      HDA2A    0.780000E-01   1.00800           0   0.00000       0.00000    
     11363 MEMB     63       POPE     C27      CD32A     2.07980       11.6110           0  -1.66000       1.30000    
     11364 MEMB     63       POPE     DC27     DRUD     -2.23580      0.400000           0   0.00000       0.00000    
     11365 MEMB     63       POPE     H7R      HDA2A    0.780000E-01   1.00800           0   0.00000       0.00000    
     11366 MEMB     63       POPE     H7S      HDA2A    0.780000E-01   1.00800           0   0.00000       0.00000    
     11367 MEMB     63       POPE     C28      CD32A     2.07980       11.6110           0  -1.66000       1.30000    
     11368 MEMB     63       POPE     DC28     DRUD     -2.23580      0.400000           0   0.00000       0.00000    
     11369 MEMB     63       POPE     H8R      HDA2A    0.780000E-01   1.00800           0   0.00000       0.00000    
     11370 MEMB     63       POPE     H8S      HDA2A    0.780000E-01   1.00800           0   0.00000       0.00000    
     11371 MEMB     63       POPE     C29      CD2C1A    2.33700       11.6110           0  -1.99000      0.750000    
     11372 MEMB     63       POPE     DC29     DRUD     -2.44800      0.400000           0   0.00000       0.00000    
     11373 MEMB     63       POPE     H91      HD2C1A   0.111000       1.00800           0   0.00000       0.00000    
     11374 MEMB     63       POPE     C210     CD2C1A    2.33700       11.6110           0  -1.99000      0.750000    
     11375 MEMB     63       POPE     DC210    DRUD     -2.44800      0.400000           0   0.00000       0.00000    
     11376 MEMB     63       POPE     H101     HD2C1A   0.111000       1.00800           0   0.00000       0.00000    
     11377 MEMB     63       POPE     C211     CD32A     2.07980       11.6110           0  -1.66000       1.30000    
     11378 MEMB     63       POPE     DC211    DRUD     -2.23580      0.400000           0   0.00000       0.00000    
     11379 MEMB     63       POPE     H11R     HDA2A    0.780000E-01   1.00800           0   0.00000       0.00000    
     11380 MEMB     63       POPE     H11S     HDA2A    0.780000E-01   1.00800           0   0.00000       0.00000    
     11381 MEMB     63       POPE     C212     CD32A     2.07980       11.6110           0  -1.66000       1.30000    
     11382 MEMB     63       POPE     DC212    DRUD     -2.23580      0.400000           0   0.00000       0.00000    
     11383 MEMB     63       POPE     H12R     HDA2A    0.780000E-01   1.00800           0   0.00000       0.00000    
     11384 MEMB     63       POPE     H12S     HDA2A    0.780000E-01   1.00800           0   0.00000       0.00000    
     11385 MEMB     63       POPE     C213     CD32A     2.07980       11.6110           0  -1.66000       1.30000    
     11386 MEMB     63       POPE     DC213    DRUD     -2.23580      0.400000           0   0.00000       0.00000    
     11387 MEMB     63       POPE     H13R     HDA2A    0.780000E-01   1.00800           0   0.00000       0.00000    
     11388 MEMB     63       POPE     H13S     HDA2A    0.780000E-01   1.00800           0   0.00000       0.00000    
     11389 MEMB     63       POPE     C214     CD32A     2.07980       11.6110           0  -1.66000       1.30000    
     11390 MEMB     63       POPE     DC214    DRUD     -2.23580      0.400000           0   0.00000       0.00000    
     11391 MEMB     63       POPE     H14R     HDA2A    0.780000E-01   1.00800           0   0.00000       0.00000    
     11392 MEMB     63       POPE     H14S     HDA2A    0.780000E-01   1.00800           0   0.00000       0.00000    
     11393 MEMB     63       POPE     C215     CD32A     2.07980       11.6110           0  -1.66000       1.30000    
     11394 MEMB     63       POPE     DC215    DRUD     -2.23580      0.400000           0   0.00000       0.00000    
     11395 MEMB     63       POPE     H15R     HDA2A    0.780000E-01   1.00800           0   0.00000       0.00000    
     11396 MEMB     63       POPE     H15S     HDA2A    0.780000E-01   1.00800           0   0.00000       0.00000    
     11397 MEMB     63       POPE     C216     CD32A     2.07980       11.6110           0  -1.66000       1.30000    
     11398 MEMB     63       POPE     DC216    DRUD     -2.23580      0.400000           0   0.00000       0.00000    
     11399 MEMB     63       POPE     H16R     HDA2A    0.780000E-01   1.00800           0   0.00000       0.00000    
     11400 MEMB     63       POPE     H16S     HDA2A    0.780000E-01   1.00800           0   0.00000       0.00000    
     11401 MEMB     63       POPE     C217     CD32A     2.07980       11.6110           0  -1.66000       1.30000    
     11402 MEMB     63       POPE     DC217    DRUD     -2.23580      0.400000           0   0.00000       0.00000    
     11403 MEMB     63       POPE     H17R     HDA2A    0.780000E-01   1.00800           0   0.00000       0.00000    
     11404 MEMB     63       POPE     H17S     HDA2A    0.780000E-01   1.00800           0   0.00000       0.00000    
     11405 MEMB     63       POPE     C218     CD33A     2.30820       11.6110           0  -2.05100       1.30000    
     11406 MEMB     63       POPE     DC218    DRUD     -2.48520      0.400000           0   0.00000       0.00000    
     11407 MEMB     63       POPE     H18R     HDA3A    0.590000E-01   1.00800           0   0.00000       0.00000    
     11408 MEMB     63       POPE     H18S     HDA3A    0.590000E-01   1.00800           0   0.00000       0.00000    
     11409 MEMB     63       POPE     H18T     HDA3A    0.590000E-01   1.00800           0   0.00000       0.00000    
     11410 MEMB     63       POPE     C33      CD32A     2.07980       11.6110           0  -1.66000       1.30000    
     11411 MEMB     63       POPE     DC33     DRUD     -2.23580      0.400000           0   0.00000       0.00000    
     11412 MEMB     63       POPE     H3X      HDA2A    0.780000E-01   1.00800           0   0.00000       0.00000    
     11413 MEMB     63       POPE     H3Y      HDA2A    0.780000E-01   1.00800           0   0.00000       0.00000    
     11414 MEMB     63       POPE     C34      CD32A     2.07980       11.6110           0  -1.66000       1.30000    
     11415 MEMB     63       POPE     DC34     DRUD     -2.23580      0.400000           0   0.00000       0.00000    
     11416 MEMB     63       POPE     H4X      HDA2A    0.780000E-01   1.00800           0   0.00000       0.00000    
     11417 MEMB     63       POPE     H4Y      HDA2A    0.780000E-01   1.00800           0   0.00000       0.00000    
     11418 MEMB     63       POPE     C35      CD32A     2.07980       11.6110           0  -1.66000       1.30000    
     11419 MEMB     63       POPE     DC35     DRUD     -2.23580      0.400000           0   0.00000       0.00000    
     11420 MEMB     63       POPE     H5X      HDA2A    0.780000E-01   1.00800           0   0.00000       0.00000    
     11421 MEMB     63       POPE     H5Y      HDA2A    0.780000E-01   1.00800           0   0.00000       0.00000    
     11422 MEMB     63       POPE     C36      CD32A     2.07980       11.6110           0  -1.66000       1.30000    
     11423 MEMB     63       POPE     DC36     DRUD     -2.23580      0.400000           0   0.00000       0.00000    
     11424 MEMB     63       POPE     H6X      HDA2A    0.780000E-01   1.00800           0   0.00000       0.00000    
     11425 MEMB     63       POPE     H6Y      HDA2A    0.780000E-01   1.00800           0   0.00000       0.00000    
     11426 MEMB     63       POPE     C37      CD32A     2.07980       11.6110           0  -1.66000       1.30000    
     11427 MEMB     63       POPE     DC37     DRUD     -2.23580      0.400000           0   0.00000       0.00000    
     11428 MEMB     63       POPE     H7X      HDA2A    0.780000E-01   1.00800           0   0.00000       0.00000    
     11429 MEMB     63       POPE     H7Y      HDA2A    0.780000E-01   1.00800           0   0.00000       0.00000    
     11430 MEMB     63       POPE     C38      CD32A     2.07980       11.6110           0  -1.66000       1.30000    
     11431 MEMB     63       POPE     DC38     DRUD     -2.23580      0.400000           0   0.00000       0.00000    
     11432 MEMB     63       POPE     H8X      HDA2A    0.780000E-01   1.00800           0   0.00000       0.00000    
     11433 MEMB     63       POPE     H8Y      HDA2A    0.780000E-01   1.00800           0   0.00000       0.00000    
     11434 MEMB     63       POPE     C39      CD32A     2.07980       11.6110           0  -1.66000       1.30000    
     11435 MEMB     63       POPE     DC39     DRUD     -2.23580      0.400000           0   0.00000       0.00000    
     11436 MEMB     63       POPE     H9X      HDA2A    0.780000E-01   1.00800           0   0.00000       0.00000    
     11437 MEMB     63       POPE     H9Y      HDA2A    0.780000E-01   1.00800           0   0.00000       0.00000    
     11438 MEMB     63       POPE     C310     CD32A     2.07980       11.6110           0  -1.66000       1.30000    
     11439 MEMB     63       POPE     DC310    DRUD     -2.23580      0.400000           0   0.00000       0.00000    
     11440 MEMB     63       POPE     H10X     HDA2A    0.780000E-01   1.00800           0   0.00000       0.00000    
     11441 MEMB     63       POPE     H10Y     HDA2A    0.780000E-01   1.00800           0   0.00000       0.00000    
     11442 MEMB     63       POPE     C311     CD32A     2.07980       11.6110           0  -1.66000       1.30000    
     11443 MEMB     63       POPE     DC311    DRUD     -2.23580      0.400000           0   0.00000       0.00000    
     11444 MEMB     63       POPE     H11X     HDA2A    0.780000E-01   1.00800           0   0.00000       0.00000    
     11445 MEMB     63       POPE     H11Y     HDA2A    0.780000E-01   1.00800           0   0.00000       0.00000    
     11446 MEMB     63       POPE     C312     CD32A     2.07980       11.6110           0  -1.66000       1.30000    
     11447 MEMB     63       POPE     DC312    DRUD     -2.23580      0.400000           0   0.00000       0.00000    
     11448 MEMB     63       POPE     H12X     HDA2A    0.780000E-01   1.00800           0   0.00000       0.00000    
     11449 MEMB     63       POPE     H12Y     HDA2A    0.780000E-01   1.00800           0   0.00000       0.00000    
     11450 MEMB     63       POPE     C313     CD32A     2.07980       11.6110           0  -1.66000       1.30000    
     11451 MEMB     63       POPE     DC313    DRUD     -2.23580      0.400000           0   0.00000       0.00000    
     11452 MEMB     63       POPE     H13X     HDA2A    0.780000E-01   1.00800           0   0.00000       0.00000    
     11453 MEMB     63       POPE     H13Y     HDA2A    0.780000E-01   1.00800           0   0.00000       0.00000    
     11454 MEMB     63       POPE     C314     CD32A     2.07980       11.6110           0  -1.66000       1.30000    
     11455 MEMB     63       POPE     DC314    DRUD     -2.23580      0.400000           0   0.00000       0.00000    
     11456 MEMB     63       POPE     H14X     HDA2A    0.780000E-01   1.00800           0   0.00000       0.00000    
     11457 MEMB     63       POPE     H14Y     HDA2A    0.780000E-01   1.00800           0   0.00000       0.00000    
     11458 MEMB     63       POPE     C315     CD32A     2.07980       11.6110           0  -1.66000       1.30000    
     11459 MEMB     63       POPE     DC315    DRUD     -2.23580      0.400000           0   0.00000       0.00000    
     11460 MEMB     63       POPE     H15X     HDA2A    0.780000E-01   1.00800           0   0.00000       0.00000    
     11461 MEMB     63       POPE     H15Y     HDA2A    0.780000E-01   1.00800           0   0.00000       0.00000    
     11462 MEMB     63       POPE     C316     CD33A     2.30820       11.6110           0  -2.05100       1.30000    
     11463 MEMB     63       POPE     DC316    DRUD     -2.48520      0.400000           0   0.00000       0.00000    
     11464 MEMB     63       POPE     H16X     HDA3A    0.590000E-01   1.00800           0   0.00000       0.00000    
     11465 MEMB     63       POPE     H16Y     HDA3A    0.590000E-01   1.00800           0   0.00000       0.00000    
     11466 MEMB     63       POPE     H16Z     HDA3A    0.590000E-01   1.00800           0   0.00000       0.00000    
     11467 MEMB     64       POPE     N        ND3P3A    1.62810       13.6070           0  -1.29800      0.895000    
     11468 MEMB     64       POPE     DN       DRUD     -1.97710      0.400000           0   0.00000       0.00000    
     11469 MEMB     64       POPE     HN1      HDP1B    0.340000       1.00800           0   0.00000       0.00000    
     11470 MEMB     64       POPE     HN2      HDP1B    0.340000       1.00800           0   0.00000       0.00000    
     11471 MEMB     64       POPE     HN3      HDP1B    0.340000       1.00800           0   0.00000       0.00000    
     11472 MEMB     64       POPE     C12      CD32A     2.27610       11.6110           0  -1.65600      0.895000    
     11473 MEMB     64       POPE     DC12     DRUD     -2.23310      0.400000           0   0.00000       0.00000    
     11474 MEMB     64       POPE     H12A     HDA2A    0.143000       1.00800           0   0.00000       0.00000    
     11475 MEMB     64       POPE     H12B     HDA2A    0.143000       1.00800           0   0.00000       0.00000    
     11476 MEMB     64       POPE     C11      CD32A     2.42220       11.6110           0  -1.64200      0.862000    
     11477 MEMB     64       POPE     DC11     DRUD     -2.22370      0.400000           0   0.00000       0.00000    
     11478 MEMB     64       POPE     H11A     HDA2A    0.260000E-01   1.00800           0   0.00000       0.00000    
     11479 MEMB     64       POPE     H11B     HDA2A    0.260000E-01   1.00800           0   0.00000       0.00000    
     11480 MEMB     64       POPE     P        PD1A      2.90360       30.5740           0 -0.974000       2.09800    
     11481 MEMB     64       POPE     DP       DRUD     -1.71260      0.400000           0   0.00000       0.00000    
     11482 MEMB     64       POPE     O13      OD2C2B   0.798400       15.5994           0 -0.931000       1.08300    
     11483 MEMB     64       POPE     DO13     DRUD     -1.67440      0.400000           0   0.00000       0.00000    
     11484 MEMB     64       POPE     O14      OD2C2B   0.798400       15.5994           0 -0.931000       1.08300    
     11485 MEMB     64       POPE     DO14     DRUD     -1.67440      0.400000           0   0.00000       0.00000    
     11486 MEMB     64       POPE     O11      OD30B     1.17720       15.5994           0 -0.901000      0.181000    
     11487 MEMB     64       POPE     DO11     DRUD     -1.64720      0.400000           0   0.00000       0.00000    
     11488 MEMB     64       POPE     O12      OD30B     1.17720       15.5994           0 -0.901000      0.181000    
     11489 MEMB     64       POPE     DO12     DRUD     -1.64720      0.400000           0   0.00000       0.00000    
     11490 MEMB     64       POPE     C1       CD32A     2.42220       11.6110           0  -1.64200      0.862000    
     11491 MEMB     64       POPE     DC1      DRUD     -2.22370      0.400000           0   0.00000       0.00000    
     11492 MEMB     64       POPE     HA       HDA2A    0.260000E-01   1.00800           0   0.00000       0.00000    
     11493 MEMB     64       POPE     HB       HDA2A    0.260000E-01   1.00800           0   0.00000       0.00000    
     11494 MEMB     64       POPE     C2       CD31C     2.52830       11.6110           0  -1.79700      0.410000    
     11495 MEMB     64       POPE     DC2      DRUD     -2.32630      0.400000           0   0.00000       0.00000    
     11496 MEMB     64       POPE     HS       HDA1A    0.116000       1.00800           0   0.00000       0.00000    
     11497 MEMB     64       POPE     O21      OD30CL    1.48470       15.5994           0 -0.732000      0.601000    
     11498 MEMB     64       POPE     DO21     DRUD     -1.48470      0.400000           0   0.00000       0.00000    
     11499 MEMB     64       POPE     C21      CD2O3B    2.72820       11.6110           0  -1.37000       1.74700    
     11500 MEMB     64       POPE     DC21     DRUD     -2.03120      0.400000           0   0.00000       0.00000    
     11501 MEMB     64       POPE     O22      OD2C3B    1.64990       15.5994           0 -0.904000      0.565000    
     11502 MEMB     64       POPE     DO22     DRUD     -1.64990      0.400000           0   0.00000       0.00000    
     11503 MEMB     64       POPE     C22      CD32C     2.24380       11.6110           0  -1.99300      0.410000    
     11504 MEMB     64       POPE     DC22     DRUD     -2.44980      0.400000           0   0.00000       0.00000    
     11505 MEMB     64       POPE     H2R      HDA2A    0.690000E-01   1.00800           0   0.00000       0.00000    
     11506 MEMB     64       POPE     H2S      HDA2A    0.690000E-01   1.00800           0   0.00000       0.00000    
     11507 MEMB     64       POPE     LP1A     LPD     -0.349000       0.00000          -1   0.00000       0.00000    
     11508 MEMB     64       POPE     LP1B     LPD     -0.258000       0.00000          -1   0.00000       0.00000    
     11509 MEMB     64       POPE     LPMA     LPD     -0.170000       0.00000          -1   0.00000       0.00000    
     11510 MEMB     64       POPE     LPMB     LPD     -0.170000       0.00000          -1   0.00000       0.00000    
     11511 MEMB     64       POPE     C3       CD32C     2.41230       11.6110           0  -1.79700      0.410000    
     11512 MEMB     64       POPE     DC3      DRUD     -2.32630      0.400000           0   0.00000       0.00000    
     11513 MEMB     64       POPE     HX       HDA2A    0.116000       1.00800           0   0.00000       0.00000    
     11514 MEMB     64       POPE     HY       HDA2A    0.116000       1.00800           0   0.00000       0.00000    
     11515 MEMB     64       POPE     O31      OD30CL    1.48470       15.5994           0 -0.732000      0.601000    
     11516 MEMB     64       POPE     DO31     DRUD     -1.48470      0.400000           0   0.00000       0.00000    
     11517 MEMB     64       POPE     C31      CD2O3B    2.72820       11.6110           0  -1.37000       1.74700    
     11518 MEMB     64       POPE     DC31     DRUD     -2.03120      0.400000           0   0.00000       0.00000    
     11519 MEMB     64       POPE     O32      OD2C3B    1.64990       15.5994           0 -0.904000      0.565000    
     11520 MEMB     64       POPE     DO32     DRUD     -1.64990      0.400000           0   0.00000       0.00000    
     11521 MEMB     64       POPE     C32      CD32C     2.24380       11.6110           0  -1.99300      0.410000    
     11522 MEMB     64       POPE     DC32     DRUD     -2.44980      0.400000           0   0.00000       0.00000    
     11523 MEMB     64       POPE     H2X      HDA2A    0.690000E-01   1.00800           0   0.00000       0.00000    
     11524 MEMB     64       POPE     H2Y      HDA2A    0.690000E-01   1.00800           0   0.00000       0.00000    
     11525 MEMB     64       POPE     LP1C     LPD     -0.349000       0.00000          -1   0.00000       0.00000    
     11526 MEMB     64       POPE     LP1D     LPD     -0.258000       0.00000          -1   0.00000       0.00000    
     11527 MEMB     64       POPE     LPMC     LPD     -0.170000       0.00000          -1   0.00000       0.00000    
     11528 MEMB     64       POPE     LPMD     LPD     -0.170000       0.00000          -1   0.00000       0.00000    
     11529 MEMB     64       POPE     C23      CD32A     2.07980       11.6110           0  -1.66000       1.30000    
     11530 MEMB     64       POPE     DC23     DRUD     -2.23580      0.400000           0   0.00000       0.00000    
     11531 MEMB     64       POPE     H3R      HDA2A    0.780000E-01   1.00800           0   0.00000       0.00000    
     11532 MEMB     64       POPE     H3S      HDA2A    0.780000E-01   1.00800           0   0.00000       0.00000    
     11533 MEMB     64       POPE     C24      CD32A     2.07980       11.6110           0  -1.66000       1.30000    
     11534 MEMB     64       POPE     DC24     DRUD     -2.23580      0.400000           0   0.00000       0.00000    
     11535 MEMB     64       POPE     H4R      HDA2A    0.780000E-01   1.00800           0   0.00000       0.00000    
     11536 MEMB     64       POPE     H4S      HDA2A    0.780000E-01   1.00800           0   0.00000       0.00000    
     11537 MEMB     64       POPE     C25      CD32A     2.07980       11.6110           0  -1.66000       1.30000    
     11538 MEMB     64       POPE     DC25     DRUD     -2.23580      0.400000           0   0.00000       0.00000    
     11539 MEMB     64       POPE     H5R      HDA2A    0.780000E-01   1.00800           0   0.00000       0.00000    
     11540 MEMB     64       POPE     H5S      HDA2A    0.780000E-01   1.00800           0   0.00000       0.00000    
     11541 MEMB     64       POPE     C26      CD32A     2.07980       11.6110           0  -1.66000       1.30000    
     11542 MEMB     64       POPE     DC26     DRUD     -2.23580      0.400000           0   0.00000       0.00000    
     11543 MEMB     64       POPE     H6R      HDA2A    0.780000E-01   1.00800           0   0.00000       0.00000    
     11544 MEMB     64       POPE     H6S      HDA2A    0.780000E-01   1.00800           0   0.00000       0.00000    
     11545 MEMB     64       POPE     C27      CD32A     2.07980       11.6110           0  -1.66000       1.30000    
     11546 MEMB     64       POPE     DC27     DRUD     -2.23580      0.400000           0   0.00000       0.00000    
     11547 MEMB     64       POPE     H7R      HDA2A    0.780000E-01   1.00800           0   0.00000       0.00000    
     11548 MEMB     64       POPE     H7S      HDA2A    0.780000E-01   1.00800           0   0.00000       0.00000    
     11549 MEMB     64       POPE     C28      CD32A     2.07980       11.6110           0  -1.66000       1.30000    
     11550 MEMB     64       POPE     DC28     DRUD     -2.23580      0.400000           0   0.00000       0.00000    
     11551 MEMB     64       POPE     H8R      HDA2A    0.780000E-01   1.00800           0   0.00000       0.00000    
     11552 MEMB     64       POPE     H8S      HDA2A    0.780000E-01   1.00800           0   0.00000       0.00000    
     11553 MEMB     64       POPE     C29      CD2C1A    2.33700       11.6110           0  -1.99000      0.750000    
     11554 MEMB     64       POPE     DC29     DRUD     -2.44800      0.400000           0   0.00000       0.00000    
     11555 MEMB     64       POPE     H91      HD2C1A   0.111000       1.00800           0   0.00000       0.00000    
     11556 MEMB     64       POPE     C210     CD2C1A    2.33700       11.6110           0  -1.99000      0.750000    
     11557 MEMB     64       POPE     DC210    DRUD     -2.44800      0.400000           0   0.00000       0.00000    
     11558 MEMB     64       POPE     H101     HD2C1A   0.111000       1.00800           0   0.00000       0.00000    
     11559 MEMB     64       POPE     C211     CD32A     2.07980       11.6110           0  -1.66000       1.30000    
     11560 MEMB     64       POPE     DC211    DRUD     -2.23580      0.400000           0   0.00000       0.00000    
     11561 MEMB     64       POPE     H11R     HDA2A    0.780000E-01   1.00800           0   0.00000       0.00000    
     11562 MEMB     64       POPE     H11S     HDA2A    0.780000E-01   1.00800           0   0.00000       0.00000    
     11563 MEMB     64       POPE     C212     CD32A     2.07980       11.6110           0  -1.66000       1.30000    
     11564 MEMB     64       POPE     DC212    DRUD     -2.23580      0.400000           0   0.00000       0.00000    
     11565 MEMB     64       POPE     H12R     HDA2A    0.780000E-01   1.00800           0   0.00000       0.00000    
     11566 MEMB     64       POPE     H12S     HDA2A    0.780000E-01   1.00800           0   0.00000       0.00000    
     11567 MEMB     64       POPE     C213     CD32A     2.07980       11.6110           0  -1.66000       1.30000    
     11568 MEMB     64       POPE     DC213    DRUD     -2.23580      0.400000           0   0.00000       0.00000    
     11569 MEMB     64       POPE     H13R     HDA2A    0.780000E-01   1.00800           0   0.00000       0.00000    
     11570 MEMB     64       POPE     H13S     HDA2A    0.780000E-01   1.00800           0   0.00000       0.00000    
     11571 MEMB     64       POPE     C214     CD32A     2.07980       11.6110           0  -1.66000       1.30000    
     11572 MEMB     64       POPE     DC214    DRUD     -2.23580      0.400000           0   0.00000       0.00000    
     11573 MEMB     64       POPE     H14R     HDA2A    0.780000E-01   1.00800           0   0.00000       0.00000    
     11574 MEMB     64       POPE     H14S     HDA2A    0.780000E-01   1.00800           0   0.00000       0.00000    
     11575 MEMB     64       POPE     C215     CD32A     2.07980       11.6110           0  -1.66000       1.30000    
     11576 MEMB     64       POPE     DC215    DRUD     -2.23580      0.400000           0   0.00000       0.00000    
     11577 MEMB     64       POPE     H15R     HDA2A    0.780000E-01   1.00800           0   0.00000       0.00000    
     11578 MEMB     64       POPE     H15S     HDA2A    0.780000E-01   1.00800           0   0.00000       0.00000    
     11579 MEMB     64       POPE     C216     CD32A     2.07980       11.6110           0  -1.66000       1.30000    
     11580 MEMB     64       POPE     DC216    DRUD     -2.23580      0.400000           0   0.00000       0.00000    
     11581 MEMB     64       POPE     H16R     HDA2A    0.780000E-01   1.00800           0   0.00000       0.00000    
     11582 MEMB     64       POPE     H16S     HDA2A    0.780000E-01   1.00800           0   0.00000       0.00000    
     11583 MEMB     64       POPE     C217     CD32A     2.07980       11.6110           0  -1.66000       1.30000    
     11584 MEMB     64       POPE     DC217    DRUD     -2.23580      0.400000           0   0.00000       0.00000    
     11585 MEMB     64       POPE     H17R     HDA2A    0.780000E-01   1.00800           0   0.00000       0.00000    
     11586 MEMB     64       POPE     H17S     HDA2A    0.780000E-01   1.00800           0   0.00000       0.00000    
     11587 MEMB     64       POPE     C218     CD33A     2.30820       11.6110           0  -2.05100       1.30000    
     11588 MEMB     64       POPE     DC218    DRUD     -2.48520      0.400000           0   0.00000       0.00000    
     11589 MEMB     64       POPE     H18R     HDA3A    0.590000E-01   1.00800           0   0.00000       0.00000    
     11590 MEMB     64       POPE     H18S     HDA3A    0.590000E-01   1.00800           0   0.00000       0.00000    
     11591 MEMB     64       POPE     H18T     HDA3A    0.590000E-01   1.00800           0   0.00000       0.00000    
     11592 MEMB     64       POPE     C33      CD32A     2.07980       11.6110           0  -1.66000       1.30000    
     11593 MEMB     64       POPE     DC33     DRUD     -2.23580      0.400000           0   0.00000       0.00000    
     11594 MEMB     64       POPE     H3X      HDA2A    0.780000E-01   1.00800           0   0.00000       0.00000    
     11595 MEMB     64       POPE     H3Y      HDA2A    0.780000E-01   1.00800           0   0.00000       0.00000    
     11596 MEMB     64       POPE     C34      CD32A     2.07980       11.6110           0  -1.66000       1.30000    
     11597 MEMB     64       POPE     DC34     DRUD     -2.23580      0.400000           0   0.00000       0.00000    
     11598 MEMB     64       POPE     H4X      HDA2A    0.780000E-01   1.00800           0   0.00000       0.00000    
     11599 MEMB     64       POPE     H4Y      HDA2A    0.780000E-01   1.00800           0   0.00000       0.00000    
     11600 MEMB     64       POPE     C35      CD32A     2.07980       11.6110           0  -1.66000       1.30000    
     11601 MEMB     64       POPE     DC35     DRUD     -2.23580      0.400000           0   0.00000       0.00000    
     11602 MEMB     64       POPE     H5X      HDA2A    0.780000E-01   1.00800           0   0.00000       0.00000    
     11603 MEMB     64       POPE     H5Y      HDA2A    0.780000E-01   1.00800           0   0.00000       0.00000    
     11604 MEMB     64       POPE     C36      CD32A     2.07980       11.6110           0  -1.66000       1.30000    
     11605 MEMB     64       POPE     DC36     DRUD     -2.23580      0.400000           0   0.00000       0.00000    
     11606 MEMB     64       POPE     H6X      HDA2A    0.780000E-01   1.00800           0   0.00000       0.00000    
     11607 MEMB     64       POPE     H6Y      HDA2A    0.780000E-01   1.00800           0   0.00000       0.00000    
     11608 MEMB     64       POPE     C37      CD32A     2.07980       11.6110           0  -1.66000       1.30000    
     11609 MEMB     64       POPE     DC37     DRUD     -2.23580      0.400000           0   0.00000       0.00000    
     11610 MEMB     64       POPE     H7X      HDA2A    0.780000E-01   1.00800           0   0.00000       0.00000    
     11611 MEMB     64       POPE     H7Y      HDA2A    0.780000E-01   1.00800           0   0.00000       0.00000    
     11612 MEMB     64       POPE     C38      CD32A     2.07980       11.6110           0  -1.66000       1.30000    
     11613 MEMB     64       POPE     DC38     DRUD     -2.23580      0.400000           0   0.00000       0.00000    
     11614 MEMB     64       POPE     H8X      HDA2A    0.780000E-01   1.00800           0   0.00000       0.00000    
     11615 MEMB     64       POPE     H8Y      HDA2A    0.780000E-01   1.00800           0   0.00000       0.00000    
     11616 MEMB     64       POPE     C39      CD32A     2.07980       11.6110           0  -1.66000       1.30000    
     11617 MEMB     64       POPE     DC39     DRUD     -2.23580      0.400000           0   0.00000       0.00000    
     11618 MEMB     64       POPE     H9X      HDA2A    0.780000E-01   1.00800           0   0.00000       0.00000    
     11619 MEMB     64       POPE     H9Y      HDA2A    0.780000E-01   1.00800           0   0.00000       0.00000    
     11620 MEMB     64       POPE     C310     CD32A     2.07980       11.6110           0  -1.66000       1.30000    
     11621 MEMB     64       POPE     DC310    DRUD     -2.23580      0.400000           0   0.00000       0.00000    
     11622 MEMB     64       POPE     H10X     HDA2A    0.780000E-01   1.00800           0   0.00000       0.00000    
     11623 MEMB     64       POPE     H10Y     HDA2A    0.780000E-01   1.00800           0   0.00000       0.00000    
     11624 MEMB     64       POPE     C311     CD32A     2.07980       11.6110           0  -1.66000       1.30000    
     11625 MEMB     64       POPE     DC311    DRUD     -2.23580      0.400000           0   0.00000       0.00000    
     11626 MEMB     64       POPE     H11X     HDA2A    0.780000E-01   1.00800           0   0.00000       0.00000    
     11627 MEMB     64       POPE     H11Y     HDA2A    0.780000E-01   1.00800           0   0.00000       0.00000    
     11628 MEMB     64       POPE     C312     CD32A     2.07980       11.6110           0  -1.66000       1.30000    
     11629 MEMB     64       POPE     DC312    DRUD     -2.23580      0.400000           0   0.00000       0.00000    
     11630 MEMB     64       POPE     H12X     HDA2A    0.780000E-01   1.00800           0   0.00000       0.00000    
     11631 MEMB     64       POPE     H12Y     HDA2A    0.780000E-01   1.00800           0   0.00000       0.00000    
     11632 MEMB     64       POPE     C313     CD32A     2.07980       11.6110           0  -1.66000       1.30000    
     11633 MEMB     64       POPE     DC313    DRUD     -2.23580      0.400000           0   0.00000       0.00000    
     11634 MEMB     64       POPE     H13X     HDA2A    0.780000E-01   1.00800           0   0.00000       0.00000    
     11635 MEMB     64       POPE     H13Y     HDA2A    0.780000E-01   1.00800           0   0.00000       0.00000    
     11636 MEMB     64       POPE     C314     CD32A     2.07980       11.6110           0  -1.66000       1.30000    
     11637 MEMB     64       POPE     DC314    DRUD     -2.23580      0.400000           0   0.00000       0.00000    
     11638 MEMB     64       POPE     H14X     HDA2A    0.780000E-01   1.00800           0   0.00000       0.00000    
     11639 MEMB     64       POPE     H14Y     HDA2A    0.780000E-01   1.00800           0   0.00000       0.00000    
     11640 MEMB     64       POPE     C315     CD32A     2.07980       11.6110           0  -1.66000       1.30000    
     11641 MEMB     64       POPE     DC315    DRUD     -2.23580      0.400000           0   0.00000       0.00000    
     11642 MEMB     64       POPE     H15X     HDA2A    0.780000E-01   1.00800           0   0.00000       0.00000    
     11643 MEMB     64       POPE     H15Y     HDA2A    0.780000E-01   1.00800           0   0.00000       0.00000    
     11644 MEMB     64       POPE     C316     CD33A     2.30820       11.6110           0  -2.05100       1.30000    
     11645 MEMB     64       POPE     DC316    DRUD     -2.48520      0.400000           0   0.00000       0.00000    
     11646 MEMB     64       POPE     H16X     HDA3A    0.590000E-01   1.00800           0   0.00000       0.00000    
     11647 MEMB     64       POPE     H16Y     HDA3A    0.590000E-01   1.00800           0   0.00000       0.00000    
     11648 MEMB     64       POPE     H16Z     HDA3A    0.590000E-01   1.00800           0   0.00000       0.00000    
     11649 MEMB     65       POPE     N        ND3P3A    1.62810       13.6070           0  -1.29800      0.895000    
     11650 MEMB     65       POPE     DN       DRUD     -1.97710      0.400000           0   0.00000       0.00000    
     11651 MEMB     65       POPE     HN1      HDP1B    0.340000       1.00800           0   0.00000       0.00000    
     11652 MEMB     65       POPE     HN2      HDP1B    0.340000       1.00800           0   0.00000       0.00000    
     11653 MEMB     65       POPE     HN3      HDP1B    0.340000       1.00800           0   0.00000       0.00000    
     11654 MEMB     65       POPE     C12      CD32A     2.27610       11.6110           0  -1.65600      0.895000    
     11655 MEMB     65       POPE     DC12     DRUD     -2.23310      0.400000           0   0.00000       0.00000    
     11656 MEMB     65       POPE     H12A     HDA2A    0.143000       1.00800           0   0.00000       0.00000    
     11657 MEMB     65       POPE     H12B     HDA2A    0.143000       1.00800           0   0.00000       0.00000    
     11658 MEMB     65       POPE     C11      CD32A     2.42220       11.6110           0  -1.64200      0.862000    
     11659 MEMB     65       POPE     DC11     DRUD     -2.22370      0.400000           0   0.00000       0.00000    
     11660 MEMB     65       POPE     H11A     HDA2A    0.260000E-01   1.00800           0   0.00000       0.00000    
     11661 MEMB     65       POPE     H11B     HDA2A    0.260000E-01   1.00800           0   0.00000       0.00000    
     11662 MEMB     65       POPE     P        PD1A      2.90360       30.5740           0 -0.974000       2.09800    
     11663 MEMB     65       POPE     DP       DRUD     -1.71260      0.400000           0   0.00000       0.00000    
     11664 MEMB     65       POPE     O13      OD2C2B   0.798400       15.5994           0 -0.931000       1.08300    
     11665 MEMB     65       POPE     DO13     DRUD     -1.67440      0.400000           0   0.00000       0.00000    
     11666 MEMB     65       POPE     O14      OD2C2B   0.798400       15.5994           0 -0.931000       1.08300    
     11667 MEMB     65       POPE     DO14     DRUD     -1.67440      0.400000           0   0.00000       0.00000    
     11668 MEMB     65       POPE     O11      OD30B     1.17720       15.5994           0 -0.901000      0.181000    
     11669 MEMB     65       POPE     DO11     DRUD     -1.64720      0.400000           0   0.00000       0.00000    
     11670 MEMB     65       POPE     O12      OD30B     1.17720       15.5994           0 -0.901000      0.181000    
     11671 MEMB     65       POPE     DO12     DRUD     -1.64720      0.400000           0   0.00000       0.00000    
     11672 MEMB     65       POPE     C1       CD32A     2.42220       11.6110           0  -1.64200      0.862000    
     11673 MEMB     65       POPE     DC1      DRUD     -2.22370      0.400000           0   0.00000       0.00000    
     11674 MEMB     65       POPE     HA       HDA2A    0.260000E-01   1.00800           0   0.00000       0.00000    
     11675 MEMB     65       POPE     HB       HDA2A    0.260000E-01   1.00800           0   0.00000       0.00000    
     11676 MEMB     65       POPE     C2       CD31C     2.52830       11.6110           0  -1.79700      0.410000    
     11677 MEMB     65       POPE     DC2      DRUD     -2.32630      0.400000           0   0.00000       0.00000    
     11678 MEMB     65       POPE     HS       HDA1A    0.116000       1.00800           0   0.00000       0.00000    
     11679 MEMB     65       POPE     O21      OD30CL    1.48470       15.5994           0 -0.732000      0.601000    
     11680 MEMB     65       POPE     DO21     DRUD     -1.48470      0.400000           0   0.00000       0.00000    
     11681 MEMB     65       POPE     C21      CD2O3B    2.72820       11.6110           0  -1.37000       1.74700    
     11682 MEMB     65       POPE     DC21     DRUD     -2.03120      0.400000           0   0.00000       0.00000    
     11683 MEMB     65       POPE     O22      OD2C3B    1.64990       15.5994           0 -0.904000      0.565000    
     11684 MEMB     65       POPE     DO22     DRUD     -1.64990      0.400000           0   0.00000       0.00000    
     11685 MEMB     65       POPE     C22      CD32C     2.24380       11.6110           0  -1.99300      0.410000    
     11686 MEMB     65       POPE     DC22     DRUD     -2.44980      0.400000           0   0.00000       0.00000    
     11687 MEMB     65       POPE     H2R      HDA2A    0.690000E-01   1.00800           0   0.00000       0.00000    
     11688 MEMB     65       POPE     H2S      HDA2A    0.690000E-01   1.00800           0   0.00000       0.00000    
     11689 MEMB     65       POPE     LP1A     LPD     -0.349000       0.00000          -1   0.00000       0.00000    
     11690 MEMB     65       POPE     LP1B     LPD     -0.258000       0.00000          -1   0.00000       0.00000    
     11691 MEMB     65       POPE     LPMA     LPD     -0.170000       0.00000          -1   0.00000       0.00000    
     11692 MEMB     65       POPE     LPMB     LPD     -0.170000       0.00000          -1   0.00000       0.00000    
     11693 MEMB     65       POPE     C3       CD32C     2.41230       11.6110           0  -1.79700      0.410000    
     11694 MEMB     65       POPE     DC3      DRUD     -2.32630      0.400000           0   0.00000       0.00000    
     11695 MEMB     65       POPE     HX       HDA2A    0.116000       1.00800           0   0.00000       0.00000    
     11696 MEMB     65       POPE     HY       HDA2A    0.116000       1.00800           0   0.00000       0.00000    
     11697 MEMB     65       POPE     O31      OD30CL    1.48470       15.5994           0 -0.732000      0.601000    
     11698 MEMB     65       POPE     DO31     DRUD     -1.48470      0.400000           0   0.00000       0.00000    
     11699 MEMB     65       POPE     C31      CD2O3B    2.72820       11.6110           0  -1.37000       1.74700    
     11700 MEMB     65       POPE     DC31     DRUD     -2.03120      0.400000           0   0.00000       0.00000    
     11701 MEMB     65       POPE     O32      OD2C3B    1.64990       15.5994           0 -0.904000      0.565000    
     11702 MEMB     65       POPE     DO32     DRUD     -1.64990      0.400000           0   0.00000       0.00000    
     11703 MEMB     65       POPE     C32      CD32C     2.24380       11.6110           0  -1.99300      0.410000    
     11704 MEMB     65       POPE     DC32     DRUD     -2.44980      0.400000           0   0.00000       0.00000    
     11705 MEMB     65       POPE     H2X      HDA2A    0.690000E-01   1.00800           0   0.00000       0.00000    
     11706 MEMB     65       POPE     H2Y      HDA2A    0.690000E-01   1.00800           0   0.00000       0.00000    
     11707 MEMB     65       POPE     LP1C     LPD     -0.349000       0.00000          -1   0.00000       0.00000    
     11708 MEMB     65       POPE     LP1D     LPD     -0.258000       0.00000          -1   0.00000       0.00000    
     11709 MEMB     65       POPE     LPMC     LPD     -0.170000       0.00000          -1   0.00000       0.00000    
     11710 MEMB     65       POPE     LPMD     LPD     -0.170000       0.00000          -1   0.00000       0.00000    
     11711 MEMB     65       POPE     C23      CD32A     2.07980       11.6110           0  -1.66000       1.30000    
     11712 MEMB     65       POPE     DC23     DRUD     -2.23580      0.400000           0   0.00000       0.00000    
     11713 MEMB     65       POPE     H3R      HDA2A    0.780000E-01   1.00800           0   0.00000       0.00000    
     11714 MEMB     65       POPE     H3S      HDA2A    0.780000E-01   1.00800           0   0.00000       0.00000    
     11715 MEMB     65       POPE     C24      CD32A     2.07980       11.6110           0  -1.66000       1.30000    
     11716 MEMB     65       POPE     DC24     DRUD     -2.23580      0.400000           0   0.00000       0.00000    
     11717 MEMB     65       POPE     H4R      HDA2A    0.780000E-01   1.00800           0   0.00000       0.00000    
     11718 MEMB     65       POPE     H4S      HDA2A    0.780000E-01   1.00800           0   0.00000       0.00000    
     11719 MEMB     65       POPE     C25      CD32A     2.07980       11.6110           0  -1.66000       1.30000    
     11720 MEMB     65       POPE     DC25     DRUD     -2.23580      0.400000           0   0.00000       0.00000    
     11721 MEMB     65       POPE     H5R      HDA2A    0.780000E-01   1.00800           0   0.00000       0.00000    
     11722 MEMB     65       POPE     H5S      HDA2A    0.780000E-01   1.00800           0   0.00000       0.00000    
     11723 MEMB     65       POPE     C26      CD32A     2.07980       11.6110           0  -1.66000       1.30000    
     11724 MEMB     65       POPE     DC26     DRUD     -2.23580      0.400000           0   0.00000       0.00000    
     11725 MEMB     65       POPE     H6R      HDA2A    0.780000E-01   1.00800           0   0.00000       0.00000    
     11726 MEMB     65       POPE     H6S      HDA2A    0.780000E-01   1.00800           0   0.00000       0.00000    
     11727 MEMB     65       POPE     C27      CD32A     2.07980       11.6110           0  -1.66000       1.30000    
     11728 MEMB     65       POPE     DC27     DRUD     -2.23580      0.400000           0   0.00000       0.00000    
     11729 MEMB     65       POPE     H7R      HDA2A    0.780000E-01   1.00800           0   0.00000       0.00000    
     11730 MEMB     65       POPE     H7S      HDA2A    0.780000E-01   1.00800           0   0.00000       0.00000    
     11731 MEMB     65       POPE     C28      CD32A     2.07980       11.6110           0  -1.66000       1.30000    
     11732 MEMB     65       POPE     DC28     DRUD     -2.23580      0.400000           0   0.00000       0.00000    
     11733 MEMB     65       POPE     H8R      HDA2A    0.780000E-01   1.00800           0   0.00000       0.00000    
     11734 MEMB     65       POPE     H8S      HDA2A    0.780000E-01   1.00800           0   0.00000       0.00000    
     11735 MEMB     65       POPE     C29      CD2C1A    2.33700       11.6110           0  -1.99000      0.750000    
     11736 MEMB     65       POPE     DC29     DRUD     -2.44800      0.400000           0   0.00000       0.00000    
     11737 MEMB     65       POPE     H91      HD2C1A   0.111000       1.00800           0   0.00000       0.00000    
     11738 MEMB     65       POPE     C210     CD2C1A    2.33700       11.6110           0  -1.99000      0.750000    
     11739 MEMB     65       POPE     DC210    DRUD     -2.44800      0.400000           0   0.00000       0.00000    
     11740 MEMB     65       POPE     H101     HD2C1A   0.111000       1.00800           0   0.00000       0.00000    
     11741 MEMB     65       POPE     C211     CD32A     2.07980       11.6110           0  -1.66000       1.30000    
     11742 MEMB     65       POPE     DC211    DRUD     -2.23580      0.400000           0   0.00000       0.00000    
     11743 MEMB     65       POPE     H11R     HDA2A    0.780000E-01   1.00800           0   0.00000       0.00000    
     11744 MEMB     65       POPE     H11S     HDA2A    0.780000E-01   1.00800           0   0.00000       0.00000    
     11745 MEMB     65       POPE     C212     CD32A     2.07980       11.6110           0  -1.66000       1.30000    
     11746 MEMB     65       POPE     DC212    DRUD     -2.23580      0.400000           0   0.00000       0.00000    
     11747 MEMB     65       POPE     H12R     HDA2A    0.780000E-01   1.00800           0   0.00000       0.00000    
     11748 MEMB     65       POPE     H12S     HDA2A    0.780000E-01   1.00800           0   0.00000       0.00000    
     11749 MEMB     65       POPE     C213     CD32A     2.07980       11.6110           0  -1.66000       1.30000    
     11750 MEMB     65       POPE     DC213    DRUD     -2.23580      0.400000           0   0.00000       0.00000    
     11751 MEMB     65       POPE     H13R     HDA2A    0.780000E-01   1.00800           0   0.00000       0.00000    
     11752 MEMB     65       POPE     H13S     HDA2A    0.780000E-01   1.00800           0   0.00000       0.00000    
     11753 MEMB     65       POPE     C214     CD32A     2.07980       11.6110           0  -1.66000       1.30000    
     11754 MEMB     65       POPE     DC214    DRUD     -2.23580      0.400000           0   0.00000       0.00000    
     11755 MEMB     65       POPE     H14R     HDA2A    0.780000E-01   1.00800           0   0.00000       0.00000    
     11756 MEMB     65       POPE     H14S     HDA2A    0.780000E-01   1.00800           0   0.00000       0.00000    
     11757 MEMB     65       POPE     C215     CD32A     2.07980       11.6110           0  -1.66000       1.30000    
     11758 MEMB     65       POPE     DC215    DRUD     -2.23580      0.400000           0   0.00000       0.00000    
     11759 MEMB     65       POPE     H15R     HDA2A    0.780000E-01   1.00800           0   0.00000       0.00000    
     11760 MEMB     65       POPE     H15S     HDA2A    0.780000E-01   1.00800           0   0.00000       0.00000    
     11761 MEMB     65       POPE     C216     CD32A     2.07980       11.6110           0  -1.66000       1.30000    
     11762 MEMB     65       POPE     DC216    DRUD     -2.23580      0.400000           0   0.00000       0.00000    
     11763 MEMB     65       POPE     H16R     HDA2A    0.780000E-01   1.00800           0   0.00000       0.00000    
     11764 MEMB     65       POPE     H16S     HDA2A    0.780000E-01   1.00800           0   0.00000       0.00000    
     11765 MEMB     65       POPE     C217     CD32A     2.07980       11.6110           0  -1.66000       1.30000    
     11766 MEMB     65       POPE     DC217    DRUD     -2.23580      0.400000           0   0.00000       0.00000    
     11767 MEMB     65       POPE     H17R     HDA2A    0.780000E-01   1.00800           0   0.00000       0.00000    
     11768 MEMB     65       POPE     H17S     HDA2A    0.780000E-01   1.00800           0   0.00000       0.00000    
     11769 MEMB     65       POPE     C218     CD33A     2.30820       11.6110           0  -2.05100       1.30000    
     11770 MEMB     65       POPE     DC218    DRUD     -2.48520      0.400000           0   0.00000       0.00000    
     11771 MEMB     65       POPE     H18R     HDA3A    0.590000E-01   1.00800           0   0.00000       0.00000    
     11772 MEMB     65       POPE     H18S     HDA3A    0.590000E-01   1.00800           0   0.00000       0.00000    
     11773 MEMB     65       POPE     H18T     HDA3A    0.590000E-01   1.00800           0   0.00000       0.00000    
     11774 MEMB     65       POPE     C33      CD32A     2.07980       11.6110           0  -1.66000       1.30000    
     11775 MEMB     65       POPE     DC33     DRUD     -2.23580      0.400000           0   0.00000       0.00000    
     11776 MEMB     65       POPE     H3X      HDA2A    0.780000E-01   1.00800           0   0.00000       0.00000    
     11777 MEMB     65       POPE     H3Y      HDA2A    0.780000E-01   1.00800           0   0.00000       0.00000    
     11778 MEMB     65       POPE     C34      CD32A     2.07980       11.6110           0  -1.66000       1.30000    
     11779 MEMB     65       POPE     DC34     DRUD     -2.23580      0.400000           0   0.00000       0.00000    
     11780 MEMB     65       POPE     H4X      HDA2A    0.780000E-01   1.00800           0   0.00000       0.00000    
     11781 MEMB     65       POPE     H4Y      HDA2A    0.780000E-01   1.00800           0   0.00000       0.00000    
     11782 MEMB     65       POPE     C35      CD32A     2.07980       11.6110           0  -1.66000       1.30000    
     11783 MEMB     65       POPE     DC35     DRUD     -2.23580      0.400000           0   0.00000       0.00000    
     11784 MEMB     65       POPE     H5X      HDA2A    0.780000E-01   1.00800           0   0.00000       0.00000    
     11785 MEMB     65       POPE     H5Y      HDA2A    0.780000E-01   1.00800           0   0.00000       0.00000    
     11786 MEMB     65       POPE     C36      CD32A     2.07980       11.6110           0  -1.66000       1.30000    
     11787 MEMB     65       POPE     DC36     DRUD     -2.23580      0.400000           0   0.00000       0.00000    
     11788 MEMB     65       POPE     H6X      HDA2A    0.780000E-01   1.00800           0   0.00000       0.00000    
     11789 MEMB     65       POPE     H6Y      HDA2A    0.780000E-01   1.00800           0   0.00000       0.00000    
     11790 MEMB     65       POPE     C37      CD32A     2.07980       11.6110           0  -1.66000       1.30000    
     11791 MEMB     65       POPE     DC37     DRUD     -2.23580      0.400000           0   0.00000       0.00000    
     11792 MEMB     65       POPE     H7X      HDA2A    0.780000E-01   1.00800           0   0.00000       0.00000    
     11793 MEMB     65       POPE     H7Y      HDA2A    0.780000E-01   1.00800           0   0.00000       0.00000    
     11794 MEMB     65       POPE     C38      CD32A     2.07980       11.6110           0  -1.66000       1.30000    
     11795 MEMB     65       POPE     DC38     DRUD     -2.23580      0.400000           0   0.00000       0.00000    
     11796 MEMB     65       POPE     H8X      HDA2A    0.780000E-01   1.00800           0   0.00000       0.00000    
     11797 MEMB     65       POPE     H8Y      HDA2A    0.780000E-01   1.00800           0   0.00000       0.00000    
     11798 MEMB     65       POPE     C39      CD32A     2.07980       11.6110           0  -1.66000       1.30000    
     11799 MEMB     65       POPE     DC39     DRUD     -2.23580      0.400000           0   0.00000       0.00000    
     11800 MEMB     65       POPE     H9X      HDA2A    0.780000E-01   1.00800           0   0.00000       0.00000    
     11801 MEMB     65       POPE     H9Y      HDA2A    0.780000E-01   1.00800           0   0.00000       0.00000    
     11802 MEMB     65       POPE     C310     CD32A     2.07980       11.6110           0  -1.66000       1.30000    
     11803 MEMB     65       POPE     DC310    DRUD     -2.23580      0.400000           0   0.00000       0.00000    
     11804 MEMB     65       POPE     H10X     HDA2A    0.780000E-01   1.00800           0   0.00000       0.00000    
     11805 MEMB     65       POPE     H10Y     HDA2A    0.780000E-01   1.00800           0   0.00000       0.00000    
     11806 MEMB     65       POPE     C311     CD32A     2.07980       11.6110           0  -1.66000       1.30000    
     11807 MEMB     65       POPE     DC311    DRUD     -2.23580      0.400000           0   0.00000       0.00000    
     11808 MEMB     65       POPE     H11X     HDA2A    0.780000E-01   1.00800           0   0.00000       0.00000    
     11809 MEMB     65       POPE     H11Y     HDA2A    0.780000E-01   1.00800           0   0.00000       0.00000    
     11810 MEMB     65       POPE     C312     CD32A     2.07980       11.6110           0  -1.66000       1.30000    
     11811 MEMB     65       POPE     DC312    DRUD     -2.23580      0.400000           0   0.00000       0.00000    
     11812 MEMB     65       POPE     H12X     HDA2A    0.780000E-01   1.00800           0   0.00000       0.00000    
     11813 MEMB     65       POPE     H12Y     HDA2A    0.780000E-01   1.00800           0   0.00000       0.00000    
     11814 MEMB     65       POPE     C313     CD32A     2.07980       11.6110           0  -1.66000       1.30000    
     11815 MEMB     65       POPE     DC313    DRUD     -2.23580      0.400000           0   0.00000       0.00000    
     11816 MEMB     65       POPE     H13X     HDA2A    0.780000E-01   1.00800           0   0.00000       0.00000    
     11817 MEMB     65       POPE     H13Y     HDA2A    0.780000E-01   1.00800           0   0.00000       0.00000    
     11818 MEMB     65       POPE     C314     CD32A     2.07980       11.6110           0  -1.66000       1.30000    
     11819 MEMB     65       POPE     DC314    DRUD     -2.23580      0.400000           0   0.00000       0.00000    
     11820 MEMB     65       POPE     H14X     HDA2A    0.780000E-01   1.00800           0   0.00000       0.00000    
     11821 MEMB     65       POPE     H14Y     HDA2A    0.780000E-01   1.00800           0   0.00000       0.00000    
     11822 MEMB     65       POPE     C315     CD32A     2.07980       11.6110           0  -1.66000       1.30000    
     11823 MEMB     65       POPE     DC315    DRUD     -2.23580      0.400000           0   0.00000       0.00000    
     11824 MEMB     65       POPE     H15X     HDA2A    0.780000E-01   1.00800           0   0.00000       0.00000    
     11825 MEMB     65       POPE     H15Y     HDA2A    0.780000E-01   1.00800           0   0.00000       0.00000    
     11826 MEMB     65       POPE     C316     CD33A     2.30820       11.6110           0  -2.05100       1.30000    
     11827 MEMB     65       POPE     DC316    DRUD     -2.48520      0.400000           0   0.00000       0.00000    
     11828 MEMB     65       POPE     H16X     HDA3A    0.590000E-01   1.00800           0   0.00000       0.00000    
     11829 MEMB     65       POPE     H16Y     HDA3A    0.590000E-01   1.00800           0   0.00000       0.00000    
     11830 MEMB     65       POPE     H16Z     HDA3A    0.590000E-01   1.00800           0   0.00000       0.00000    
     11831 MEMB     66       POPE     N        ND3P3A    1.62810       13.6070           0  -1.29800      0.895000    
     11832 MEMB     66       POPE     DN       DRUD     -1.97710      0.400000           0   0.00000       0.00000    
     11833 MEMB     66       POPE     HN1      HDP1B    0.340000       1.00800           0   0.00000       0.00000    
     11834 MEMB     66       POPE     HN2      HDP1B    0.340000       1.00800           0   0.00000       0.00000    
     11835 MEMB     66       POPE     HN3      HDP1B    0.340000       1.00800           0   0.00000       0.00000    
     11836 MEMB     66       POPE     C12      CD32A     2.27610       11.6110           0  -1.65600      0.895000    
     11837 MEMB     66       POPE     DC12     DRUD     -2.23310      0.400000           0   0.00000       0.00000    
     11838 MEMB     66       POPE     H12A     HDA2A    0.143000       1.00800           0   0.00000       0.00000    
     11839 MEMB     66       POPE     H12B     HDA2A    0.143000       1.00800           0   0.00000       0.00000    
     11840 MEMB     66       POPE     C11      CD32A     2.42220       11.6110           0  -1.64200      0.862000    
     11841 MEMB     66       POPE     DC11     DRUD     -2.22370      0.400000           0   0.00000       0.00000    
     11842 MEMB     66       POPE     H11A     HDA2A    0.260000E-01   1.00800           0   0.00000       0.00000    
     11843 MEMB     66       POPE     H11B     HDA2A    0.260000E-01   1.00800           0   0.00000       0.00000    
     11844 MEMB     66       POPE     P        PD1A      2.90360       30.5740           0 -0.974000       2.09800    
     11845 MEMB     66       POPE     DP       DRUD     -1.71260      0.400000           0   0.00000       0.00000    
     11846 MEMB     66       POPE     O13      OD2C2B   0.798400       15.5994           0 -0.931000       1.08300    
     11847 MEMB     66       POPE     DO13     DRUD     -1.67440      0.400000           0   0.00000       0.00000    
     11848 MEMB     66       POPE     O14      OD2C2B   0.798400       15.5994           0 -0.931000       1.08300    
     11849 MEMB     66       POPE     DO14     DRUD     -1.67440      0.400000           0   0.00000       0.00000    
     11850 MEMB     66       POPE     O11      OD30B     1.17720       15.5994           0 -0.901000      0.181000    
     11851 MEMB     66       POPE     DO11     DRUD     -1.64720      0.400000           0   0.00000       0.00000    
     11852 MEMB     66       POPE     O12      OD30B     1.17720       15.5994           0 -0.901000      0.181000    
     11853 MEMB     66       POPE     DO12     DRUD     -1.64720      0.400000           0   0.00000       0.00000    
     11854 MEMB     66       POPE     C1       CD32A     2.42220       11.6110           0  -1.64200      0.862000    
     11855 MEMB     66       POPE     DC1      DRUD     -2.22370      0.400000           0   0.00000       0.00000    
     11856 MEMB     66       POPE     HA       HDA2A    0.260000E-01   1.00800           0   0.00000       0.00000    
     11857 MEMB     66       POPE     HB       HDA2A    0.260000E-01   1.00800           0   0.00000       0.00000    
     11858 MEMB     66       POPE     C2       CD31C     2.52830       11.6110           0  -1.79700      0.410000    
     11859 MEMB     66       POPE     DC2      DRUD     -2.32630      0.400000           0   0.00000       0.00000    
     11860 MEMB     66       POPE     HS       HDA1A    0.116000       1.00800           0   0.00000       0.00000    
     11861 MEMB     66       POPE     O21      OD30CL    1.48470       15.5994           0 -0.732000      0.601000    
     11862 MEMB     66       POPE     DO21     DRUD     -1.48470      0.400000           0   0.00000       0.00000    
     11863 MEMB     66       POPE     C21      CD2O3B    2.72820       11.6110           0  -1.37000       1.74700    
     11864 MEMB     66       POPE     DC21     DRUD     -2.03120      0.400000           0   0.00000       0.00000    
     11865 MEMB     66       POPE     O22      OD2C3B    1.64990       15.5994           0 -0.904000      0.565000    
     11866 MEMB     66       POPE     DO22     DRUD     -1.64990      0.400000           0   0.00000       0.00000    
     11867 MEMB     66       POPE     C22      CD32C     2.24380       11.6110           0  -1.99300      0.410000    
     11868 MEMB     66       POPE     DC22     DRUD     -2.44980      0.400000           0   0.00000       0.00000    
     11869 MEMB     66       POPE     H2R      HDA2A    0.690000E-01   1.00800           0   0.00000       0.00000    
     11870 MEMB     66       POPE     H2S      HDA2A    0.690000E-01   1.00800           0   0.00000       0.00000    
     11871 MEMB     66       POPE     LP1A     LPD     -0.349000       0.00000          -1   0.00000       0.00000    
     11872 MEMB     66       POPE     LP1B     LPD     -0.258000       0.00000          -1   0.00000       0.00000    
     11873 MEMB     66       POPE     LPMA     LPD     -0.170000       0.00000          -1   0.00000       0.00000    
     11874 MEMB     66       POPE     LPMB     LPD     -0.170000       0.00000          -1   0.00000       0.00000    
     11875 MEMB     66       POPE     C3       CD32C     2.41230       11.6110           0  -1.79700      0.410000    
     11876 MEMB     66       POPE     DC3      DRUD     -2.32630      0.400000           0   0.00000       0.00000    
     11877 MEMB     66       POPE     HX       HDA2A    0.116000       1.00800           0   0.00000       0.00000    
     11878 MEMB     66       POPE     HY       HDA2A    0.116000       1.00800           0   0.00000       0.00000    
     11879 MEMB     66       POPE     O31      OD30CL    1.48470       15.5994           0 -0.732000      0.601000    
     11880 MEMB     66       POPE     DO31     DRUD     -1.48470      0.400000           0   0.00000       0.00000    
     11881 MEMB     66       POPE     C31      CD2O3B    2.72820       11.6110           0  -1.37000       1.74700    
     11882 MEMB     66       POPE     DC31     DRUD     -2.03120      0.400000           0   0.00000       0.00000    
     11883 MEMB     66       POPE     O32      OD2C3B    1.64990       15.5994           0 -0.904000      0.565000    
     11884 MEMB     66       POPE     DO32     DRUD     -1.64990      0.400000           0   0.00000       0.00000    
     11885 MEMB     66       POPE     C32      CD32C     2.24380       11.6110           0  -1.99300      0.410000    
     11886 MEMB     66       POPE     DC32     DRUD     -2.44980      0.400000           0   0.00000       0.00000    
     11887 MEMB     66       POPE     H2X      HDA2A    0.690000E-01   1.00800           0   0.00000       0.00000    
     11888 MEMB     66       POPE     H2Y      HDA2A    0.690000E-01   1.00800           0   0.00000       0.00000    
     11889 MEMB     66       POPE     LP1C     LPD     -0.349000       0.00000          -1   0.00000       0.00000    
     11890 MEMB     66       POPE     LP1D     LPD     -0.258000       0.00000          -1   0.00000       0.00000    
     11891 MEMB     66       POPE     LPMC     LPD     -0.170000       0.00000          -1   0.00000       0.00000    
     11892 MEMB     66       POPE     LPMD     LPD     -0.170000       0.00000          -1   0.00000       0.00000    
     11893 MEMB     66       POPE     C23      CD32A     2.07980       11.6110           0  -1.66000       1.30000    
     11894 MEMB     66       POPE     DC23     DRUD     -2.23580      0.400000           0   0.00000       0.00000    
     11895 MEMB     66       POPE     H3R      HDA2A    0.780000E-01   1.00800           0   0.00000       0.00000    
     11896 MEMB     66       POPE     H3S      HDA2A    0.780000E-01   1.00800           0   0.00000       0.00000    
     11897 MEMB     66       POPE     C24      CD32A     2.07980       11.6110           0  -1.66000       1.30000    
     11898 MEMB     66       POPE     DC24     DRUD     -2.23580      0.400000           0   0.00000       0.00000    
     11899 MEMB     66       POPE     H4R      HDA2A    0.780000E-01   1.00800           0   0.00000       0.00000    
     11900 MEMB     66       POPE     H4S      HDA2A    0.780000E-01   1.00800           0   0.00000       0.00000    
     11901 MEMB     66       POPE     C25      CD32A     2.07980       11.6110           0  -1.66000       1.30000    
     11902 MEMB     66       POPE     DC25     DRUD     -2.23580      0.400000           0   0.00000       0.00000    
     11903 MEMB     66       POPE     H5R      HDA2A    0.780000E-01   1.00800           0   0.00000       0.00000    
     11904 MEMB     66       POPE     H5S      HDA2A    0.780000E-01   1.00800           0   0.00000       0.00000    
     11905 MEMB     66       POPE     C26      CD32A     2.07980       11.6110           0  -1.66000       1.30000    
     11906 MEMB     66       POPE     DC26     DRUD     -2.23580      0.400000           0   0.00000       0.00000    
     11907 MEMB     66       POPE     H6R      HDA2A    0.780000E-01   1.00800           0   0.00000       0.00000    
     11908 MEMB     66       POPE     H6S      HDA2A    0.780000E-01   1.00800           0   0.00000       0.00000    
     11909 MEMB     66       POPE     C27      CD32A     2.07980       11.6110           0  -1.66000       1.30000    
     11910 MEMB     66       POPE     DC27     DRUD     -2.23580      0.400000           0   0.00000       0.00000    
     11911 MEMB     66       POPE     H7R      HDA2A    0.780000E-01   1.00800           0   0.00000       0.00000    
     11912 MEMB     66       POPE     H7S      HDA2A    0.780000E-01   1.00800           0   0.00000       0.00000    
     11913 MEMB     66       POPE     C28      CD32A     2.07980       11.6110           0  -1.66000       1.30000    
     11914 MEMB     66       POPE     DC28     DRUD     -2.23580      0.400000           0   0.00000       0.00000    
     11915 MEMB     66       POPE     H8R      HDA2A    0.780000E-01   1.00800           0   0.00000       0.00000    
     11916 MEMB     66       POPE     H8S      HDA2A    0.780000E-01   1.00800           0   0.00000       0.00000    
     11917 MEMB     66       POPE     C29      CD2C1A    2.33700       11.6110           0  -1.99000      0.750000    
     11918 MEMB     66       POPE     DC29     DRUD     -2.44800      0.400000           0   0.00000       0.00000    
     11919 MEMB     66       POPE     H91      HD2C1A   0.111000       1.00800           0   0.00000       0.00000    
     11920 MEMB     66       POPE     C210     CD2C1A    2.33700       11.6110           0  -1.99000      0.750000    
     11921 MEMB     66       POPE     DC210    DRUD     -2.44800      0.400000           0   0.00000       0.00000    
     11922 MEMB     66       POPE     H101     HD2C1A   0.111000       1.00800           0   0.00000       0.00000    
     11923 MEMB     66       POPE     C211     CD32A     2.07980       11.6110           0  -1.66000       1.30000    
     11924 MEMB     66       POPE     DC211    DRUD     -2.23580      0.400000           0   0.00000       0.00000    
     11925 MEMB     66       POPE     H11R     HDA2A    0.780000E-01   1.00800           0   0.00000       0.00000    
     11926 MEMB     66       POPE     H11S     HDA2A    0.780000E-01   1.00800           0   0.00000       0.00000    
     11927 MEMB     66       POPE     C212     CD32A     2.07980       11.6110           0  -1.66000       1.30000    
     11928 MEMB     66       POPE     DC212    DRUD     -2.23580      0.400000           0   0.00000       0.00000    
     11929 MEMB     66       POPE     H12R     HDA2A    0.780000E-01   1.00800           0   0.00000       0.00000    
     11930 MEMB     66       POPE     H12S     HDA2A    0.780000E-01   1.00800           0   0.00000       0.00000    
     11931 MEMB     66       POPE     C213     CD32A     2.07980       11.6110           0  -1.66000       1.30000    
     11932 MEMB     66       POPE     DC213    DRUD     -2.23580      0.400000           0   0.00000       0.00000    
     11933 MEMB     66       POPE     H13R     HDA2A    0.780000E-01   1.00800           0   0.00000       0.00000    
     11934 MEMB     66       POPE     H13S     HDA2A    0.780000E-01   1.00800           0   0.00000       0.00000    
     11935 MEMB     66       POPE     C214     CD32A     2.07980       11.6110           0  -1.66000       1.30000    
     11936 MEMB     66       POPE     DC214    DRUD     -2.23580      0.400000           0   0.00000       0.00000    
     11937 MEMB     66       POPE     H14R     HDA2A    0.780000E-01   1.00800           0   0.00000       0.00000    
     11938 MEMB     66       POPE     H14S     HDA2A    0.780000E-01   1.00800           0   0.00000       0.00000    
     11939 MEMB     66       POPE     C215     CD32A     2.07980       11.6110           0  -1.66000       1.30000    
     11940 MEMB     66       POPE     DC215    DRUD     -2.23580      0.400000           0   0.00000       0.00000    
     11941 MEMB     66       POPE     H15R     HDA2A    0.780000E-01   1.00800           0   0.00000       0.00000    
     11942 MEMB     66       POPE     H15S     HDA2A    0.780000E-01   1.00800           0   0.00000       0.00000    
     11943 MEMB     66       POPE     C216     CD32A     2.07980       11.6110           0  -1.66000       1.30000    
     11944 MEMB     66       POPE     DC216    DRUD     -2.23580      0.400000           0   0.00000       0.00000    
     11945 MEMB     66       POPE     H16R     HDA2A    0.780000E-01   1.00800           0   0.00000       0.00000    
     11946 MEMB     66       POPE     H16S     HDA2A    0.780000E-01   1.00800           0   0.00000       0.00000    
     11947 MEMB     66       POPE     C217     CD32A     2.07980       11.6110           0  -1.66000       1.30000    
     11948 MEMB     66       POPE     DC217    DRUD     -2.23580      0.400000           0   0.00000       0.00000    
     11949 MEMB     66       POPE     H17R     HDA2A    0.780000E-01   1.00800           0   0.00000       0.00000    
     11950 MEMB     66       POPE     H17S     HDA2A    0.780000E-01   1.00800           0   0.00000       0.00000    
     11951 MEMB     66       POPE     C218     CD33A     2.30820       11.6110           0  -2.05100       1.30000    
     11952 MEMB     66       POPE     DC218    DRUD     -2.48520      0.400000           0   0.00000       0.00000    
     11953 MEMB     66       POPE     H18R     HDA3A    0.590000E-01   1.00800           0   0.00000       0.00000    
     11954 MEMB     66       POPE     H18S     HDA3A    0.590000E-01   1.00800           0   0.00000       0.00000    
     11955 MEMB     66       POPE     H18T     HDA3A    0.590000E-01   1.00800           0   0.00000       0.00000    
     11956 MEMB     66       POPE     C33      CD32A     2.07980       11.6110           0  -1.66000       1.30000    
     11957 MEMB     66       POPE     DC33     DRUD     -2.23580      0.400000           0   0.00000       0.00000    
     11958 MEMB     66       POPE     H3X      HDA2A    0.780000E-01   1.00800           0   0.00000       0.00000    
     11959 MEMB     66       POPE     H3Y      HDA2A    0.780000E-01   1.00800           0   0.00000       0.00000    
     11960 MEMB     66       POPE     C34      CD32A     2.07980       11.6110           0  -1.66000       1.30000    
     11961 MEMB     66       POPE     DC34     DRUD     -2.23580      0.400000           0   0.00000       0.00000    
     11962 MEMB     66       POPE     H4X      HDA2A    0.780000E-01   1.00800           0   0.00000       0.00000    
     11963 MEMB     66       POPE     H4Y      HDA2A    0.780000E-01   1.00800           0   0.00000       0.00000    
     11964 MEMB     66       POPE     C35      CD32A     2.07980       11.6110           0  -1.66000       1.30000    
     11965 MEMB     66       POPE     DC35     DRUD     -2.23580      0.400000           0   0.00000       0.00000    
     11966 MEMB     66       POPE     H5X      HDA2A    0.780000E-01   1.00800           0   0.00000       0.00000    
     11967 MEMB     66       POPE     H5Y      HDA2A    0.780000E-01   1.00800           0   0.00000       0.00000    
     11968 MEMB     66       POPE     C36      CD32A     2.07980       11.6110           0  -1.66000       1.30000    
     11969 MEMB     66       POPE     DC36     DRUD     -2.23580      0.400000           0   0.00000       0.00000    
     11970 MEMB     66       POPE     H6X      HDA2A    0.780000E-01   1.00800           0   0.00000       0.00000    
     11971 MEMB     66       POPE     H6Y      HDA2A    0.780000E-01   1.00800           0   0.00000       0.00000    
     11972 MEMB     66       POPE     C37      CD32A     2.07980       11.6110           0  -1.66000       1.30000    
     11973 MEMB     66       POPE     DC37     DRUD     -2.23580      0.400000           0   0.00000       0.00000    
     11974 MEMB     66       POPE     H7X      HDA2A    0.780000E-01   1.00800           0   0.00000       0.00000    
     11975 MEMB     66       POPE     H7Y      HDA2A    0.780000E-01   1.00800           0   0.00000       0.00000    
     11976 MEMB     66       POPE     C38      CD32A     2.07980       11.6110           0  -1.66000       1.30000    
     11977 MEMB     66       POPE     DC38     DRUD     -2.23580      0.400000           0   0.00000       0.00000    
     11978 MEMB     66       POPE     H8X      HDA2A    0.780000E-01   1.00800           0   0.00000       0.00000    
     11979 MEMB     66       POPE     H8Y      HDA2A    0.780000E-01   1.00800           0   0.00000       0.00000    
     11980 MEMB     66       POPE     C39      CD32A     2.07980       11.6110           0  -1.66000       1.30000    
     11981 MEMB     66       POPE     DC39     DRUD     -2.23580      0.400000           0   0.00000       0.00000    
     11982 MEMB     66       POPE     H9X      HDA2A    0.780000E-01   1.00800           0   0.00000       0.00000    
     11983 MEMB     66       POPE     H9Y      HDA2A    0.780000E-01   1.00800           0   0.00000       0.00000    
     11984 MEMB     66       POPE     C310     CD32A     2.07980       11.6110           0  -1.66000       1.30000    
     11985 MEMB     66       POPE     DC310    DRUD     -2.23580      0.400000           0   0.00000       0.00000    
     11986 MEMB     66       POPE     H10X     HDA2A    0.780000E-01   1.00800           0   0.00000       0.00000    
     11987 MEMB     66       POPE     H10Y     HDA2A    0.780000E-01   1.00800           0   0.00000       0.00000    
     11988 MEMB     66       POPE     C311     CD32A     2.07980       11.6110           0  -1.66000       1.30000    
     11989 MEMB     66       POPE     DC311    DRUD     -2.23580      0.400000           0   0.00000       0.00000    
     11990 MEMB     66       POPE     H11X     HDA2A    0.780000E-01   1.00800           0   0.00000       0.00000    
     11991 MEMB     66       POPE     H11Y     HDA2A    0.780000E-01   1.00800           0   0.00000       0.00000    
     11992 MEMB     66       POPE     C312     CD32A     2.07980       11.6110           0  -1.66000       1.30000    
     11993 MEMB     66       POPE     DC312    DRUD     -2.23580      0.400000           0   0.00000       0.00000    
     11994 MEMB     66       POPE     H12X     HDA2A    0.780000E-01   1.00800           0   0.00000       0.00000    
     11995 MEMB     66       POPE     H12Y     HDA2A    0.780000E-01   1.00800           0   0.00000       0.00000    
     11996 MEMB     66       POPE     C313     CD32A     2.07980       11.6110           0  -1.66000       1.30000    
     11997 MEMB     66       POPE     DC313    DRUD     -2.23580      0.400000           0   0.00000       0.00000    
     11998 MEMB     66       POPE     H13X     HDA2A    0.780000E-01   1.00800           0   0.00000       0.00000    
     11999 MEMB     66       POPE     H13Y     HDA2A    0.780000E-01   1.00800           0   0.00000       0.00000    
     12000 MEMB     66       POPE     C314     CD32A     2.07980       11.6110           0  -1.66000       1.30000    
     12001 MEMB     66       POPE     DC314    DRUD     -2.23580      0.400000           0   0.00000       0.00000    
     12002 MEMB     66       POPE     H14X     HDA2A    0.780000E-01   1.00800           0   0.00000       0.00000    
     12003 MEMB     66       POPE     H14Y     HDA2A    0.780000E-01   1.00800           0   0.00000       0.00000    
     12004 MEMB     66       POPE     C315     CD32A     2.07980       11.6110           0  -1.66000       1.30000    
     12005 MEMB     66       POPE     DC315    DRUD     -2.23580      0.400000           0   0.00000       0.00000    
     12006 MEMB     66       POPE     H15X     HDA2A    0.780000E-01   1.00800           0   0.00000       0.00000    
     12007 MEMB     66       POPE     H15Y     HDA2A    0.780000E-01   1.00800           0   0.00000       0.00000    
     12008 MEMB     66       POPE     C316     CD33A     2.30820       11.6110           0  -2.05100       1.30000    
     12009 MEMB     66       POPE     DC316    DRUD     -2.48520      0.400000           0   0.00000       0.00000    
     12010 MEMB     66       POPE     H16X     HDA3A    0.590000E-01   1.00800           0   0.00000       0.00000    
     12011 MEMB     66       POPE     H16Y     HDA3A    0.590000E-01   1.00800           0   0.00000       0.00000    
     12012 MEMB     66       POPE     H16Z     HDA3A    0.590000E-01   1.00800           0   0.00000       0.00000    
     12013 MEMB     67       POPE     N        ND3P3A    1.62810       13.6070           0  -1.29800      0.895000    
     12014 MEMB     67       POPE     DN       DRUD     -1.97710      0.400000           0   0.00000       0.00000    
     12015 MEMB     67       POPE     HN1      HDP1B    0.340000       1.00800           0   0.00000       0.00000    
     12016 MEMB     67       POPE     HN2      HDP1B    0.340000       1.00800           0   0.00000       0.00000    
     12017 MEMB     67       POPE     HN3      HDP1B    0.340000       1.00800           0   0.00000       0.00000    
     12018 MEMB     67       POPE     C12      CD32A     2.27610       11.6110           0  -1.65600      0.895000    
     12019 MEMB     67       POPE     DC12     DRUD     -2.23310      0.400000           0   0.00000       0.00000    
     12020 MEMB     67       POPE     H12A     HDA2A    0.143000       1.00800           0   0.00000       0.00000    
     12021 MEMB     67       POPE     H12B     HDA2A    0.143000       1.00800           0   0.00000       0.00000    
     12022 MEMB     67       POPE     C11      CD32A     2.42220       11.6110           0  -1.64200      0.862000    
     12023 MEMB     67       POPE     DC11     DRUD     -2.22370      0.400000           0   0.00000       0.00000    
     12024 MEMB     67       POPE     H11A     HDA2A    0.260000E-01   1.00800           0   0.00000       0.00000    
     12025 MEMB     67       POPE     H11B     HDA2A    0.260000E-01   1.00800           0   0.00000       0.00000    
     12026 MEMB     67       POPE     P        PD1A      2.90360       30.5740           0 -0.974000       2.09800    
     12027 MEMB     67       POPE     DP       DRUD     -1.71260      0.400000           0   0.00000       0.00000    
     12028 MEMB     67       POPE     O13      OD2C2B   0.798400       15.5994           0 -0.931000       1.08300    
     12029 MEMB     67       POPE     DO13     DRUD     -1.67440      0.400000           0   0.00000       0.00000    
     12030 MEMB     67       POPE     O14      OD2C2B   0.798400       15.5994           0 -0.931000       1.08300    
     12031 MEMB     67       POPE     DO14     DRUD     -1.67440      0.400000           0   0.00000       0.00000    
     12032 MEMB     67       POPE     O11      OD30B     1.17720       15.5994           0 -0.901000      0.181000    
     12033 MEMB     67       POPE     DO11     DRUD     -1.64720      0.400000           0   0.00000       0.00000    
     12034 MEMB     67       POPE     O12      OD30B     1.17720       15.5994           0 -0.901000      0.181000    
     12035 MEMB     67       POPE     DO12     DRUD     -1.64720      0.400000           0   0.00000       0.00000    
     12036 MEMB     67       POPE     C1       CD32A     2.42220       11.6110           0  -1.64200      0.862000    
     12037 MEMB     67       POPE     DC1      DRUD     -2.22370      0.400000           0   0.00000       0.00000    
     12038 MEMB     67       POPE     HA       HDA2A    0.260000E-01   1.00800           0   0.00000       0.00000    
     12039 MEMB     67       POPE     HB       HDA2A    0.260000E-01   1.00800           0   0.00000       0.00000    
     12040 MEMB     67       POPE     C2       CD31C     2.52830       11.6110           0  -1.79700      0.410000    
     12041 MEMB     67       POPE     DC2      DRUD     -2.32630      0.400000           0   0.00000       0.00000    
     12042 MEMB     67       POPE     HS       HDA1A    0.116000       1.00800           0   0.00000       0.00000    
     12043 MEMB     67       POPE     O21      OD30CL    1.48470       15.5994           0 -0.732000      0.601000    
     12044 MEMB     67       POPE     DO21     DRUD     -1.48470      0.400000           0   0.00000       0.00000    
     12045 MEMB     67       POPE     C21      CD2O3B    2.72820       11.6110           0  -1.37000       1.74700    
     12046 MEMB     67       POPE     DC21     DRUD     -2.03120      0.400000           0   0.00000       0.00000    
     12047 MEMB     67       POPE     O22      OD2C3B    1.64990       15.5994           0 -0.904000      0.565000    
     12048 MEMB     67       POPE     DO22     DRUD     -1.64990      0.400000           0   0.00000       0.00000    
     12049 MEMB     67       POPE     C22      CD32C     2.24380       11.6110           0  -1.99300      0.410000    
     12050 MEMB     67       POPE     DC22     DRUD     -2.44980      0.400000           0   0.00000       0.00000    
     12051 MEMB     67       POPE     H2R      HDA2A    0.690000E-01   1.00800           0   0.00000       0.00000    
     12052 MEMB     67       POPE     H2S      HDA2A    0.690000E-01   1.00800           0   0.00000       0.00000    
     12053 MEMB     67       POPE     LP1A     LPD     -0.349000       0.00000          -1   0.00000       0.00000    
     12054 MEMB     67       POPE     LP1B     LPD     -0.258000       0.00000          -1   0.00000       0.00000    
     12055 MEMB     67       POPE     LPMA     LPD     -0.170000       0.00000          -1   0.00000       0.00000    
     12056 MEMB     67       POPE     LPMB     LPD     -0.170000       0.00000          -1   0.00000       0.00000    
     12057 MEMB     67       POPE     C3       CD32C     2.41230       11.6110           0  -1.79700      0.410000    
     12058 MEMB     67       POPE     DC3      DRUD     -2.32630      0.400000           0   0.00000       0.00000    
     12059 MEMB     67       POPE     HX       HDA2A    0.116000       1.00800           0   0.00000       0.00000    
     12060 MEMB     67       POPE     HY       HDA2A    0.116000       1.00800           0   0.00000       0.00000    
     12061 MEMB     67       POPE     O31      OD30CL    1.48470       15.5994           0 -0.732000      0.601000    
     12062 MEMB     67       POPE     DO31     DRUD     -1.48470      0.400000           0   0.00000       0.00000    
     12063 MEMB     67       POPE     C31      CD2O3B    2.72820       11.6110           0  -1.37000       1.74700    
     12064 MEMB     67       POPE     DC31     DRUD     -2.03120      0.400000           0   0.00000       0.00000    
     12065 MEMB     67       POPE     O32      OD2C3B    1.64990       15.5994           0 -0.904000      0.565000    
     12066 MEMB     67       POPE     DO32     DRUD     -1.64990      0.400000           0   0.00000       0.00000    
     12067 MEMB     67       POPE     C32      CD32C     2.24380       11.6110           0  -1.99300      0.410000    
     12068 MEMB     67       POPE     DC32     DRUD     -2.44980      0.400000           0   0.00000       0.00000    
     12069 MEMB     67       POPE     H2X      HDA2A    0.690000E-01   1.00800           0   0.00000       0.00000    
     12070 MEMB     67       POPE     H2Y      HDA2A    0.690000E-01   1.00800           0   0.00000       0.00000    
     12071 MEMB     67       POPE     LP1C     LPD     -0.349000       0.00000          -1   0.00000       0.00000    
     12072 MEMB     67       POPE     LP1D     LPD     -0.258000       0.00000          -1   0.00000       0.00000    
     12073 MEMB     67       POPE     LPMC     LPD     -0.170000       0.00000          -1   0.00000       0.00000    
     12074 MEMB     67       POPE     LPMD     LPD     -0.170000       0.00000          -1   0.00000       0.00000    
     12075 MEMB     67       POPE     C23      CD32A     2.07980       11.6110           0  -1.66000       1.30000    
     12076 MEMB     67       POPE     DC23     DRUD     -2.23580      0.400000           0   0.00000       0.00000    
     12077 MEMB     67       POPE     H3R      HDA2A    0.780000E-01   1.00800           0   0.00000       0.00000    
     12078 MEMB     67       POPE     H3S      HDA2A    0.780000E-01   1.00800           0   0.00000       0.00000    
     12079 MEMB     67       POPE     C24      CD32A     2.07980       11.6110           0  -1.66000       1.30000    
     12080 MEMB     67       POPE     DC24     DRUD     -2.23580      0.400000           0   0.00000       0.00000    
     12081 MEMB     67       POPE     H4R      HDA2A    0.780000E-01   1.00800           0   0.00000       0.00000    
     12082 MEMB     67       POPE     H4S      HDA2A    0.780000E-01   1.00800           0   0.00000       0.00000    
     12083 MEMB     67       POPE     C25      CD32A     2.07980       11.6110           0  -1.66000       1.30000    
     12084 MEMB     67       POPE     DC25     DRUD     -2.23580      0.400000           0   0.00000       0.00000    
     12085 MEMB     67       POPE     H5R      HDA2A    0.780000E-01   1.00800           0   0.00000       0.00000    
     12086 MEMB     67       POPE     H5S      HDA2A    0.780000E-01   1.00800           0   0.00000       0.00000    
     12087 MEMB     67       POPE     C26      CD32A     2.07980       11.6110           0  -1.66000       1.30000    
     12088 MEMB     67       POPE     DC26     DRUD     -2.23580      0.400000           0   0.00000       0.00000    
     12089 MEMB     67       POPE     H6R      HDA2A    0.780000E-01   1.00800           0   0.00000       0.00000    
     12090 MEMB     67       POPE     H6S      HDA2A    0.780000E-01   1.00800           0   0.00000       0.00000    
     12091 MEMB     67       POPE     C27      CD32A     2.07980       11.6110           0  -1.66000       1.30000    
     12092 MEMB     67       POPE     DC27     DRUD     -2.23580      0.400000           0   0.00000       0.00000    
     12093 MEMB     67       POPE     H7R      HDA2A    0.780000E-01   1.00800           0   0.00000       0.00000    
     12094 MEMB     67       POPE     H7S      HDA2A    0.780000E-01   1.00800           0   0.00000       0.00000    
     12095 MEMB     67       POPE     C28      CD32A     2.07980       11.6110           0  -1.66000       1.30000    
     12096 MEMB     67       POPE     DC28     DRUD     -2.23580      0.400000           0   0.00000       0.00000    
     12097 MEMB     67       POPE     H8R      HDA2A    0.780000E-01   1.00800           0   0.00000       0.00000    
     12098 MEMB     67       POPE     H8S      HDA2A    0.780000E-01   1.00800           0   0.00000       0.00000    
     12099 MEMB     67       POPE     C29      CD2C1A    2.33700       11.6110           0  -1.99000      0.750000    
     12100 MEMB     67       POPE     DC29     DRUD     -2.44800      0.400000           0   0.00000       0.00000    
     12101 MEMB     67       POPE     H91      HD2C1A   0.111000       1.00800           0   0.00000       0.00000    
     12102 MEMB     67       POPE     C210     CD2C1A    2.33700       11.6110           0  -1.99000      0.750000    
     12103 MEMB     67       POPE     DC210    DRUD     -2.44800      0.400000           0   0.00000       0.00000    
     12104 MEMB     67       POPE     H101     HD2C1A   0.111000       1.00800           0   0.00000       0.00000    
     12105 MEMB     67       POPE     C211     CD32A     2.07980       11.6110           0  -1.66000       1.30000    
     12106 MEMB     67       POPE     DC211    DRUD     -2.23580      0.400000           0   0.00000       0.00000    
     12107 MEMB     67       POPE     H11R     HDA2A    0.780000E-01   1.00800           0   0.00000       0.00000    
     12108 MEMB     67       POPE     H11S     HDA2A    0.780000E-01   1.00800           0   0.00000       0.00000    
     12109 MEMB     67       POPE     C212     CD32A     2.07980       11.6110           0  -1.66000       1.30000    
     12110 MEMB     67       POPE     DC212    DRUD     -2.23580      0.400000           0   0.00000       0.00000    
     12111 MEMB     67       POPE     H12R     HDA2A    0.780000E-01   1.00800           0   0.00000       0.00000    
     12112 MEMB     67       POPE     H12S     HDA2A    0.780000E-01   1.00800           0   0.00000       0.00000    
     12113 MEMB     67       POPE     C213     CD32A     2.07980       11.6110           0  -1.66000       1.30000    
     12114 MEMB     67       POPE     DC213    DRUD     -2.23580      0.400000           0   0.00000       0.00000    
     12115 MEMB     67       POPE     H13R     HDA2A    0.780000E-01   1.00800           0   0.00000       0.00000    
     12116 MEMB     67       POPE     H13S     HDA2A    0.780000E-01   1.00800           0   0.00000       0.00000    
     12117 MEMB     67       POPE     C214     CD32A     2.07980       11.6110           0  -1.66000       1.30000    
     12118 MEMB     67       POPE     DC214    DRUD     -2.23580      0.400000           0   0.00000       0.00000    
     12119 MEMB     67       POPE     H14R     HDA2A    0.780000E-01   1.00800           0   0.00000       0.00000    
     12120 MEMB     67       POPE     H14S     HDA2A    0.780000E-01   1.00800           0   0.00000       0.00000    
     12121 MEMB     67       POPE     C215     CD32A     2.07980       11.6110           0  -1.66000       1.30000    
     12122 MEMB     67       POPE     DC215    DRUD     -2.23580      0.400000           0   0.00000       0.00000    
     12123 MEMB     67       POPE     H15R     HDA2A    0.780000E-01   1.00800           0   0.00000       0.00000    
     12124 MEMB     67       POPE     H15S     HDA2A    0.780000E-01   1.00800           0   0.00000       0.00000    
     12125 MEMB     67       POPE     C216     CD32A     2.07980       11.6110           0  -1.66000       1.30000    
     12126 MEMB     67       POPE     DC216    DRUD     -2.23580      0.400000           0   0.00000       0.00000    
     12127 MEMB     67       POPE     H16R     HDA2A    0.780000E-01   1.00800           0   0.00000       0.00000    
     12128 MEMB     67       POPE     H16S     HDA2A    0.780000E-01   1.00800           0   0.00000       0.00000    
     12129 MEMB     67       POPE     C217     CD32A     2.07980       11.6110           0  -1.66000       1.30000    
     12130 MEMB     67       POPE     DC217    DRUD     -2.23580      0.400000           0   0.00000       0.00000    
     12131 MEMB     67       POPE     H17R     HDA2A    0.780000E-01   1.00800           0   0.00000       0.00000    
     12132 MEMB     67       POPE     H17S     HDA2A    0.780000E-01   1.00800           0   0.00000       0.00000    
     12133 MEMB     67       POPE     C218     CD33A     2.30820       11.6110           0  -2.05100       1.30000    
     12134 MEMB     67       POPE     DC218    DRUD     -2.48520      0.400000           0   0.00000       0.00000    
     12135 MEMB     67       POPE     H18R     HDA3A    0.590000E-01   1.00800           0   0.00000       0.00000    
     12136 MEMB     67       POPE     H18S     HDA3A    0.590000E-01   1.00800           0   0.00000       0.00000    
     12137 MEMB     67       POPE     H18T     HDA3A    0.590000E-01   1.00800           0   0.00000       0.00000    
     12138 MEMB     67       POPE     C33      CD32A     2.07980       11.6110           0  -1.66000       1.30000    
     12139 MEMB     67       POPE     DC33     DRUD     -2.23580      0.400000           0   0.00000       0.00000    
     12140 MEMB     67       POPE     H3X      HDA2A    0.780000E-01   1.00800           0   0.00000       0.00000    
     12141 MEMB     67       POPE     H3Y      HDA2A    0.780000E-01   1.00800           0   0.00000       0.00000    
     12142 MEMB     67       POPE     C34      CD32A     2.07980       11.6110           0  -1.66000       1.30000    
     12143 MEMB     67       POPE     DC34     DRUD     -2.23580      0.400000           0   0.00000       0.00000    
     12144 MEMB     67       POPE     H4X      HDA2A    0.780000E-01   1.00800           0   0.00000       0.00000    
     12145 MEMB     67       POPE     H4Y      HDA2A    0.780000E-01   1.00800           0   0.00000       0.00000    
     12146 MEMB     67       POPE     C35      CD32A     2.07980       11.6110           0  -1.66000       1.30000    
     12147 MEMB     67       POPE     DC35     DRUD     -2.23580      0.400000           0   0.00000       0.00000    
     12148 MEMB     67       POPE     H5X      HDA2A    0.780000E-01   1.00800           0   0.00000       0.00000    
     12149 MEMB     67       POPE     H5Y      HDA2A    0.780000E-01   1.00800           0   0.00000       0.00000    
     12150 MEMB     67       POPE     C36      CD32A     2.07980       11.6110           0  -1.66000       1.30000    
     12151 MEMB     67       POPE     DC36     DRUD     -2.23580      0.400000           0   0.00000       0.00000    
     12152 MEMB     67       POPE     H6X      HDA2A    0.780000E-01   1.00800           0   0.00000       0.00000    
     12153 MEMB     67       POPE     H6Y      HDA2A    0.780000E-01   1.00800           0   0.00000       0.00000    
     12154 MEMB     67       POPE     C37      CD32A     2.07980       11.6110           0  -1.66000       1.30000    
     12155 MEMB     67       POPE     DC37     DRUD     -2.23580      0.400000           0   0.00000       0.00000    
     12156 MEMB     67       POPE     H7X      HDA2A    0.780000E-01   1.00800           0   0.00000       0.00000    
     12157 MEMB     67       POPE     H7Y      HDA2A    0.780000E-01   1.00800           0   0.00000       0.00000    
     12158 MEMB     67       POPE     C38      CD32A     2.07980       11.6110           0  -1.66000       1.30000    
     12159 MEMB     67       POPE     DC38     DRUD     -2.23580      0.400000           0   0.00000       0.00000    
     12160 MEMB     67       POPE     H8X      HDA2A    0.780000E-01   1.00800           0   0.00000       0.00000    
     12161 MEMB     67       POPE     H8Y      HDA2A    0.780000E-01   1.00800           0   0.00000       0.00000    
     12162 MEMB     67       POPE     C39      CD32A     2.07980       11.6110           0  -1.66000       1.30000    
     12163 MEMB     67       POPE     DC39     DRUD     -2.23580      0.400000           0   0.00000       0.00000    
     12164 MEMB     67       POPE     H9X      HDA2A    0.780000E-01   1.00800           0   0.00000       0.00000    
     12165 MEMB     67       POPE     H9Y      HDA2A    0.780000E-01   1.00800           0   0.00000       0.00000    
     12166 MEMB     67       POPE     C310     CD32A     2.07980       11.6110           0  -1.66000       1.30000    
     12167 MEMB     67       POPE     DC310    DRUD     -2.23580      0.400000           0   0.00000       0.00000    
     12168 MEMB     67       POPE     H10X     HDA2A    0.780000E-01   1.00800           0   0.00000       0.00000    
     12169 MEMB     67       POPE     H10Y     HDA2A    0.780000E-01   1.00800           0   0.00000       0.00000    
     12170 MEMB     67       POPE     C311     CD32A     2.07980       11.6110           0  -1.66000       1.30000    
     12171 MEMB     67       POPE     DC311    DRUD     -2.23580      0.400000           0   0.00000       0.00000    
     12172 MEMB     67       POPE     H11X     HDA2A    0.780000E-01   1.00800           0   0.00000       0.00000    
     12173 MEMB     67       POPE     H11Y     HDA2A    0.780000E-01   1.00800           0   0.00000       0.00000    
     12174 MEMB     67       POPE     C312     CD32A     2.07980       11.6110           0  -1.66000       1.30000    
     12175 MEMB     67       POPE     DC312    DRUD     -2.23580      0.400000           0   0.00000       0.00000    
     12176 MEMB     67       POPE     H12X     HDA2A    0.780000E-01   1.00800           0   0.00000       0.00000    
     12177 MEMB     67       POPE     H12Y     HDA2A    0.780000E-01   1.00800           0   0.00000       0.00000    
     12178 MEMB     67       POPE     C313     CD32A     2.07980       11.6110           0  -1.66000       1.30000    
     12179 MEMB     67       POPE     DC313    DRUD     -2.23580      0.400000           0   0.00000       0.00000    
     12180 MEMB     67       POPE     H13X     HDA2A    0.780000E-01   1.00800           0   0.00000       0.00000    
     12181 MEMB     67       POPE     H13Y     HDA2A    0.780000E-01   1.00800           0   0.00000       0.00000    
     12182 MEMB     67       POPE     C314     CD32A     2.07980       11.6110           0  -1.66000       1.30000    
     12183 MEMB     67       POPE     DC314    DRUD     -2.23580      0.400000           0   0.00000       0.00000    
     12184 MEMB     67       POPE     H14X     HDA2A    0.780000E-01   1.00800           0   0.00000       0.00000    
     12185 MEMB     67       POPE     H14Y     HDA2A    0.780000E-01   1.00800           0   0.00000       0.00000    
     12186 MEMB     67       POPE     C315     CD32A     2.07980       11.6110           0  -1.66000       1.30000    
     12187 MEMB     67       POPE     DC315    DRUD     -2.23580      0.400000           0   0.00000       0.00000    
     12188 MEMB     67       POPE     H15X     HDA2A    0.780000E-01   1.00800           0   0.00000       0.00000    
     12189 MEMB     67       POPE     H15Y     HDA2A    0.780000E-01   1.00800           0   0.00000       0.00000    
     12190 MEMB     67       POPE     C316     CD33A     2.30820       11.6110           0  -2.05100       1.30000    
     12191 MEMB     67       POPE     DC316    DRUD     -2.48520      0.400000           0   0.00000       0.00000    
     12192 MEMB     67       POPE     H16X     HDA3A    0.590000E-01   1.00800           0   0.00000       0.00000    
     12193 MEMB     67       POPE     H16Y     HDA3A    0.590000E-01   1.00800           0   0.00000       0.00000    
     12194 MEMB     67       POPE     H16Z     HDA3A    0.590000E-01   1.00800           0   0.00000       0.00000    
     12195 MEMB     68       POPE     N        ND3P3A    1.62810       13.6070           0  -1.29800      0.895000    
     12196 MEMB     68       POPE     DN       DRUD     -1.97710      0.400000           0   0.00000       0.00000    
     12197 MEMB     68       POPE     HN1      HDP1B    0.340000       1.00800           0   0.00000       0.00000    
     12198 MEMB     68       POPE     HN2      HDP1B    0.340000       1.00800           0   0.00000       0.00000    
     12199 MEMB     68       POPE     HN3      HDP1B    0.340000       1.00800           0   0.00000       0.00000    
     12200 MEMB     68       POPE     C12      CD32A     2.27610       11.6110           0  -1.65600      0.895000    
     12201 MEMB     68       POPE     DC12     DRUD     -2.23310      0.400000           0   0.00000       0.00000    
     12202 MEMB     68       POPE     H12A     HDA2A    0.143000       1.00800           0   0.00000       0.00000    
     12203 MEMB     68       POPE     H12B     HDA2A    0.143000       1.00800           0   0.00000       0.00000    
     12204 MEMB     68       POPE     C11      CD32A     2.42220       11.6110           0  -1.64200      0.862000    
     12205 MEMB     68       POPE     DC11     DRUD     -2.22370      0.400000           0   0.00000       0.00000    
     12206 MEMB     68       POPE     H11A     HDA2A    0.260000E-01   1.00800           0   0.00000       0.00000    
     12207 MEMB     68       POPE     H11B     HDA2A    0.260000E-01   1.00800           0   0.00000       0.00000    
     12208 MEMB     68       POPE     P        PD1A      2.90360       30.5740           0 -0.974000       2.09800    
     12209 MEMB     68       POPE     DP       DRUD     -1.71260      0.400000           0   0.00000       0.00000    
     12210 MEMB     68       POPE     O13      OD2C2B   0.798400       15.5994           0 -0.931000       1.08300    
     12211 MEMB     68       POPE     DO13     DRUD     -1.67440      0.400000           0   0.00000       0.00000    
     12212 MEMB     68       POPE     O14      OD2C2B   0.798400       15.5994           0 -0.931000       1.08300    
     12213 MEMB     68       POPE     DO14     DRUD     -1.67440      0.400000           0   0.00000       0.00000    
     12214 MEMB     68       POPE     O11      OD30B     1.17720       15.5994           0 -0.901000      0.181000    
     12215 MEMB     68       POPE     DO11     DRUD     -1.64720      0.400000           0   0.00000       0.00000    
     12216 MEMB     68       POPE     O12      OD30B     1.17720       15.5994           0 -0.901000      0.181000    
     12217 MEMB     68       POPE     DO12     DRUD     -1.64720      0.400000           0   0.00000       0.00000    
     12218 MEMB     68       POPE     C1       CD32A     2.42220       11.6110           0  -1.64200      0.862000    
     12219 MEMB     68       POPE     DC1      DRUD     -2.22370      0.400000           0   0.00000       0.00000    
     12220 MEMB     68       POPE     HA       HDA2A    0.260000E-01   1.00800           0   0.00000       0.00000    
     12221 MEMB     68       POPE     HB       HDA2A    0.260000E-01   1.00800           0   0.00000       0.00000    
     12222 MEMB     68       POPE     C2       CD31C     2.52830       11.6110           0  -1.79700      0.410000    
     12223 MEMB     68       POPE     DC2      DRUD     -2.32630      0.400000           0   0.00000       0.00000    
     12224 MEMB     68       POPE     HS       HDA1A    0.116000       1.00800           0   0.00000       0.00000    
     12225 MEMB     68       POPE     O21      OD30CL    1.48470       15.5994           0 -0.732000      0.601000    
     12226 MEMB     68       POPE     DO21     DRUD     -1.48470      0.400000           0   0.00000       0.00000    
     12227 MEMB     68       POPE     C21      CD2O3B    2.72820       11.6110           0  -1.37000       1.74700    
     12228 MEMB     68       POPE     DC21     DRUD     -2.03120      0.400000           0   0.00000       0.00000    
     12229 MEMB     68       POPE     O22      OD2C3B    1.64990       15.5994           0 -0.904000      0.565000    
     12230 MEMB     68       POPE     DO22     DRUD     -1.64990      0.400000           0   0.00000       0.00000    
     12231 MEMB     68       POPE     C22      CD32C     2.24380       11.6110           0  -1.99300      0.410000    
     12232 MEMB     68       POPE     DC22     DRUD     -2.44980      0.400000           0   0.00000       0.00000    
     12233 MEMB     68       POPE     H2R      HDA2A    0.690000E-01   1.00800           0   0.00000       0.00000    
     12234 MEMB     68       POPE     H2S      HDA2A    0.690000E-01   1.00800           0   0.00000       0.00000    
     12235 MEMB     68       POPE     LP1A     LPD     -0.349000       0.00000          -1   0.00000       0.00000    
     12236 MEMB     68       POPE     LP1B     LPD     -0.258000       0.00000          -1   0.00000       0.00000    
     12237 MEMB     68       POPE     LPMA     LPD     -0.170000       0.00000          -1   0.00000       0.00000    
     12238 MEMB     68       POPE     LPMB     LPD     -0.170000       0.00000          -1   0.00000       0.00000    
     12239 MEMB     68       POPE     C3       CD32C     2.41230       11.6110           0  -1.79700      0.410000    
     12240 MEMB     68       POPE     DC3      DRUD     -2.32630      0.400000           0   0.00000       0.00000    
     12241 MEMB     68       POPE     HX       HDA2A    0.116000       1.00800           0   0.00000       0.00000    
     12242 MEMB     68       POPE     HY       HDA2A    0.116000       1.00800           0   0.00000       0.00000    
     12243 MEMB     68       POPE     O31      OD30CL    1.48470       15.5994           0 -0.732000      0.601000    
     12244 MEMB     68       POPE     DO31     DRUD     -1.48470      0.400000           0   0.00000       0.00000    
     12245 MEMB     68       POPE     C31      CD2O3B    2.72820       11.6110           0  -1.37000       1.74700    
     12246 MEMB     68       POPE     DC31     DRUD     -2.03120      0.400000           0   0.00000       0.00000    
     12247 MEMB     68       POPE     O32      OD2C3B    1.64990       15.5994           0 -0.904000      0.565000    
     12248 MEMB     68       POPE     DO32     DRUD     -1.64990      0.400000           0   0.00000       0.00000    
     12249 MEMB     68       POPE     C32      CD32C     2.24380       11.6110           0  -1.99300      0.410000    
     12250 MEMB     68       POPE     DC32     DRUD     -2.44980      0.400000           0   0.00000       0.00000    
     12251 MEMB     68       POPE     H2X      HDA2A    0.690000E-01   1.00800           0   0.00000       0.00000    
     12252 MEMB     68       POPE     H2Y      HDA2A    0.690000E-01   1.00800           0   0.00000       0.00000    
     12253 MEMB     68       POPE     LP1C     LPD     -0.349000       0.00000          -1   0.00000       0.00000    
     12254 MEMB     68       POPE     LP1D     LPD     -0.258000       0.00000          -1   0.00000       0.00000    
     12255 MEMB     68       POPE     LPMC     LPD     -0.170000       0.00000          -1   0.00000       0.00000    
     12256 MEMB     68       POPE     LPMD     LPD     -0.170000       0.00000          -1   0.00000       0.00000    
     12257 MEMB     68       POPE     C23      CD32A     2.07980       11.6110           0  -1.66000       1.30000    
     12258 MEMB     68       POPE     DC23     DRUD     -2.23580      0.400000           0   0.00000       0.00000    
     12259 MEMB     68       POPE     H3R      HDA2A    0.780000E-01   1.00800           0   0.00000       0.00000    
     12260 MEMB     68       POPE     H3S      HDA2A    0.780000E-01   1.00800           0   0.00000       0.00000    
     12261 MEMB     68       POPE     C24      CD32A     2.07980       11.6110           0  -1.66000       1.30000    
     12262 MEMB     68       POPE     DC24     DRUD     -2.23580      0.400000           0   0.00000       0.00000    
     12263 MEMB     68       POPE     H4R      HDA2A    0.780000E-01   1.00800           0   0.00000       0.00000    
     12264 MEMB     68       POPE     H4S      HDA2A    0.780000E-01   1.00800           0   0.00000       0.00000    
     12265 MEMB     68       POPE     C25      CD32A     2.07980       11.6110           0  -1.66000       1.30000    
     12266 MEMB     68       POPE     DC25     DRUD     -2.23580      0.400000           0   0.00000       0.00000    
     12267 MEMB     68       POPE     H5R      HDA2A    0.780000E-01   1.00800           0   0.00000       0.00000    
     12268 MEMB     68       POPE     H5S      HDA2A    0.780000E-01   1.00800           0   0.00000       0.00000    
     12269 MEMB     68       POPE     C26      CD32A     2.07980       11.6110           0  -1.66000       1.30000    
     12270 MEMB     68       POPE     DC26     DRUD     -2.23580      0.400000           0   0.00000       0.00000    
     12271 MEMB     68       POPE     H6R      HDA2A    0.780000E-01   1.00800           0   0.00000       0.00000    
     12272 MEMB     68       POPE     H6S      HDA2A    0.780000E-01   1.00800           0   0.00000       0.00000    
     12273 MEMB     68       POPE     C27      CD32A     2.07980       11.6110           0  -1.66000       1.30000    
     12274 MEMB     68       POPE     DC27     DRUD     -2.23580      0.400000           0   0.00000       0.00000    
     12275 MEMB     68       POPE     H7R      HDA2A    0.780000E-01   1.00800           0   0.00000       0.00000    
     12276 MEMB     68       POPE     H7S      HDA2A    0.780000E-01   1.00800           0   0.00000       0.00000    
     12277 MEMB     68       POPE     C28      CD32A     2.07980       11.6110           0  -1.66000       1.30000    
     12278 MEMB     68       POPE     DC28     DRUD     -2.23580      0.400000           0   0.00000       0.00000    
     12279 MEMB     68       POPE     H8R      HDA2A    0.780000E-01   1.00800           0   0.00000       0.00000    
     12280 MEMB     68       POPE     H8S      HDA2A    0.780000E-01   1.00800           0   0.00000       0.00000    
     12281 MEMB     68       POPE     C29      CD2C1A    2.33700       11.6110           0  -1.99000      0.750000    
     12282 MEMB     68       POPE     DC29     DRUD     -2.44800      0.400000           0   0.00000       0.00000    
     12283 MEMB     68       POPE     H91      HD2C1A   0.111000       1.00800           0   0.00000       0.00000    
     12284 MEMB     68       POPE     C210     CD2C1A    2.33700       11.6110           0  -1.99000      0.750000    
     12285 MEMB     68       POPE     DC210    DRUD     -2.44800      0.400000           0   0.00000       0.00000    
     12286 MEMB     68       POPE     H101     HD2C1A   0.111000       1.00800           0   0.00000       0.00000    
     12287 MEMB     68       POPE     C211     CD32A     2.07980       11.6110           0  -1.66000       1.30000    
     12288 MEMB     68       POPE     DC211    DRUD     -2.23580      0.400000           0   0.00000       0.00000    
     12289 MEMB     68       POPE     H11R     HDA2A    0.780000E-01   1.00800           0   0.00000       0.00000    
     12290 MEMB     68       POPE     H11S     HDA2A    0.780000E-01   1.00800           0   0.00000       0.00000    
     12291 MEMB     68       POPE     C212     CD32A     2.07980       11.6110           0  -1.66000       1.30000    
     12292 MEMB     68       POPE     DC212    DRUD     -2.23580      0.400000           0   0.00000       0.00000    
     12293 MEMB     68       POPE     H12R     HDA2A    0.780000E-01   1.00800           0   0.00000       0.00000    
     12294 MEMB     68       POPE     H12S     HDA2A    0.780000E-01   1.00800           0   0.00000       0.00000    
     12295 MEMB     68       POPE     C213     CD32A     2.07980       11.6110           0  -1.66000       1.30000    
     12296 MEMB     68       POPE     DC213    DRUD     -2.23580      0.400000           0   0.00000       0.00000    
     12297 MEMB     68       POPE     H13R     HDA2A    0.780000E-01   1.00800           0   0.00000       0.00000    
     12298 MEMB     68       POPE     H13S     HDA2A    0.780000E-01   1.00800           0   0.00000       0.00000    
     12299 MEMB     68       POPE     C214     CD32A     2.07980       11.6110           0  -1.66000       1.30000    
     12300 MEMB     68       POPE     DC214    DRUD     -2.23580      0.400000           0   0.00000       0.00000    
     12301 MEMB     68       POPE     H14R     HDA2A    0.780000E-01   1.00800           0   0.00000       0.00000    
     12302 MEMB     68       POPE     H14S     HDA2A    0.780000E-01   1.00800           0   0.00000       0.00000    
     12303 MEMB     68       POPE     C215     CD32A     2.07980       11.6110           0  -1.66000       1.30000    
     12304 MEMB     68       POPE     DC215    DRUD     -2.23580      0.400000           0   0.00000       0.00000    
     12305 MEMB     68       POPE     H15R     HDA2A    0.780000E-01   1.00800           0   0.00000       0.00000    
     12306 MEMB     68       POPE     H15S     HDA2A    0.780000E-01   1.00800           0   0.00000       0.00000    
     12307 MEMB     68       POPE     C216     CD32A     2.07980       11.6110           0  -1.66000       1.30000    
     12308 MEMB     68       POPE     DC216    DRUD     -2.23580      0.400000           0   0.00000       0.00000    
     12309 MEMB     68       POPE     H16R     HDA2A    0.780000E-01   1.00800           0   0.00000       0.00000    
     12310 MEMB     68       POPE     H16S     HDA2A    0.780000E-01   1.00800           0   0.00000       0.00000    
     12311 MEMB     68       POPE     C217     CD32A     2.07980       11.6110           0  -1.66000       1.30000    
     12312 MEMB     68       POPE     DC217    DRUD     -2.23580      0.400000           0   0.00000       0.00000    
     12313 MEMB     68       POPE     H17R     HDA2A    0.780000E-01   1.00800           0   0.00000       0.00000    
     12314 MEMB     68       POPE     H17S     HDA2A    0.780000E-01   1.00800           0   0.00000       0.00000    
     12315 MEMB     68       POPE     C218     CD33A     2.30820       11.6110           0  -2.05100       1.30000    
     12316 MEMB     68       POPE     DC218    DRUD     -2.48520      0.400000           0   0.00000       0.00000    
     12317 MEMB     68       POPE     H18R     HDA3A    0.590000E-01   1.00800           0   0.00000       0.00000    
     12318 MEMB     68       POPE     H18S     HDA3A    0.590000E-01   1.00800           0   0.00000       0.00000    
     12319 MEMB     68       POPE     H18T     HDA3A    0.590000E-01   1.00800           0   0.00000       0.00000    
     12320 MEMB     68       POPE     C33      CD32A     2.07980       11.6110           0  -1.66000       1.30000    
     12321 MEMB     68       POPE     DC33     DRUD     -2.23580      0.400000           0   0.00000       0.00000    
     12322 MEMB     68       POPE     H3X      HDA2A    0.780000E-01   1.00800           0   0.00000       0.00000    
     12323 MEMB     68       POPE     H3Y      HDA2A    0.780000E-01   1.00800           0   0.00000       0.00000    
     12324 MEMB     68       POPE     C34      CD32A     2.07980       11.6110           0  -1.66000       1.30000    
     12325 MEMB     68       POPE     DC34     DRUD     -2.23580      0.400000           0   0.00000       0.00000    
     12326 MEMB     68       POPE     H4X      HDA2A    0.780000E-01   1.00800           0   0.00000       0.00000    
     12327 MEMB     68       POPE     H4Y      HDA2A    0.780000E-01   1.00800           0   0.00000       0.00000    
     12328 MEMB     68       POPE     C35      CD32A     2.07980       11.6110           0  -1.66000       1.30000    
     12329 MEMB     68       POPE     DC35     DRUD     -2.23580      0.400000           0   0.00000       0.00000    
     12330 MEMB     68       POPE     H5X      HDA2A    0.780000E-01   1.00800           0   0.00000       0.00000    
     12331 MEMB     68       POPE     H5Y      HDA2A    0.780000E-01   1.00800           0   0.00000       0.00000    
     12332 MEMB     68       POPE     C36      CD32A     2.07980       11.6110           0  -1.66000       1.30000    
     12333 MEMB     68       POPE     DC36     DRUD     -2.23580      0.400000           0   0.00000       0.00000    
     12334 MEMB     68       POPE     H6X      HDA2A    0.780000E-01   1.00800           0   0.00000       0.00000    
     12335 MEMB     68       POPE     H6Y      HDA2A    0.780000E-01   1.00800           0   0.00000       0.00000    
     12336 MEMB     68       POPE     C37      CD32A     2.07980       11.6110           0  -1.66000       1.30000    
     12337 MEMB     68       POPE     DC37     DRUD     -2.23580      0.400000           0   0.00000       0.00000    
     12338 MEMB     68       POPE     H7X      HDA2A    0.780000E-01   1.00800           0   0.00000       0.00000    
     12339 MEMB     68       POPE     H7Y      HDA2A    0.780000E-01   1.00800           0   0.00000       0.00000    
     12340 MEMB     68       POPE     C38      CD32A     2.07980       11.6110           0  -1.66000       1.30000    
     12341 MEMB     68       POPE     DC38     DRUD     -2.23580      0.400000           0   0.00000       0.00000    
     12342 MEMB     68       POPE     H8X      HDA2A    0.780000E-01   1.00800           0   0.00000       0.00000    
     12343 MEMB     68       POPE     H8Y      HDA2A    0.780000E-01   1.00800           0   0.00000       0.00000    
     12344 MEMB     68       POPE     C39      CD32A     2.07980       11.6110           0  -1.66000       1.30000    
     12345 MEMB     68       POPE     DC39     DRUD     -2.23580      0.400000           0   0.00000       0.00000    
     12346 MEMB     68       POPE     H9X      HDA2A    0.780000E-01   1.00800           0   0.00000       0.00000    
     12347 MEMB     68       POPE     H9Y      HDA2A    0.780000E-01   1.00800           0   0.00000       0.00000    
     12348 MEMB     68       POPE     C310     CD32A     2.07980       11.6110           0  -1.66000       1.30000    
     12349 MEMB     68       POPE     DC310    DRUD     -2.23580      0.400000           0   0.00000       0.00000    
     12350 MEMB     68       POPE     H10X     HDA2A    0.780000E-01   1.00800           0   0.00000       0.00000    
     12351 MEMB     68       POPE     H10Y     HDA2A    0.780000E-01   1.00800           0   0.00000       0.00000    
     12352 MEMB     68       POPE     C311     CD32A     2.07980       11.6110           0  -1.66000       1.30000    
     12353 MEMB     68       POPE     DC311    DRUD     -2.23580      0.400000           0   0.00000       0.00000    
     12354 MEMB     68       POPE     H11X     HDA2A    0.780000E-01   1.00800           0   0.00000       0.00000    
     12355 MEMB     68       POPE     H11Y     HDA2A    0.780000E-01   1.00800           0   0.00000       0.00000    
     12356 MEMB     68       POPE     C312     CD32A     2.07980       11.6110           0  -1.66000       1.30000    
     12357 MEMB     68       POPE     DC312    DRUD     -2.23580      0.400000           0   0.00000       0.00000    
     12358 MEMB     68       POPE     H12X     HDA2A    0.780000E-01   1.00800           0   0.00000       0.00000    
     12359 MEMB     68       POPE     H12Y     HDA2A    0.780000E-01   1.00800           0   0.00000       0.00000    
     12360 MEMB     68       POPE     C313     CD32A     2.07980       11.6110           0  -1.66000       1.30000    
     12361 MEMB     68       POPE     DC313    DRUD     -2.23580      0.400000           0   0.00000       0.00000    
     12362 MEMB     68       POPE     H13X     HDA2A    0.780000E-01   1.00800           0   0.00000       0.00000    
     12363 MEMB     68       POPE     H13Y     HDA2A    0.780000E-01   1.00800           0   0.00000       0.00000    
     12364 MEMB     68       POPE     C314     CD32A     2.07980       11.6110           0  -1.66000       1.30000    
     12365 MEMB     68       POPE     DC314    DRUD     -2.23580      0.400000           0   0.00000       0.00000    
     12366 MEMB     68       POPE     H14X     HDA2A    0.780000E-01   1.00800           0   0.00000       0.00000    
     12367 MEMB     68       POPE     H14Y     HDA2A    0.780000E-01   1.00800           0   0.00000       0.00000    
     12368 MEMB     68       POPE     C315     CD32A     2.07980       11.6110           0  -1.66000       1.30000    
     12369 MEMB     68       POPE     DC315    DRUD     -2.23580      0.400000           0   0.00000       0.00000    
     12370 MEMB     68       POPE     H15X     HDA2A    0.780000E-01   1.00800           0   0.00000       0.00000    
     12371 MEMB     68       POPE     H15Y     HDA2A    0.780000E-01   1.00800           0   0.00000       0.00000    
     12372 MEMB     68       POPE     C316     CD33A     2.30820       11.6110           0  -2.05100       1.30000    
     12373 MEMB     68       POPE     DC316    DRUD     -2.48520      0.400000           0   0.00000       0.00000    
     12374 MEMB     68       POPE     H16X     HDA3A    0.590000E-01   1.00800           0   0.00000       0.00000    
     12375 MEMB     68       POPE     H16Y     HDA3A    0.590000E-01   1.00800           0   0.00000       0.00000    
     12376 MEMB     68       POPE     H16Z     HDA3A    0.590000E-01   1.00800           0   0.00000       0.00000    
     12377 MEMB     69       POPE     N        ND3P3A    1.62810       13.6070           0  -1.29800      0.895000    
     12378 MEMB     69       POPE     DN       DRUD     -1.97710      0.400000           0   0.00000       0.00000    
     12379 MEMB     69       POPE     HN1      HDP1B    0.340000       1.00800           0   0.00000       0.00000    
     12380 MEMB     69       POPE     HN2      HDP1B    0.340000       1.00800           0   0.00000       0.00000    
     12381 MEMB     69       POPE     HN3      HDP1B    0.340000       1.00800           0   0.00000       0.00000    
     12382 MEMB     69       POPE     C12      CD32A     2.27610       11.6110           0  -1.65600      0.895000    
     12383 MEMB     69       POPE     DC12     DRUD     -2.23310      0.400000           0   0.00000       0.00000    
     12384 MEMB     69       POPE     H12A     HDA2A    0.143000       1.00800           0   0.00000       0.00000    
     12385 MEMB     69       POPE     H12B     HDA2A    0.143000       1.00800           0   0.00000       0.00000    
     12386 MEMB     69       POPE     C11      CD32A     2.42220       11.6110           0  -1.64200      0.862000    
     12387 MEMB     69       POPE     DC11     DRUD     -2.22370      0.400000           0   0.00000       0.00000    
     12388 MEMB     69       POPE     H11A     HDA2A    0.260000E-01   1.00800           0   0.00000       0.00000    
     12389 MEMB     69       POPE     H11B     HDA2A    0.260000E-01   1.00800           0   0.00000       0.00000    
     12390 MEMB     69       POPE     P        PD1A      2.90360       30.5740           0 -0.974000       2.09800    
     12391 MEMB     69       POPE     DP       DRUD     -1.71260      0.400000           0   0.00000       0.00000    
     12392 MEMB     69       POPE     O13      OD2C2B   0.798400       15.5994           0 -0.931000       1.08300    
     12393 MEMB     69       POPE     DO13     DRUD     -1.67440      0.400000           0   0.00000       0.00000    
     12394 MEMB     69       POPE     O14      OD2C2B   0.798400       15.5994           0 -0.931000       1.08300    
     12395 MEMB     69       POPE     DO14     DRUD     -1.67440      0.400000           0   0.00000       0.00000    
     12396 MEMB     69       POPE     O11      OD30B     1.17720       15.5994           0 -0.901000      0.181000    
     12397 MEMB     69       POPE     DO11     DRUD     -1.64720      0.400000           0   0.00000       0.00000    
     12398 MEMB     69       POPE     O12      OD30B     1.17720       15.5994           0 -0.901000      0.181000    
     12399 MEMB     69       POPE     DO12     DRUD     -1.64720      0.400000           0   0.00000       0.00000    
     12400 MEMB     69       POPE     C1       CD32A     2.42220       11.6110           0  -1.64200      0.862000    
     12401 MEMB     69       POPE     DC1      DRUD     -2.22370      0.400000           0   0.00000       0.00000    
     12402 MEMB     69       POPE     HA       HDA2A    0.260000E-01   1.00800           0   0.00000       0.00000    
     12403 MEMB     69       POPE     HB       HDA2A    0.260000E-01   1.00800           0   0.00000       0.00000    
     12404 MEMB     69       POPE     C2       CD31C     2.52830       11.6110           0  -1.79700      0.410000    
     12405 MEMB     69       POPE     DC2      DRUD     -2.32630      0.400000           0   0.00000       0.00000    
     12406 MEMB     69       POPE     HS       HDA1A    0.116000       1.00800           0   0.00000       0.00000    
     12407 MEMB     69       POPE     O21      OD30CL    1.48470       15.5994           0 -0.732000      0.601000    
     12408 MEMB     69       POPE     DO21     DRUD     -1.48470      0.400000           0   0.00000       0.00000    
     12409 MEMB     69       POPE     C21      CD2O3B    2.72820       11.6110           0  -1.37000       1.74700    
     12410 MEMB     69       POPE     DC21     DRUD     -2.03120      0.400000           0   0.00000       0.00000    
     12411 MEMB     69       POPE     O22      OD2C3B    1.64990       15.5994           0 -0.904000      0.565000    
     12412 MEMB     69       POPE     DO22     DRUD     -1.64990      0.400000           0   0.00000       0.00000    
     12413 MEMB     69       POPE     C22      CD32C     2.24380       11.6110           0  -1.99300      0.410000    
     12414 MEMB     69       POPE     DC22     DRUD     -2.44980      0.400000           0   0.00000       0.00000    
     12415 MEMB     69       POPE     H2R      HDA2A    0.690000E-01   1.00800           0   0.00000       0.00000    
     12416 MEMB     69       POPE     H2S      HDA2A    0.690000E-01   1.00800           0   0.00000       0.00000    
     12417 MEMB     69       POPE     LP1A     LPD     -0.349000       0.00000          -1   0.00000       0.00000    
     12418 MEMB     69       POPE     LP1B     LPD     -0.258000       0.00000          -1   0.00000       0.00000    
     12419 MEMB     69       POPE     LPMA     LPD     -0.170000       0.00000          -1   0.00000       0.00000    
     12420 MEMB     69       POPE     LPMB     LPD     -0.170000       0.00000          -1   0.00000       0.00000    
     12421 MEMB     69       POPE     C3       CD32C     2.41230       11.6110           0  -1.79700      0.410000    
     12422 MEMB     69       POPE     DC3      DRUD     -2.32630      0.400000           0   0.00000       0.00000    
     12423 MEMB     69       POPE     HX       HDA2A    0.116000       1.00800           0   0.00000       0.00000    
     12424 MEMB     69       POPE     HY       HDA2A    0.116000       1.00800           0   0.00000       0.00000    
     12425 MEMB     69       POPE     O31      OD30CL    1.48470       15.5994           0 -0.732000      0.601000    
     12426 MEMB     69       POPE     DO31     DRUD     -1.48470      0.400000           0   0.00000       0.00000    
     12427 MEMB     69       POPE     C31      CD2O3B    2.72820       11.6110           0  -1.37000       1.74700    
     12428 MEMB     69       POPE     DC31     DRUD     -2.03120      0.400000           0   0.00000       0.00000    
     12429 MEMB     69       POPE     O32      OD2C3B    1.64990       15.5994           0 -0.904000      0.565000    
     12430 MEMB     69       POPE     DO32     DRUD     -1.64990      0.400000           0   0.00000       0.00000    
     12431 MEMB     69       POPE     C32      CD32C     2.24380       11.6110           0  -1.99300      0.410000    
     12432 MEMB     69       POPE     DC32     DRUD     -2.44980      0.400000           0   0.00000       0.00000    
     12433 MEMB     69       POPE     H2X      HDA2A    0.690000E-01   1.00800           0   0.00000       0.00000    
     12434 MEMB     69       POPE     H2Y      HDA2A    0.690000E-01   1.00800           0   0.00000       0.00000    
     12435 MEMB     69       POPE     LP1C     LPD     -0.349000       0.00000          -1   0.00000       0.00000    
     12436 MEMB     69       POPE     LP1D     LPD     -0.258000       0.00000          -1   0.00000       0.00000    
     12437 MEMB     69       POPE     LPMC     LPD     -0.170000       0.00000          -1   0.00000       0.00000    
     12438 MEMB     69       POPE     LPMD     LPD     -0.170000       0.00000          -1   0.00000       0.00000    
     12439 MEMB     69       POPE     C23      CD32A     2.07980       11.6110           0  -1.66000       1.30000    
     12440 MEMB     69       POPE     DC23     DRUD     -2.23580      0.400000           0   0.00000       0.00000    
     12441 MEMB     69       POPE     H3R      HDA2A    0.780000E-01   1.00800           0   0.00000       0.00000    
     12442 MEMB     69       POPE     H3S      HDA2A    0.780000E-01   1.00800           0   0.00000       0.00000    
     12443 MEMB     69       POPE     C24      CD32A     2.07980       11.6110           0  -1.66000       1.30000    
     12444 MEMB     69       POPE     DC24     DRUD     -2.23580      0.400000           0   0.00000       0.00000    
     12445 MEMB     69       POPE     H4R      HDA2A    0.780000E-01   1.00800           0   0.00000       0.00000    
     12446 MEMB     69       POPE     H4S      HDA2A    0.780000E-01   1.00800           0   0.00000       0.00000    
     12447 MEMB     69       POPE     C25      CD32A     2.07980       11.6110           0  -1.66000       1.30000    
     12448 MEMB     69       POPE     DC25     DRUD     -2.23580      0.400000           0   0.00000       0.00000    
     12449 MEMB     69       POPE     H5R      HDA2A    0.780000E-01   1.00800           0   0.00000       0.00000    
     12450 MEMB     69       POPE     H5S      HDA2A    0.780000E-01   1.00800           0   0.00000       0.00000    
     12451 MEMB     69       POPE     C26      CD32A     2.07980       11.6110           0  -1.66000       1.30000    
     12452 MEMB     69       POPE     DC26     DRUD     -2.23580      0.400000           0   0.00000       0.00000    
     12453 MEMB     69       POPE     H6R      HDA2A    0.780000E-01   1.00800           0   0.00000       0.00000    
     12454 MEMB     69       POPE     H6S      HDA2A    0.780000E-01   1.00800           0   0.00000       0.00000    
     12455 MEMB     69       POPE     C27      CD32A     2.07980       11.6110           0  -1.66000       1.30000    
     12456 MEMB     69       POPE     DC27     DRUD     -2.23580      0.400000           0   0.00000       0.00000    
     12457 MEMB     69       POPE     H7R      HDA2A    0.780000E-01   1.00800           0   0.00000       0.00000    
     12458 MEMB     69       POPE     H7S      HDA2A    0.780000E-01   1.00800           0   0.00000       0.00000    
     12459 MEMB     69       POPE     C28      CD32A     2.07980       11.6110           0  -1.66000       1.30000    
     12460 MEMB     69       POPE     DC28     DRUD     -2.23580      0.400000           0   0.00000       0.00000    
     12461 MEMB     69       POPE     H8R      HDA2A    0.780000E-01   1.00800           0   0.00000       0.00000    
     12462 MEMB     69       POPE     H8S      HDA2A    0.780000E-01   1.00800           0   0.00000       0.00000    
     12463 MEMB     69       POPE     C29      CD2C1A    2.33700       11.6110           0  -1.99000      0.750000    
     12464 MEMB     69       POPE     DC29     DRUD     -2.44800      0.400000           0   0.00000       0.00000    
     12465 MEMB     69       POPE     H91      HD2C1A   0.111000       1.00800           0   0.00000       0.00000    
     12466 MEMB     69       POPE     C210     CD2C1A    2.33700       11.6110           0  -1.99000      0.750000    
     12467 MEMB     69       POPE     DC210    DRUD     -2.44800      0.400000           0   0.00000       0.00000    
     12468 MEMB     69       POPE     H101     HD2C1A   0.111000       1.00800           0   0.00000       0.00000    
     12469 MEMB     69       POPE     C211     CD32A     2.07980       11.6110           0  -1.66000       1.30000    
     12470 MEMB     69       POPE     DC211    DRUD     -2.23580      0.400000           0   0.00000       0.00000    
     12471 MEMB     69       POPE     H11R     HDA2A    0.780000E-01   1.00800           0   0.00000       0.00000    
     12472 MEMB     69       POPE     H11S     HDA2A    0.780000E-01   1.00800           0   0.00000       0.00000    
     12473 MEMB     69       POPE     C212     CD32A     2.07980       11.6110           0  -1.66000       1.30000    
     12474 MEMB     69       POPE     DC212    DRUD     -2.23580      0.400000           0   0.00000       0.00000    
     12475 MEMB     69       POPE     H12R     HDA2A    0.780000E-01   1.00800           0   0.00000       0.00000    
     12476 MEMB     69       POPE     H12S     HDA2A    0.780000E-01   1.00800           0   0.00000       0.00000    
     12477 MEMB     69       POPE     C213     CD32A     2.07980       11.6110           0  -1.66000       1.30000    
     12478 MEMB     69       POPE     DC213    DRUD     -2.23580      0.400000           0   0.00000       0.00000    
     12479 MEMB     69       POPE     H13R     HDA2A    0.780000E-01   1.00800           0   0.00000       0.00000    
     12480 MEMB     69       POPE     H13S     HDA2A    0.780000E-01   1.00800           0   0.00000       0.00000    
     12481 MEMB     69       POPE     C214     CD32A     2.07980       11.6110           0  -1.66000       1.30000    
     12482 MEMB     69       POPE     DC214    DRUD     -2.23580      0.400000           0   0.00000       0.00000    
     12483 MEMB     69       POPE     H14R     HDA2A    0.780000E-01   1.00800           0   0.00000       0.00000    
     12484 MEMB     69       POPE     H14S     HDA2A    0.780000E-01   1.00800           0   0.00000       0.00000    
     12485 MEMB     69       POPE     C215     CD32A     2.07980       11.6110           0  -1.66000       1.30000    
     12486 MEMB     69       POPE     DC215    DRUD     -2.23580      0.400000           0   0.00000       0.00000    
     12487 MEMB     69       POPE     H15R     HDA2A    0.780000E-01   1.00800           0   0.00000       0.00000    
     12488 MEMB     69       POPE     H15S     HDA2A    0.780000E-01   1.00800           0   0.00000       0.00000    
     12489 MEMB     69       POPE     C216     CD32A     2.07980       11.6110           0  -1.66000       1.30000    
     12490 MEMB     69       POPE     DC216    DRUD     -2.23580      0.400000           0   0.00000       0.00000    
     12491 MEMB     69       POPE     H16R     HDA2A    0.780000E-01   1.00800           0   0.00000       0.00000    
     12492 MEMB     69       POPE     H16S     HDA2A    0.780000E-01   1.00800           0   0.00000       0.00000    
     12493 MEMB     69       POPE     C217     CD32A     2.07980       11.6110           0  -1.66000       1.30000    
     12494 MEMB     69       POPE     DC217    DRUD     -2.23580      0.400000           0   0.00000       0.00000    
     12495 MEMB     69       POPE     H17R     HDA2A    0.780000E-01   1.00800           0   0.00000       0.00000    
     12496 MEMB     69       POPE     H17S     HDA2A    0.780000E-01   1.00800           0   0.00000       0.00000    
     12497 MEMB     69       POPE     C218     CD33A     2.30820       11.6110           0  -2.05100       1.30000    
     12498 MEMB     69       POPE     DC218    DRUD     -2.48520      0.400000           0   0.00000       0.00000    
     12499 MEMB     69       POPE     H18R     HDA3A    0.590000E-01   1.00800           0   0.00000       0.00000    
     12500 MEMB     69       POPE     H18S     HDA3A    0.590000E-01   1.00800           0   0.00000       0.00000    
     12501 MEMB     69       POPE     H18T     HDA3A    0.590000E-01   1.00800           0   0.00000       0.00000    
     12502 MEMB     69       POPE     C33      CD32A     2.07980       11.6110           0  -1.66000       1.30000    
     12503 MEMB     69       POPE     DC33     DRUD     -2.23580      0.400000           0   0.00000       0.00000    
     12504 MEMB     69       POPE     H3X      HDA2A    0.780000E-01   1.00800           0   0.00000       0.00000    
     12505 MEMB     69       POPE     H3Y      HDA2A    0.780000E-01   1.00800           0   0.00000       0.00000    
     12506 MEMB     69       POPE     C34      CD32A     2.07980       11.6110           0  -1.66000       1.30000    
     12507 MEMB     69       POPE     DC34     DRUD     -2.23580      0.400000           0   0.00000       0.00000    
     12508 MEMB     69       POPE     H4X      HDA2A    0.780000E-01   1.00800           0   0.00000       0.00000    
     12509 MEMB     69       POPE     H4Y      HDA2A    0.780000E-01   1.00800           0   0.00000       0.00000    
     12510 MEMB     69       POPE     C35      CD32A     2.07980       11.6110           0  -1.66000       1.30000    
     12511 MEMB     69       POPE     DC35     DRUD     -2.23580      0.400000           0   0.00000       0.00000    
     12512 MEMB     69       POPE     H5X      HDA2A    0.780000E-01   1.00800           0   0.00000       0.00000    
     12513 MEMB     69       POPE     H5Y      HDA2A    0.780000E-01   1.00800           0   0.00000       0.00000    
     12514 MEMB     69       POPE     C36      CD32A     2.07980       11.6110           0  -1.66000       1.30000    
     12515 MEMB     69       POPE     DC36     DRUD     -2.23580      0.400000           0   0.00000       0.00000    
     12516 MEMB     69       POPE     H6X      HDA2A    0.780000E-01   1.00800           0   0.00000       0.00000    
     12517 MEMB     69       POPE     H6Y      HDA2A    0.780000E-01   1.00800           0   0.00000       0.00000    
     12518 MEMB     69       POPE     C37      CD32A     2.07980       11.6110           0  -1.66000       1.30000    
     12519 MEMB     69       POPE     DC37     DRUD     -2.23580      0.400000           0   0.00000       0.00000    
     12520 MEMB     69       POPE     H7X      HDA2A    0.780000E-01   1.00800           0   0.00000       0.00000    
     12521 MEMB     69       POPE     H7Y      HDA2A    0.780000E-01   1.00800           0   0.00000       0.00000    
     12522 MEMB     69       POPE     C38      CD32A     2.07980       11.6110           0  -1.66000       1.30000    
     12523 MEMB     69       POPE     DC38     DRUD     -2.23580      0.400000           0   0.00000       0.00000    
     12524 MEMB     69       POPE     H8X      HDA2A    0.780000E-01   1.00800           0   0.00000       0.00000    
     12525 MEMB     69       POPE     H8Y      HDA2A    0.780000E-01   1.00800           0   0.00000       0.00000    
     12526 MEMB     69       POPE     C39      CD32A     2.07980       11.6110           0  -1.66000       1.30000    
     12527 MEMB     69       POPE     DC39     DRUD     -2.23580      0.400000           0   0.00000       0.00000    
     12528 MEMB     69       POPE     H9X      HDA2A    0.780000E-01   1.00800           0   0.00000       0.00000    
     12529 MEMB     69       POPE     H9Y      HDA2A    0.780000E-01   1.00800           0   0.00000       0.00000    
     12530 MEMB     69       POPE     C310     CD32A     2.07980       11.6110           0  -1.66000       1.30000    
     12531 MEMB     69       POPE     DC310    DRUD     -2.23580      0.400000           0   0.00000       0.00000    
     12532 MEMB     69       POPE     H10X     HDA2A    0.780000E-01   1.00800           0   0.00000       0.00000    
     12533 MEMB     69       POPE     H10Y     HDA2A    0.780000E-01   1.00800           0   0.00000       0.00000    
     12534 MEMB     69       POPE     C311     CD32A     2.07980       11.6110           0  -1.66000       1.30000    
     12535 MEMB     69       POPE     DC311    DRUD     -2.23580      0.400000           0   0.00000       0.00000    
     12536 MEMB     69       POPE     H11X     HDA2A    0.780000E-01   1.00800           0   0.00000       0.00000    
     12537 MEMB     69       POPE     H11Y     HDA2A    0.780000E-01   1.00800           0   0.00000       0.00000    
     12538 MEMB     69       POPE     C312     CD32A     2.07980       11.6110           0  -1.66000       1.30000    
     12539 MEMB     69       POPE     DC312    DRUD     -2.23580      0.400000           0   0.00000       0.00000    
     12540 MEMB     69       POPE     H12X     HDA2A    0.780000E-01   1.00800           0   0.00000       0.00000    
     12541 MEMB     69       POPE     H12Y     HDA2A    0.780000E-01   1.00800           0   0.00000       0.00000    
     12542 MEMB     69       POPE     C313     CD32A     2.07980       11.6110           0  -1.66000       1.30000    
     12543 MEMB     69       POPE     DC313    DRUD     -2.23580      0.400000           0   0.00000       0.00000    
     12544 MEMB     69       POPE     H13X     HDA2A    0.780000E-01   1.00800           0   0.00000       0.00000    
     12545 MEMB     69       POPE     H13Y     HDA2A    0.780000E-01   1.00800           0   0.00000       0.00000    
     12546 MEMB     69       POPE     C314     CD32A     2.07980       11.6110           0  -1.66000       1.30000    
     12547 MEMB     69       POPE     DC314    DRUD     -2.23580      0.400000           0   0.00000       0.00000    
     12548 MEMB     69       POPE     H14X     HDA2A    0.780000E-01   1.00800           0   0.00000       0.00000    
     12549 MEMB     69       POPE     H14Y     HDA2A    0.780000E-01   1.00800           0   0.00000       0.00000    
     12550 MEMB     69       POPE     C315     CD32A     2.07980       11.6110           0  -1.66000       1.30000    
     12551 MEMB     69       POPE     DC315    DRUD     -2.23580      0.400000           0   0.00000       0.00000    
     12552 MEMB     69       POPE     H15X     HDA2A    0.780000E-01   1.00800           0   0.00000       0.00000    
     12553 MEMB     69       POPE     H15Y     HDA2A    0.780000E-01   1.00800           0   0.00000       0.00000    
     12554 MEMB     69       POPE     C316     CD33A     2.30820       11.6110           0  -2.05100       1.30000    
     12555 MEMB     69       POPE     DC316    DRUD     -2.48520      0.400000           0   0.00000       0.00000    
     12556 MEMB     69       POPE     H16X     HDA3A    0.590000E-01   1.00800           0   0.00000       0.00000    
     12557 MEMB     69       POPE     H16Y     HDA3A    0.590000E-01   1.00800           0   0.00000       0.00000    
     12558 MEMB     69       POPE     H16Z     HDA3A    0.590000E-01   1.00800           0   0.00000       0.00000    
     12559 MEMB     70       POPE     N        ND3P3A    1.62810       13.6070           0  -1.29800      0.895000    
     12560 MEMB     70       POPE     DN       DRUD     -1.97710      0.400000           0   0.00000       0.00000    
     12561 MEMB     70       POPE     HN1      HDP1B    0.340000       1.00800           0   0.00000       0.00000    
     12562 MEMB     70       POPE     HN2      HDP1B    0.340000       1.00800           0   0.00000       0.00000    
     12563 MEMB     70       POPE     HN3      HDP1B    0.340000       1.00800           0   0.00000       0.00000    
     12564 MEMB     70       POPE     C12      CD32A     2.27610       11.6110           0  -1.65600      0.895000    
     12565 MEMB     70       POPE     DC12     DRUD     -2.23310      0.400000           0   0.00000       0.00000    
     12566 MEMB     70       POPE     H12A     HDA2A    0.143000       1.00800           0   0.00000       0.00000    
     12567 MEMB     70       POPE     H12B     HDA2A    0.143000       1.00800           0   0.00000       0.00000    
     12568 MEMB     70       POPE     C11      CD32A     2.42220       11.6110           0  -1.64200      0.862000    
     12569 MEMB     70       POPE     DC11     DRUD     -2.22370      0.400000           0   0.00000       0.00000    
     12570 MEMB     70       POPE     H11A     HDA2A    0.260000E-01   1.00800           0   0.00000       0.00000    
     12571 MEMB     70       POPE     H11B     HDA2A    0.260000E-01   1.00800           0   0.00000       0.00000    
     12572 MEMB     70       POPE     P        PD1A      2.90360       30.5740           0 -0.974000       2.09800    
     12573 MEMB     70       POPE     DP       DRUD     -1.71260      0.400000           0   0.00000       0.00000    
     12574 MEMB     70       POPE     O13      OD2C2B   0.798400       15.5994           0 -0.931000       1.08300    
     12575 MEMB     70       POPE     DO13     DRUD     -1.67440      0.400000           0   0.00000       0.00000    
     12576 MEMB     70       POPE     O14      OD2C2B   0.798400       15.5994           0 -0.931000       1.08300    
     12577 MEMB     70       POPE     DO14     DRUD     -1.67440      0.400000           0   0.00000       0.00000    
     12578 MEMB     70       POPE     O11      OD30B     1.17720       15.5994           0 -0.901000      0.181000    
     12579 MEMB     70       POPE     DO11     DRUD     -1.64720      0.400000           0   0.00000       0.00000    
     12580 MEMB     70       POPE     O12      OD30B     1.17720       15.5994           0 -0.901000      0.181000    
     12581 MEMB     70       POPE     DO12     DRUD     -1.64720      0.400000           0   0.00000       0.00000    
     12582 MEMB     70       POPE     C1       CD32A     2.42220       11.6110           0  -1.64200      0.862000    
     12583 MEMB     70       POPE     DC1      DRUD     -2.22370      0.400000           0   0.00000       0.00000    
     12584 MEMB     70       POPE     HA       HDA2A    0.260000E-01   1.00800           0   0.00000       0.00000    
     12585 MEMB     70       POPE     HB       HDA2A    0.260000E-01   1.00800           0   0.00000       0.00000    
     12586 MEMB     70       POPE     C2       CD31C     2.52830       11.6110           0  -1.79700      0.410000    
     12587 MEMB     70       POPE     DC2      DRUD     -2.32630      0.400000           0   0.00000       0.00000    
     12588 MEMB     70       POPE     HS       HDA1A    0.116000       1.00800           0   0.00000       0.00000    
     12589 MEMB     70       POPE     O21      OD30CL    1.48470       15.5994           0 -0.732000      0.601000    
     12590 MEMB     70       POPE     DO21     DRUD     -1.48470      0.400000           0   0.00000       0.00000    
     12591 MEMB     70       POPE     C21      CD2O3B    2.72820       11.6110           0  -1.37000       1.74700    
     12592 MEMB     70       POPE     DC21     DRUD     -2.03120      0.400000           0   0.00000       0.00000    
     12593 MEMB     70       POPE     O22      OD2C3B    1.64990       15.5994           0 -0.904000      0.565000    
     12594 MEMB     70       POPE     DO22     DRUD     -1.64990      0.400000           0   0.00000       0.00000    
     12595 MEMB     70       POPE     C22      CD32C     2.24380       11.6110           0  -1.99300      0.410000    
     12596 MEMB     70       POPE     DC22     DRUD     -2.44980      0.400000           0   0.00000       0.00000    
     12597 MEMB     70       POPE     H2R      HDA2A    0.690000E-01   1.00800           0   0.00000       0.00000    
     12598 MEMB     70       POPE     H2S      HDA2A    0.690000E-01   1.00800           0   0.00000       0.00000    
     12599 MEMB     70       POPE     LP1A     LPD     -0.349000       0.00000          -1   0.00000       0.00000    
     12600 MEMB     70       POPE     LP1B     LPD     -0.258000       0.00000          -1   0.00000       0.00000    
     12601 MEMB     70       POPE     LPMA     LPD     -0.170000       0.00000          -1   0.00000       0.00000    
     12602 MEMB     70       POPE     LPMB     LPD     -0.170000       0.00000          -1   0.00000       0.00000    
     12603 MEMB     70       POPE     C3       CD32C     2.41230       11.6110           0  -1.79700      0.410000    
     12604 MEMB     70       POPE     DC3      DRUD     -2.32630      0.400000           0   0.00000       0.00000    
     12605 MEMB     70       POPE     HX       HDA2A    0.116000       1.00800           0   0.00000       0.00000    
     12606 MEMB     70       POPE     HY       HDA2A    0.116000       1.00800           0   0.00000       0.00000    
     12607 MEMB     70       POPE     O31      OD30CL    1.48470       15.5994           0 -0.732000      0.601000    
     12608 MEMB     70       POPE     DO31     DRUD     -1.48470      0.400000           0   0.00000       0.00000    
     12609 MEMB     70       POPE     C31      CD2O3B    2.72820       11.6110           0  -1.37000       1.74700    
     12610 MEMB     70       POPE     DC31     DRUD     -2.03120      0.400000           0   0.00000       0.00000    
     12611 MEMB     70       POPE     O32      OD2C3B    1.64990       15.5994           0 -0.904000      0.565000    
     12612 MEMB     70       POPE     DO32     DRUD     -1.64990      0.400000           0   0.00000       0.00000    
     12613 MEMB     70       POPE     C32      CD32C     2.24380       11.6110           0  -1.99300      0.410000    
     12614 MEMB     70       POPE     DC32     DRUD     -2.44980      0.400000           0   0.00000       0.00000    
     12615 MEMB     70       POPE     H2X      HDA2A    0.690000E-01   1.00800           0   0.00000       0.00000    
     12616 MEMB     70       POPE     H2Y      HDA2A    0.690000E-01   1.00800           0   0.00000       0.00000    
     12617 MEMB     70       POPE     LP1C     LPD     -0.349000       0.00000          -1   0.00000       0.00000    
     12618 MEMB     70       POPE     LP1D     LPD     -0.258000       0.00000          -1   0.00000       0.00000    
     12619 MEMB     70       POPE     LPMC     LPD     -0.170000       0.00000          -1   0.00000       0.00000    
     12620 MEMB     70       POPE     LPMD     LPD     -0.170000       0.00000          -1   0.00000       0.00000    
     12621 MEMB     70       POPE     C23      CD32A     2.07980       11.6110           0  -1.66000       1.30000    
     12622 MEMB     70       POPE     DC23     DRUD     -2.23580      0.400000           0   0.00000       0.00000    
     12623 MEMB     70       POPE     H3R      HDA2A    0.780000E-01   1.00800           0   0.00000       0.00000    
     12624 MEMB     70       POPE     H3S      HDA2A    0.780000E-01   1.00800           0   0.00000       0.00000    
     12625 MEMB     70       POPE     C24      CD32A     2.07980       11.6110           0  -1.66000       1.30000    
     12626 MEMB     70       POPE     DC24     DRUD     -2.23580      0.400000           0   0.00000       0.00000    
     12627 MEMB     70       POPE     H4R      HDA2A    0.780000E-01   1.00800           0   0.00000       0.00000    
     12628 MEMB     70       POPE     H4S      HDA2A    0.780000E-01   1.00800           0   0.00000       0.00000    
     12629 MEMB     70       POPE     C25      CD32A     2.07980       11.6110           0  -1.66000       1.30000    
     12630 MEMB     70       POPE     DC25     DRUD     -2.23580      0.400000           0   0.00000       0.00000    
     12631 MEMB     70       POPE     H5R      HDA2A    0.780000E-01   1.00800           0   0.00000       0.00000    
     12632 MEMB     70       POPE     H5S      HDA2A    0.780000E-01   1.00800           0   0.00000       0.00000    
     12633 MEMB     70       POPE     C26      CD32A     2.07980       11.6110           0  -1.66000       1.30000    
     12634 MEMB     70       POPE     DC26     DRUD     -2.23580      0.400000           0   0.00000       0.00000    
     12635 MEMB     70       POPE     H6R      HDA2A    0.780000E-01   1.00800           0   0.00000       0.00000    
     12636 MEMB     70       POPE     H6S      HDA2A    0.780000E-01   1.00800           0   0.00000       0.00000    
     12637 MEMB     70       POPE     C27      CD32A     2.07980       11.6110           0  -1.66000       1.30000    
     12638 MEMB     70       POPE     DC27     DRUD     -2.23580      0.400000           0   0.00000       0.00000    
     12639 MEMB     70       POPE     H7R      HDA2A    0.780000E-01   1.00800           0   0.00000       0.00000    
     12640 MEMB     70       POPE     H7S      HDA2A    0.780000E-01   1.00800           0   0.00000       0.00000    
     12641 MEMB     70       POPE     C28      CD32A     2.07980       11.6110           0  -1.66000       1.30000    
     12642 MEMB     70       POPE     DC28     DRUD     -2.23580      0.400000           0   0.00000       0.00000    
     12643 MEMB     70       POPE     H8R      HDA2A    0.780000E-01   1.00800           0   0.00000       0.00000    
     12644 MEMB     70       POPE     H8S      HDA2A    0.780000E-01   1.00800           0   0.00000       0.00000    
     12645 MEMB     70       POPE     C29      CD2C1A    2.33700       11.6110           0  -1.99000      0.750000    
     12646 MEMB     70       POPE     DC29     DRUD     -2.44800      0.400000           0   0.00000       0.00000    
     12647 MEMB     70       POPE     H91      HD2C1A   0.111000       1.00800           0   0.00000       0.00000    
     12648 MEMB     70       POPE     C210     CD2C1A    2.33700       11.6110           0  -1.99000      0.750000    
     12649 MEMB     70       POPE     DC210    DRUD     -2.44800      0.400000           0   0.00000       0.00000    
     12650 MEMB     70       POPE     H101     HD2C1A   0.111000       1.00800           0   0.00000       0.00000    
     12651 MEMB     70       POPE     C211     CD32A     2.07980       11.6110           0  -1.66000       1.30000    
     12652 MEMB     70       POPE     DC211    DRUD     -2.23580      0.400000           0   0.00000       0.00000    
     12653 MEMB     70       POPE     H11R     HDA2A    0.780000E-01   1.00800           0   0.00000       0.00000    
     12654 MEMB     70       POPE     H11S     HDA2A    0.780000E-01   1.00800           0   0.00000       0.00000    
     12655 MEMB     70       POPE     C212     CD32A     2.07980       11.6110           0  -1.66000       1.30000    
     12656 MEMB     70       POPE     DC212    DRUD     -2.23580      0.400000           0   0.00000       0.00000    
     12657 MEMB     70       POPE     H12R     HDA2A    0.780000E-01   1.00800           0   0.00000       0.00000    
     12658 MEMB     70       POPE     H12S     HDA2A    0.780000E-01   1.00800           0   0.00000       0.00000    
     12659 MEMB     70       POPE     C213     CD32A     2.07980       11.6110           0  -1.66000       1.30000    
     12660 MEMB     70       POPE     DC213    DRUD     -2.23580      0.400000           0   0.00000       0.00000    
     12661 MEMB     70       POPE     H13R     HDA2A    0.780000E-01   1.00800           0   0.00000       0.00000    
     12662 MEMB     70       POPE     H13S     HDA2A    0.780000E-01   1.00800           0   0.00000       0.00000    
     12663 MEMB     70       POPE     C214     CD32A     2.07980       11.6110           0  -1.66000       1.30000    
     12664 MEMB     70       POPE     DC214    DRUD     -2.23580      0.400000           0   0.00000       0.00000    
     12665 MEMB     70       POPE     H14R     HDA2A    0.780000E-01   1.00800           0   0.00000       0.00000    
     12666 MEMB     70       POPE     H14S     HDA2A    0.780000E-01   1.00800           0   0.00000       0.00000    
     12667 MEMB     70       POPE     C215     CD32A     2.07980       11.6110           0  -1.66000       1.30000    
     12668 MEMB     70       POPE     DC215    DRUD     -2.23580      0.400000           0   0.00000       0.00000    
     12669 MEMB     70       POPE     H15R     HDA2A    0.780000E-01   1.00800           0   0.00000       0.00000    
     12670 MEMB     70       POPE     H15S     HDA2A    0.780000E-01   1.00800           0   0.00000       0.00000    
     12671 MEMB     70       POPE     C216     CD32A     2.07980       11.6110           0  -1.66000       1.30000    
     12672 MEMB     70       POPE     DC216    DRUD     -2.23580      0.400000           0   0.00000       0.00000    
     12673 MEMB     70       POPE     H16R     HDA2A    0.780000E-01   1.00800           0   0.00000       0.00000    
     12674 MEMB     70       POPE     H16S     HDA2A    0.780000E-01   1.00800           0   0.00000       0.00000    
     12675 MEMB     70       POPE     C217     CD32A     2.07980       11.6110           0  -1.66000       1.30000    
     12676 MEMB     70       POPE     DC217    DRUD     -2.23580      0.400000           0   0.00000       0.00000    
     12677 MEMB     70       POPE     H17R     HDA2A    0.780000E-01   1.00800           0   0.00000       0.00000    
     12678 MEMB     70       POPE     H17S     HDA2A    0.780000E-01   1.00800           0   0.00000       0.00000    
     12679 MEMB     70       POPE     C218     CD33A     2.30820       11.6110           0  -2.05100       1.30000    
     12680 MEMB     70       POPE     DC218    DRUD     -2.48520      0.400000           0   0.00000       0.00000    
     12681 MEMB     70       POPE     H18R     HDA3A    0.590000E-01   1.00800           0   0.00000       0.00000    
     12682 MEMB     70       POPE     H18S     HDA3A    0.590000E-01   1.00800           0   0.00000       0.00000    
     12683 MEMB     70       POPE     H18T     HDA3A    0.590000E-01   1.00800           0   0.00000       0.00000    
     12684 MEMB     70       POPE     C33      CD32A     2.07980       11.6110           0  -1.66000       1.30000    
     12685 MEMB     70       POPE     DC33     DRUD     -2.23580      0.400000           0   0.00000       0.00000    
     12686 MEMB     70       POPE     H3X      HDA2A    0.780000E-01   1.00800           0   0.00000       0.00000    
     12687 MEMB     70       POPE     H3Y      HDA2A    0.780000E-01   1.00800           0   0.00000       0.00000    
     12688 MEMB     70       POPE     C34      CD32A     2.07980       11.6110           0  -1.66000       1.30000    
     12689 MEMB     70       POPE     DC34     DRUD     -2.23580      0.400000           0   0.00000       0.00000    
     12690 MEMB     70       POPE     H4X      HDA2A    0.780000E-01   1.00800           0   0.00000       0.00000    
     12691 MEMB     70       POPE     H4Y      HDA2A    0.780000E-01   1.00800           0   0.00000       0.00000    
     12692 MEMB     70       POPE     C35      CD32A     2.07980       11.6110           0  -1.66000       1.30000    
     12693 MEMB     70       POPE     DC35     DRUD     -2.23580      0.400000           0   0.00000       0.00000    
     12694 MEMB     70       POPE     H5X      HDA2A    0.780000E-01   1.00800           0   0.00000       0.00000    
     12695 MEMB     70       POPE     H5Y      HDA2A    0.780000E-01   1.00800           0   0.00000       0.00000    
     12696 MEMB     70       POPE     C36      CD32A     2.07980       11.6110           0  -1.66000       1.30000    
     12697 MEMB     70       POPE     DC36     DRUD     -2.23580      0.400000           0   0.00000       0.00000    
     12698 MEMB     70       POPE     H6X      HDA2A    0.780000E-01   1.00800           0   0.00000       0.00000    
     12699 MEMB     70       POPE     H6Y      HDA2A    0.780000E-01   1.00800           0   0.00000       0.00000    
     12700 MEMB     70       POPE     C37      CD32A     2.07980       11.6110           0  -1.66000       1.30000    
     12701 MEMB     70       POPE     DC37     DRUD     -2.23580      0.400000           0   0.00000       0.00000    
     12702 MEMB     70       POPE     H7X      HDA2A    0.780000E-01   1.00800           0   0.00000       0.00000    
     12703 MEMB     70       POPE     H7Y      HDA2A    0.780000E-01   1.00800           0   0.00000       0.00000    
     12704 MEMB     70       POPE     C38      CD32A     2.07980       11.6110           0  -1.66000       1.30000    
     12705 MEMB     70       POPE     DC38     DRUD     -2.23580      0.400000           0   0.00000       0.00000    
     12706 MEMB     70       POPE     H8X      HDA2A    0.780000E-01   1.00800           0   0.00000       0.00000    
     12707 MEMB     70       POPE     H8Y      HDA2A    0.780000E-01   1.00800           0   0.00000       0.00000    
     12708 MEMB     70       POPE     C39      CD32A     2.07980       11.6110           0  -1.66000       1.30000    
     12709 MEMB     70       POPE     DC39     DRUD     -2.23580      0.400000           0   0.00000       0.00000    
     12710 MEMB     70       POPE     H9X      HDA2A    0.780000E-01   1.00800           0   0.00000       0.00000    
     12711 MEMB     70       POPE     H9Y      HDA2A    0.780000E-01   1.00800           0   0.00000       0.00000    
     12712 MEMB     70       POPE     C310     CD32A     2.07980       11.6110           0  -1.66000       1.30000    
     12713 MEMB     70       POPE     DC310    DRUD     -2.23580      0.400000           0   0.00000       0.00000    
     12714 MEMB     70       POPE     H10X     HDA2A    0.780000E-01   1.00800           0   0.00000       0.00000    
     12715 MEMB     70       POPE     H10Y     HDA2A    0.780000E-01   1.00800           0   0.00000       0.00000    
     12716 MEMB     70       POPE     C311     CD32A     2.07980       11.6110           0  -1.66000       1.30000    
     12717 MEMB     70       POPE     DC311    DRUD     -2.23580      0.400000           0   0.00000       0.00000    
     12718 MEMB     70       POPE     H11X     HDA2A    0.780000E-01   1.00800           0   0.00000       0.00000    
     12719 MEMB     70       POPE     H11Y     HDA2A    0.780000E-01   1.00800           0   0.00000       0.00000    
     12720 MEMB     70       POPE     C312     CD32A     2.07980       11.6110           0  -1.66000       1.30000    
     12721 MEMB     70       POPE     DC312    DRUD     -2.23580      0.400000           0   0.00000       0.00000    
     12722 MEMB     70       POPE     H12X     HDA2A    0.780000E-01   1.00800           0   0.00000       0.00000    
     12723 MEMB     70       POPE     H12Y     HDA2A    0.780000E-01   1.00800           0   0.00000       0.00000    
     12724 MEMB     70       POPE     C313     CD32A     2.07980       11.6110           0  -1.66000       1.30000    
     12725 MEMB     70       POPE     DC313    DRUD     -2.23580      0.400000           0   0.00000       0.00000    
     12726 MEMB     70       POPE     H13X     HDA2A    0.780000E-01   1.00800           0   0.00000       0.00000    
     12727 MEMB     70       POPE     H13Y     HDA2A    0.780000E-01   1.00800           0   0.00000       0.00000    
     12728 MEMB     70       POPE     C314     CD32A     2.07980       11.6110           0  -1.66000       1.30000    
     12729 MEMB     70       POPE     DC314    DRUD     -2.23580      0.400000           0   0.00000       0.00000    
     12730 MEMB     70       POPE     H14X     HDA2A    0.780000E-01   1.00800           0   0.00000       0.00000    
     12731 MEMB     70       POPE     H14Y     HDA2A    0.780000E-01   1.00800           0   0.00000       0.00000    
     12732 MEMB     70       POPE     C315     CD32A     2.07980       11.6110           0  -1.66000       1.30000    
     12733 MEMB     70       POPE     DC315    DRUD     -2.23580      0.400000           0   0.00000       0.00000    
     12734 MEMB     70       POPE     H15X     HDA2A    0.780000E-01   1.00800           0   0.00000       0.00000    
     12735 MEMB     70       POPE     H15Y     HDA2A    0.780000E-01   1.00800           0   0.00000       0.00000    
     12736 MEMB     70       POPE     C316     CD33A     2.30820       11.6110           0  -2.05100       1.30000    
     12737 MEMB     70       POPE     DC316    DRUD     -2.48520      0.400000           0   0.00000       0.00000    
     12738 MEMB     70       POPE     H16X     HDA3A    0.590000E-01   1.00800           0   0.00000       0.00000    
     12739 MEMB     70       POPE     H16Y     HDA3A    0.590000E-01   1.00800           0   0.00000       0.00000    
     12740 MEMB     70       POPE     H16Z     HDA3A    0.590000E-01   1.00800           0   0.00000       0.00000    
     12741 MEMB     71       POPE     N        ND3P3A    1.62810       13.6070           0  -1.29800      0.895000    
     12742 MEMB     71       POPE     DN       DRUD     -1.97710      0.400000           0   0.00000       0.00000    
     12743 MEMB     71       POPE     HN1      HDP1B    0.340000       1.00800           0   0.00000       0.00000    
     12744 MEMB     71       POPE     HN2      HDP1B    0.340000       1.00800           0   0.00000       0.00000    
     12745 MEMB     71       POPE     HN3      HDP1B    0.340000       1.00800           0   0.00000       0.00000    
     12746 MEMB     71       POPE     C12      CD32A     2.27610       11.6110           0  -1.65600      0.895000    
     12747 MEMB     71       POPE     DC12     DRUD     -2.23310      0.400000           0   0.00000       0.00000    
     12748 MEMB     71       POPE     H12A     HDA2A    0.143000       1.00800           0   0.00000       0.00000    
     12749 MEMB     71       POPE     H12B     HDA2A    0.143000       1.00800           0   0.00000       0.00000    
     12750 MEMB     71       POPE     C11      CD32A     2.42220       11.6110           0  -1.64200      0.862000    
     12751 MEMB     71       POPE     DC11     DRUD     -2.22370      0.400000           0   0.00000       0.00000    
     12752 MEMB     71       POPE     H11A     HDA2A    0.260000E-01   1.00800           0   0.00000       0.00000    
     12753 MEMB     71       POPE     H11B     HDA2A    0.260000E-01   1.00800           0   0.00000       0.00000    
     12754 MEMB     71       POPE     P        PD1A      2.90360       30.5740           0 -0.974000       2.09800    
     12755 MEMB     71       POPE     DP       DRUD     -1.71260      0.400000           0   0.00000       0.00000    
     12756 MEMB     71       POPE     O13      OD2C2B   0.798400       15.5994           0 -0.931000       1.08300    
     12757 MEMB     71       POPE     DO13     DRUD     -1.67440      0.400000           0   0.00000       0.00000    
     12758 MEMB     71       POPE     O14      OD2C2B   0.798400       15.5994           0 -0.931000       1.08300    
     12759 MEMB     71       POPE     DO14     DRUD     -1.67440      0.400000           0   0.00000       0.00000    
     12760 MEMB     71       POPE     O11      OD30B     1.17720       15.5994           0 -0.901000      0.181000    
     12761 MEMB     71       POPE     DO11     DRUD     -1.64720      0.400000           0   0.00000       0.00000    
     12762 MEMB     71       POPE     O12      OD30B     1.17720       15.5994           0 -0.901000      0.181000    
     12763 MEMB     71       POPE     DO12     DRUD     -1.64720      0.400000           0   0.00000       0.00000    
     12764 MEMB     71       POPE     C1       CD32A     2.42220       11.6110           0  -1.64200      0.862000    
     12765 MEMB     71       POPE     DC1      DRUD     -2.22370      0.400000           0   0.00000       0.00000    
     12766 MEMB     71       POPE     HA       HDA2A    0.260000E-01   1.00800           0   0.00000       0.00000    
     12767 MEMB     71       POPE     HB       HDA2A    0.260000E-01   1.00800           0   0.00000       0.00000    
     12768 MEMB     71       POPE     C2       CD31C     2.52830       11.6110           0  -1.79700      0.410000    
     12769 MEMB     71       POPE     DC2      DRUD     -2.32630      0.400000           0   0.00000       0.00000    
     12770 MEMB     71       POPE     HS       HDA1A    0.116000       1.00800           0   0.00000       0.00000    
     12771 MEMB     71       POPE     O21      OD30CL    1.48470       15.5994           0 -0.732000      0.601000    
     12772 MEMB     71       POPE     DO21     DRUD     -1.48470      0.400000           0   0.00000       0.00000    
     12773 MEMB     71       POPE     C21      CD2O3B    2.72820       11.6110           0  -1.37000       1.74700    
     12774 MEMB     71       POPE     DC21     DRUD     -2.03120      0.400000           0   0.00000       0.00000    
     12775 MEMB     71       POPE     O22      OD2C3B    1.64990       15.5994           0 -0.904000      0.565000    
     12776 MEMB     71       POPE     DO22     DRUD     -1.64990      0.400000           0   0.00000       0.00000    
     12777 MEMB     71       POPE     C22      CD32C     2.24380       11.6110           0  -1.99300      0.410000    
     12778 MEMB     71       POPE     DC22     DRUD     -2.44980      0.400000           0   0.00000       0.00000    
     12779 MEMB     71       POPE     H2R      HDA2A    0.690000E-01   1.00800           0   0.00000       0.00000    
     12780 MEMB     71       POPE     H2S      HDA2A    0.690000E-01   1.00800           0   0.00000       0.00000    
     12781 MEMB     71       POPE     LP1A     LPD     -0.349000       0.00000          -1   0.00000       0.00000    
     12782 MEMB     71       POPE     LP1B     LPD     -0.258000       0.00000          -1   0.00000       0.00000    
     12783 MEMB     71       POPE     LPMA     LPD     -0.170000       0.00000          -1   0.00000       0.00000    
     12784 MEMB     71       POPE     LPMB     LPD     -0.170000       0.00000          -1   0.00000       0.00000    
     12785 MEMB     71       POPE     C3       CD32C     2.41230       11.6110           0  -1.79700      0.410000    
     12786 MEMB     71       POPE     DC3      DRUD     -2.32630      0.400000           0   0.00000       0.00000    
     12787 MEMB     71       POPE     HX       HDA2A    0.116000       1.00800           0   0.00000       0.00000    
     12788 MEMB     71       POPE     HY       HDA2A    0.116000       1.00800           0   0.00000       0.00000    
     12789 MEMB     71       POPE     O31      OD30CL    1.48470       15.5994           0 -0.732000      0.601000    
     12790 MEMB     71       POPE     DO31     DRUD     -1.48470      0.400000           0   0.00000       0.00000    
     12791 MEMB     71       POPE     C31      CD2O3B    2.72820       11.6110           0  -1.37000       1.74700    
     12792 MEMB     71       POPE     DC31     DRUD     -2.03120      0.400000           0   0.00000       0.00000    
     12793 MEMB     71       POPE     O32      OD2C3B    1.64990       15.5994           0 -0.904000      0.565000    
     12794 MEMB     71       POPE     DO32     DRUD     -1.64990      0.400000           0   0.00000       0.00000    
     12795 MEMB     71       POPE     C32      CD32C     2.24380       11.6110           0  -1.99300      0.410000    
     12796 MEMB     71       POPE     DC32     DRUD     -2.44980      0.400000           0   0.00000       0.00000    
     12797 MEMB     71       POPE     H2X      HDA2A    0.690000E-01   1.00800           0   0.00000       0.00000    
     12798 MEMB     71       POPE     H2Y      HDA2A    0.690000E-01   1.00800           0   0.00000       0.00000    
     12799 MEMB     71       POPE     LP1C     LPD     -0.349000       0.00000          -1   0.00000       0.00000    
     12800 MEMB     71       POPE     LP1D     LPD     -0.258000       0.00000          -1   0.00000       0.00000    
     12801 MEMB     71       POPE     LPMC     LPD     -0.170000       0.00000          -1   0.00000       0.00000    
     12802 MEMB     71       POPE     LPMD     LPD     -0.170000       0.00000          -1   0.00000       0.00000    
     12803 MEMB     71       POPE     C23      CD32A     2.07980       11.6110           0  -1.66000       1.30000    
     12804 MEMB     71       POPE     DC23     DRUD     -2.23580      0.400000           0   0.00000       0.00000    
     12805 MEMB     71       POPE     H3R      HDA2A    0.780000E-01   1.00800           0   0.00000       0.00000    
     12806 MEMB     71       POPE     H3S      HDA2A    0.780000E-01   1.00800           0   0.00000       0.00000    
     12807 MEMB     71       POPE     C24      CD32A     2.07980       11.6110           0  -1.66000       1.30000    
     12808 MEMB     71       POPE     DC24     DRUD     -2.23580      0.400000           0   0.00000       0.00000    
     12809 MEMB     71       POPE     H4R      HDA2A    0.780000E-01   1.00800           0   0.00000       0.00000    
     12810 MEMB     71       POPE     H4S      HDA2A    0.780000E-01   1.00800           0   0.00000       0.00000    
     12811 MEMB     71       POPE     C25      CD32A     2.07980       11.6110           0  -1.66000       1.30000    
     12812 MEMB     71       POPE     DC25     DRUD     -2.23580      0.400000           0   0.00000       0.00000    
     12813 MEMB     71       POPE     H5R      HDA2A    0.780000E-01   1.00800           0   0.00000       0.00000    
     12814 MEMB     71       POPE     H5S      HDA2A    0.780000E-01   1.00800           0   0.00000       0.00000    
     12815 MEMB     71       POPE     C26      CD32A     2.07980       11.6110           0  -1.66000       1.30000    
     12816 MEMB     71       POPE     DC26     DRUD     -2.23580      0.400000           0   0.00000       0.00000    
     12817 MEMB     71       POPE     H6R      HDA2A    0.780000E-01   1.00800           0   0.00000       0.00000    
     12818 MEMB     71       POPE     H6S      HDA2A    0.780000E-01   1.00800           0   0.00000       0.00000    
     12819 MEMB     71       POPE     C27      CD32A     2.07980       11.6110           0  -1.66000       1.30000    
     12820 MEMB     71       POPE     DC27     DRUD     -2.23580      0.400000           0   0.00000       0.00000    
     12821 MEMB     71       POPE     H7R      HDA2A    0.780000E-01   1.00800           0   0.00000       0.00000    
     12822 MEMB     71       POPE     H7S      HDA2A    0.780000E-01   1.00800           0   0.00000       0.00000    
     12823 MEMB     71       POPE     C28      CD32A     2.07980       11.6110           0  -1.66000       1.30000    
     12824 MEMB     71       POPE     DC28     DRUD     -2.23580      0.400000           0   0.00000       0.00000    
     12825 MEMB     71       POPE     H8R      HDA2A    0.780000E-01   1.00800           0   0.00000       0.00000    
     12826 MEMB     71       POPE     H8S      HDA2A    0.780000E-01   1.00800           0   0.00000       0.00000    
     12827 MEMB     71       POPE     C29      CD2C1A    2.33700       11.6110           0  -1.99000      0.750000    
     12828 MEMB     71       POPE     DC29     DRUD     -2.44800      0.400000           0   0.00000       0.00000    
     12829 MEMB     71       POPE     H91      HD2C1A   0.111000       1.00800           0   0.00000       0.00000    
     12830 MEMB     71       POPE     C210     CD2C1A    2.33700       11.6110           0  -1.99000      0.750000    
     12831 MEMB     71       POPE     DC210    DRUD     -2.44800      0.400000           0   0.00000       0.00000    
     12832 MEMB     71       POPE     H101     HD2C1A   0.111000       1.00800           0   0.00000       0.00000    
     12833 MEMB     71       POPE     C211     CD32A     2.07980       11.6110           0  -1.66000       1.30000    
     12834 MEMB     71       POPE     DC211    DRUD     -2.23580      0.400000           0   0.00000       0.00000    
     12835 MEMB     71       POPE     H11R     HDA2A    0.780000E-01   1.00800           0   0.00000       0.00000    
     12836 MEMB     71       POPE     H11S     HDA2A    0.780000E-01   1.00800           0   0.00000       0.00000    
     12837 MEMB     71       POPE     C212     CD32A     2.07980       11.6110           0  -1.66000       1.30000    
     12838 MEMB     71       POPE     DC212    DRUD     -2.23580      0.400000           0   0.00000       0.00000    
     12839 MEMB     71       POPE     H12R     HDA2A    0.780000E-01   1.00800           0   0.00000       0.00000    
     12840 MEMB     71       POPE     H12S     HDA2A    0.780000E-01   1.00800           0   0.00000       0.00000    
     12841 MEMB     71       POPE     C213     CD32A     2.07980       11.6110           0  -1.66000       1.30000    
     12842 MEMB     71       POPE     DC213    DRUD     -2.23580      0.400000           0   0.00000       0.00000    
     12843 MEMB     71       POPE     H13R     HDA2A    0.780000E-01   1.00800           0   0.00000       0.00000    
     12844 MEMB     71       POPE     H13S     HDA2A    0.780000E-01   1.00800           0   0.00000       0.00000    
     12845 MEMB     71       POPE     C214     CD32A     2.07980       11.6110           0  -1.66000       1.30000    
     12846 MEMB     71       POPE     DC214    DRUD     -2.23580      0.400000           0   0.00000       0.00000    
     12847 MEMB     71       POPE     H14R     HDA2A    0.780000E-01   1.00800           0   0.00000       0.00000    
     12848 MEMB     71       POPE     H14S     HDA2A    0.780000E-01   1.00800           0   0.00000       0.00000    
     12849 MEMB     71       POPE     C215     CD32A     2.07980       11.6110           0  -1.66000       1.30000    
     12850 MEMB     71       POPE     DC215    DRUD     -2.23580      0.400000           0   0.00000       0.00000    
     12851 MEMB     71       POPE     H15R     HDA2A    0.780000E-01   1.00800           0   0.00000       0.00000    
     12852 MEMB     71       POPE     H15S     HDA2A    0.780000E-01   1.00800           0   0.00000       0.00000    
     12853 MEMB     71       POPE     C216     CD32A     2.07980       11.6110           0  -1.66000       1.30000    
     12854 MEMB     71       POPE     DC216    DRUD     -2.23580      0.400000           0   0.00000       0.00000    
     12855 MEMB     71       POPE     H16R     HDA2A    0.780000E-01   1.00800           0   0.00000       0.00000    
     12856 MEMB     71       POPE     H16S     HDA2A    0.780000E-01   1.00800           0   0.00000       0.00000    
     12857 MEMB     71       POPE     C217     CD32A     2.07980       11.6110           0  -1.66000       1.30000    
     12858 MEMB     71       POPE     DC217    DRUD     -2.23580      0.400000           0   0.00000       0.00000    
     12859 MEMB     71       POPE     H17R     HDA2A    0.780000E-01   1.00800           0   0.00000       0.00000    
     12860 MEMB     71       POPE     H17S     HDA2A    0.780000E-01   1.00800           0   0.00000       0.00000    
     12861 MEMB     71       POPE     C218     CD33A     2.30820       11.6110           0  -2.05100       1.30000    
     12862 MEMB     71       POPE     DC218    DRUD     -2.48520      0.400000           0   0.00000       0.00000    
     12863 MEMB     71       POPE     H18R     HDA3A    0.590000E-01   1.00800           0   0.00000       0.00000    
     12864 MEMB     71       POPE     H18S     HDA3A    0.590000E-01   1.00800           0   0.00000       0.00000    
     12865 MEMB     71       POPE     H18T     HDA3A    0.590000E-01   1.00800           0   0.00000       0.00000    
     12866 MEMB     71       POPE     C33      CD32A     2.07980       11.6110           0  -1.66000       1.30000    
     12867 MEMB     71       POPE     DC33     DRUD     -2.23580      0.400000           0   0.00000       0.00000    
     12868 MEMB     71       POPE     H3X      HDA2A    0.780000E-01   1.00800           0   0.00000       0.00000    
     12869 MEMB     71       POPE     H3Y      HDA2A    0.780000E-01   1.00800           0   0.00000       0.00000    
     12870 MEMB     71       POPE     C34      CD32A     2.07980       11.6110           0  -1.66000       1.30000    
     12871 MEMB     71       POPE     DC34     DRUD     -2.23580      0.400000           0   0.00000       0.00000    
     12872 MEMB     71       POPE     H4X      HDA2A    0.780000E-01   1.00800           0   0.00000       0.00000    
     12873 MEMB     71       POPE     H4Y      HDA2A    0.780000E-01   1.00800           0   0.00000       0.00000    
     12874 MEMB     71       POPE     C35      CD32A     2.07980       11.6110           0  -1.66000       1.30000    
     12875 MEMB     71       POPE     DC35     DRUD     -2.23580      0.400000           0   0.00000       0.00000    
     12876 MEMB     71       POPE     H5X      HDA2A    0.780000E-01   1.00800           0   0.00000       0.00000    
     12877 MEMB     71       POPE     H5Y      HDA2A    0.780000E-01   1.00800           0   0.00000       0.00000    
     12878 MEMB     71       POPE     C36      CD32A     2.07980       11.6110           0  -1.66000       1.30000    
     12879 MEMB     71       POPE     DC36     DRUD     -2.23580      0.400000           0   0.00000       0.00000    
     12880 MEMB     71       POPE     H6X      HDA2A    0.780000E-01   1.00800           0   0.00000       0.00000    
     12881 MEMB     71       POPE     H6Y      HDA2A    0.780000E-01   1.00800           0   0.00000       0.00000    
     12882 MEMB     71       POPE     C37      CD32A     2.07980       11.6110           0  -1.66000       1.30000    
     12883 MEMB     71       POPE     DC37     DRUD     -2.23580      0.400000           0   0.00000       0.00000    
     12884 MEMB     71       POPE     H7X      HDA2A    0.780000E-01   1.00800           0   0.00000       0.00000    
     12885 MEMB     71       POPE     H7Y      HDA2A    0.780000E-01   1.00800           0   0.00000       0.00000    
     12886 MEMB     71       POPE     C38      CD32A     2.07980       11.6110           0  -1.66000       1.30000    
     12887 MEMB     71       POPE     DC38     DRUD     -2.23580      0.400000           0   0.00000       0.00000    
     12888 MEMB     71       POPE     H8X      HDA2A    0.780000E-01   1.00800           0   0.00000       0.00000    
     12889 MEMB     71       POPE     H8Y      HDA2A    0.780000E-01   1.00800           0   0.00000       0.00000    
     12890 MEMB     71       POPE     C39      CD32A     2.07980       11.6110           0  -1.66000       1.30000    
     12891 MEMB     71       POPE     DC39     DRUD     -2.23580      0.400000           0   0.00000       0.00000    
     12892 MEMB     71       POPE     H9X      HDA2A    0.780000E-01   1.00800           0   0.00000       0.00000    
     12893 MEMB     71       POPE     H9Y      HDA2A    0.780000E-01   1.00800           0   0.00000       0.00000    
     12894 MEMB     71       POPE     C310     CD32A     2.07980       11.6110           0  -1.66000       1.30000    
     12895 MEMB     71       POPE     DC310    DRUD     -2.23580      0.400000           0   0.00000       0.00000    
     12896 MEMB     71       POPE     H10X     HDA2A    0.780000E-01   1.00800           0   0.00000       0.00000    
     12897 MEMB     71       POPE     H10Y     HDA2A    0.780000E-01   1.00800           0   0.00000       0.00000    
     12898 MEMB     71       POPE     C311     CD32A     2.07980       11.6110           0  -1.66000       1.30000    
     12899 MEMB     71       POPE     DC311    DRUD     -2.23580      0.400000           0   0.00000       0.00000    
     12900 MEMB     71       POPE     H11X     HDA2A    0.780000E-01   1.00800           0   0.00000       0.00000    
     12901 MEMB     71       POPE     H11Y     HDA2A    0.780000E-01   1.00800           0   0.00000       0.00000    
     12902 MEMB     71       POPE     C312     CD32A     2.07980       11.6110           0  -1.66000       1.30000    
     12903 MEMB     71       POPE     DC312    DRUD     -2.23580      0.400000           0   0.00000       0.00000    
     12904 MEMB     71       POPE     H12X     HDA2A    0.780000E-01   1.00800           0   0.00000       0.00000    
     12905 MEMB     71       POPE     H12Y     HDA2A    0.780000E-01   1.00800           0   0.00000       0.00000    
     12906 MEMB     71       POPE     C313     CD32A     2.07980       11.6110           0  -1.66000       1.30000    
     12907 MEMB     71       POPE     DC313    DRUD     -2.23580      0.400000           0   0.00000       0.00000    
     12908 MEMB     71       POPE     H13X     HDA2A    0.780000E-01   1.00800           0   0.00000       0.00000    
     12909 MEMB     71       POPE     H13Y     HDA2A    0.780000E-01   1.00800           0   0.00000       0.00000    
     12910 MEMB     71       POPE     C314     CD32A     2.07980       11.6110           0  -1.66000       1.30000    
     12911 MEMB     71       POPE     DC314    DRUD     -2.23580      0.400000           0   0.00000       0.00000    
     12912 MEMB     71       POPE     H14X     HDA2A    0.780000E-01   1.00800           0   0.00000       0.00000    
     12913 MEMB     71       POPE     H14Y     HDA2A    0.780000E-01   1.00800           0   0.00000       0.00000    
     12914 MEMB     71       POPE     C315     CD32A     2.07980       11.6110           0  -1.66000       1.30000    
     12915 MEMB     71       POPE     DC315    DRUD     -2.23580      0.400000           0   0.00000       0.00000    
     12916 MEMB     71       POPE     H15X     HDA2A    0.780000E-01   1.00800           0   0.00000       0.00000    
     12917 MEMB     71       POPE     H15Y     HDA2A    0.780000E-01   1.00800           0   0.00000       0.00000    
     12918 MEMB     71       POPE     C316     CD33A     2.30820       11.6110           0  -2.05100       1.30000    
     12919 MEMB     71       POPE     DC316    DRUD     -2.48520      0.400000           0   0.00000       0.00000    
     12920 MEMB     71       POPE     H16X     HDA3A    0.590000E-01   1.00800           0   0.00000       0.00000    
     12921 MEMB     71       POPE     H16Y     HDA3A    0.590000E-01   1.00800           0   0.00000       0.00000    
     12922 MEMB     71       POPE     H16Z     HDA3A    0.590000E-01   1.00800           0   0.00000       0.00000    
     12923 MEMB     72       POPE     N        ND3P3A    1.62810       13.6070           0  -1.29800      0.895000    
     12924 MEMB     72       POPE     DN       DRUD     -1.97710      0.400000           0   0.00000       0.00000    
     12925 MEMB     72       POPE     HN1      HDP1B    0.340000       1.00800           0   0.00000       0.00000    
     12926 MEMB     72       POPE     HN2      HDP1B    0.340000       1.00800           0   0.00000       0.00000    
     12927 MEMB     72       POPE     HN3      HDP1B    0.340000       1.00800           0   0.00000       0.00000    
     12928 MEMB     72       POPE     C12      CD32A     2.27610       11.6110           0  -1.65600      0.895000    
     12929 MEMB     72       POPE     DC12     DRUD     -2.23310      0.400000           0   0.00000       0.00000    
     12930 MEMB     72       POPE     H12A     HDA2A    0.143000       1.00800           0   0.00000       0.00000    
     12931 MEMB     72       POPE     H12B     HDA2A    0.143000       1.00800           0   0.00000       0.00000    
     12932 MEMB     72       POPE     C11      CD32A     2.42220       11.6110           0  -1.64200      0.862000    
     12933 MEMB     72       POPE     DC11     DRUD     -2.22370      0.400000           0   0.00000       0.00000    
     12934 MEMB     72       POPE     H11A     HDA2A    0.260000E-01   1.00800           0   0.00000       0.00000    
     12935 MEMB     72       POPE     H11B     HDA2A    0.260000E-01   1.00800           0   0.00000       0.00000    
     12936 MEMB     72       POPE     P        PD1A      2.90360       30.5740           0 -0.974000       2.09800    
     12937 MEMB     72       POPE     DP       DRUD     -1.71260      0.400000           0   0.00000       0.00000    
     12938 MEMB     72       POPE     O13      OD2C2B   0.798400       15.5994           0 -0.931000       1.08300    
     12939 MEMB     72       POPE     DO13     DRUD     -1.67440      0.400000           0   0.00000       0.00000    
     12940 MEMB     72       POPE     O14      OD2C2B   0.798400       15.5994           0 -0.931000       1.08300    
     12941 MEMB     72       POPE     DO14     DRUD     -1.67440      0.400000           0   0.00000       0.00000    
     12942 MEMB     72       POPE     O11      OD30B     1.17720       15.5994           0 -0.901000      0.181000    
     12943 MEMB     72       POPE     DO11     DRUD     -1.64720      0.400000           0   0.00000       0.00000    
     12944 MEMB     72       POPE     O12      OD30B     1.17720       15.5994           0 -0.901000      0.181000    
     12945 MEMB     72       POPE     DO12     DRUD     -1.64720      0.400000           0   0.00000       0.00000    
     12946 MEMB     72       POPE     C1       CD32A     2.42220       11.6110           0  -1.64200      0.862000    
     12947 MEMB     72       POPE     DC1      DRUD     -2.22370      0.400000           0   0.00000       0.00000    
     12948 MEMB     72       POPE     HA       HDA2A    0.260000E-01   1.00800           0   0.00000       0.00000    
     12949 MEMB     72       POPE     HB       HDA2A    0.260000E-01   1.00800           0   0.00000       0.00000    
     12950 MEMB     72       POPE     C2       CD31C     2.52830       11.6110           0  -1.79700      0.410000    
     12951 MEMB     72       POPE     DC2      DRUD     -2.32630      0.400000           0   0.00000       0.00000    
     12952 MEMB     72       POPE     HS       HDA1A    0.116000       1.00800           0   0.00000       0.00000    
     12953 MEMB     72       POPE     O21      OD30CL    1.48470       15.5994           0 -0.732000      0.601000    
     12954 MEMB     72       POPE     DO21     DRUD     -1.48470      0.400000           0   0.00000       0.00000    
     12955 MEMB     72       POPE     C21      CD2O3B    2.72820       11.6110           0  -1.37000       1.74700    
     12956 MEMB     72       POPE     DC21     DRUD     -2.03120      0.400000           0   0.00000       0.00000    
     12957 MEMB     72       POPE     O22      OD2C3B    1.64990       15.5994           0 -0.904000      0.565000    
     12958 MEMB     72       POPE     DO22     DRUD     -1.64990      0.400000           0   0.00000       0.00000    
     12959 MEMB     72       POPE     C22      CD32C     2.24380       11.6110           0  -1.99300      0.410000    
     12960 MEMB     72       POPE     DC22     DRUD     -2.44980      0.400000           0   0.00000       0.00000    
     12961 MEMB     72       POPE     H2R      HDA2A    0.690000E-01   1.00800           0   0.00000       0.00000    
     12962 MEMB     72       POPE     H2S      HDA2A    0.690000E-01   1.00800           0   0.00000       0.00000    
     12963 MEMB     72       POPE     LP1A     LPD     -0.349000       0.00000          -1   0.00000       0.00000    
     12964 MEMB     72       POPE     LP1B     LPD     -0.258000       0.00000          -1   0.00000       0.00000    
     12965 MEMB     72       POPE     LPMA     LPD     -0.170000       0.00000          -1   0.00000       0.00000    
     12966 MEMB     72       POPE     LPMB     LPD     -0.170000       0.00000          -1   0.00000       0.00000    
     12967 MEMB     72       POPE     C3       CD32C     2.41230       11.6110           0  -1.79700      0.410000    
     12968 MEMB     72       POPE     DC3      DRUD     -2.32630      0.400000           0   0.00000       0.00000    
     12969 MEMB     72       POPE     HX       HDA2A    0.116000       1.00800           0   0.00000       0.00000    
     12970 MEMB     72       POPE     HY       HDA2A    0.116000       1.00800           0   0.00000       0.00000    
     12971 MEMB     72       POPE     O31      OD30CL    1.48470       15.5994           0 -0.732000      0.601000    
     12972 MEMB     72       POPE     DO31     DRUD     -1.48470      0.400000           0   0.00000       0.00000    
     12973 MEMB     72       POPE     C31      CD2O3B    2.72820       11.6110           0  -1.37000       1.74700    
     12974 MEMB     72       POPE     DC31     DRUD     -2.03120      0.400000           0   0.00000       0.00000    
     12975 MEMB     72       POPE     O32      OD2C3B    1.64990       15.5994           0 -0.904000      0.565000    
     12976 MEMB     72       POPE     DO32     DRUD     -1.64990      0.400000           0   0.00000       0.00000    
     12977 MEMB     72       POPE     C32      CD32C     2.24380       11.6110           0  -1.99300      0.410000    
     12978 MEMB     72       POPE     DC32     DRUD     -2.44980      0.400000           0   0.00000       0.00000    
     12979 MEMB     72       POPE     H2X      HDA2A    0.690000E-01   1.00800           0   0.00000       0.00000    
     12980 MEMB     72       POPE     H2Y      HDA2A    0.690000E-01   1.00800           0   0.00000       0.00000    
     12981 MEMB     72       POPE     LP1C     LPD     -0.349000       0.00000          -1   0.00000       0.00000    
     12982 MEMB     72       POPE     LP1D     LPD     -0.258000       0.00000          -1   0.00000       0.00000    
     12983 MEMB     72       POPE     LPMC     LPD     -0.170000       0.00000          -1   0.00000       0.00000    
     12984 MEMB     72       POPE     LPMD     LPD     -0.170000       0.00000          -1   0.00000       0.00000    
     12985 MEMB     72       POPE     C23      CD32A     2.07980       11.6110           0  -1.66000       1.30000    
     12986 MEMB     72       POPE     DC23     DRUD     -2.23580      0.400000           0   0.00000       0.00000    
     12987 MEMB     72       POPE     H3R      HDA2A    0.780000E-01   1.00800           0   0.00000       0.00000    
     12988 MEMB     72       POPE     H3S      HDA2A    0.780000E-01   1.00800           0   0.00000       0.00000    
     12989 MEMB     72       POPE     C24      CD32A     2.07980       11.6110           0  -1.66000       1.30000    
     12990 MEMB     72       POPE     DC24     DRUD     -2.23580      0.400000           0   0.00000       0.00000    
     12991 MEMB     72       POPE     H4R      HDA2A    0.780000E-01   1.00800           0   0.00000       0.00000    
     12992 MEMB     72       POPE     H4S      HDA2A    0.780000E-01   1.00800           0   0.00000       0.00000    
     12993 MEMB     72       POPE     C25      CD32A     2.07980       11.6110           0  -1.66000       1.30000    
     12994 MEMB     72       POPE     DC25     DRUD     -2.23580      0.400000           0   0.00000       0.00000    
     12995 MEMB     72       POPE     H5R      HDA2A    0.780000E-01   1.00800           0   0.00000       0.00000    
     12996 MEMB     72       POPE     H5S      HDA2A    0.780000E-01   1.00800           0   0.00000       0.00000    
     12997 MEMB     72       POPE     C26      CD32A     2.07980       11.6110           0  -1.66000       1.30000    
     12998 MEMB     72       POPE     DC26     DRUD     -2.23580      0.400000           0   0.00000       0.00000    
     12999 MEMB     72       POPE     H6R      HDA2A    0.780000E-01   1.00800           0   0.00000       0.00000    
     13000 MEMB     72       POPE     H6S      HDA2A    0.780000E-01   1.00800           0   0.00000       0.00000    
     13001 MEMB     72       POPE     C27      CD32A     2.07980       11.6110           0  -1.66000       1.30000    
     13002 MEMB     72       POPE     DC27     DRUD     -2.23580      0.400000           0   0.00000       0.00000    
     13003 MEMB     72       POPE     H7R      HDA2A    0.780000E-01   1.00800           0   0.00000       0.00000    
     13004 MEMB     72       POPE     H7S      HDA2A    0.780000E-01   1.00800           0   0.00000       0.00000    
     13005 MEMB     72       POPE     C28      CD32A     2.07980       11.6110           0  -1.66000       1.30000    
     13006 MEMB     72       POPE     DC28     DRUD     -2.23580      0.400000           0   0.00000       0.00000    
     13007 MEMB     72       POPE     H8R      HDA2A    0.780000E-01   1.00800           0   0.00000       0.00000    
     13008 MEMB     72       POPE     H8S      HDA2A    0.780000E-01   1.00800           0   0.00000       0.00000    
     13009 MEMB     72       POPE     C29      CD2C1A    2.33700       11.6110           0  -1.99000      0.750000    
     13010 MEMB     72       POPE     DC29     DRUD     -2.44800      0.400000           0   0.00000       0.00000    
     13011 MEMB     72       POPE     H91      HD2C1A   0.111000       1.00800           0   0.00000       0.00000    
     13012 MEMB     72       POPE     C210     CD2C1A    2.33700       11.6110           0  -1.99000      0.750000    
     13013 MEMB     72       POPE     DC210    DRUD     -2.44800      0.400000           0   0.00000       0.00000    
     13014 MEMB     72       POPE     H101     HD2C1A   0.111000       1.00800           0   0.00000       0.00000    
     13015 MEMB     72       POPE     C211     CD32A     2.07980       11.6110           0  -1.66000       1.30000    
     13016 MEMB     72       POPE     DC211    DRUD     -2.23580      0.400000           0   0.00000       0.00000    
     13017 MEMB     72       POPE     H11R     HDA2A    0.780000E-01   1.00800           0   0.00000       0.00000    
     13018 MEMB     72       POPE     H11S     HDA2A    0.780000E-01   1.00800           0   0.00000       0.00000    
     13019 MEMB     72       POPE     C212     CD32A     2.07980       11.6110           0  -1.66000       1.30000    
     13020 MEMB     72       POPE     DC212    DRUD     -2.23580      0.400000           0   0.00000       0.00000    
     13021 MEMB     72       POPE     H12R     HDA2A    0.780000E-01   1.00800           0   0.00000       0.00000    
     13022 MEMB     72       POPE     H12S     HDA2A    0.780000E-01   1.00800           0   0.00000       0.00000    
     13023 MEMB     72       POPE     C213     CD32A     2.07980       11.6110           0  -1.66000       1.30000    
     13024 MEMB     72       POPE     DC213    DRUD     -2.23580      0.400000           0   0.00000       0.00000    
     13025 MEMB     72       POPE     H13R     HDA2A    0.780000E-01   1.00800           0   0.00000       0.00000    
     13026 MEMB     72       POPE     H13S     HDA2A    0.780000E-01   1.00800           0   0.00000       0.00000    
     13027 MEMB     72       POPE     C214     CD32A     2.07980       11.6110           0  -1.66000       1.30000    
     13028 MEMB     72       POPE     DC214    DRUD     -2.23580      0.400000           0   0.00000       0.00000    
     13029 MEMB     72       POPE     H14R     HDA2A    0.780000E-01   1.00800           0   0.00000       0.00000    
     13030 MEMB     72       POPE     H14S     HDA2A    0.780000E-01   1.00800           0   0.00000       0.00000    
     13031 MEMB     72       POPE     C215     CD32A     2.07980       11.6110           0  -1.66000       1.30000    
     13032 MEMB     72       POPE     DC215    DRUD     -2.23580      0.400000           0   0.00000       0.00000    
     13033 MEMB     72       POPE     H15R     HDA2A    0.780000E-01   1.00800           0   0.00000       0.00000    
     13034 MEMB     72       POPE     H15S     HDA2A    0.780000E-01   1.00800           0   0.00000       0.00000    
     13035 MEMB     72       POPE     C216     CD32A     2.07980       11.6110           0  -1.66000       1.30000    
     13036 MEMB     72       POPE     DC216    DRUD     -2.23580      0.400000           0   0.00000       0.00000    
     13037 MEMB     72       POPE     H16R     HDA2A    0.780000E-01   1.00800           0   0.00000       0.00000    
     13038 MEMB     72       POPE     H16S     HDA2A    0.780000E-01   1.00800           0   0.00000       0.00000    
     13039 MEMB     72       POPE     C217     CD32A     2.07980       11.6110           0  -1.66000       1.30000    
     13040 MEMB     72       POPE     DC217    DRUD     -2.23580      0.400000           0   0.00000       0.00000    
     13041 MEMB     72       POPE     H17R     HDA2A    0.780000E-01   1.00800           0   0.00000       0.00000    
     13042 MEMB     72       POPE     H17S     HDA2A    0.780000E-01   1.00800           0   0.00000       0.00000    
     13043 MEMB     72       POPE     C218     CD33A     2.30820       11.6110           0  -2.05100       1.30000    
     13044 MEMB     72       POPE     DC218    DRUD     -2.48520      0.400000           0   0.00000       0.00000    
     13045 MEMB     72       POPE     H18R     HDA3A    0.590000E-01   1.00800           0   0.00000       0.00000    
     13046 MEMB     72       POPE     H18S     HDA3A    0.590000E-01   1.00800           0   0.00000       0.00000    
     13047 MEMB     72       POPE     H18T     HDA3A    0.590000E-01   1.00800           0   0.00000       0.00000    
     13048 MEMB     72       POPE     C33      CD32A     2.07980       11.6110           0  -1.66000       1.30000    
     13049 MEMB     72       POPE     DC33     DRUD     -2.23580      0.400000           0   0.00000       0.00000    
     13050 MEMB     72       POPE     H3X      HDA2A    0.780000E-01   1.00800           0   0.00000       0.00000    
     13051 MEMB     72       POPE     H3Y      HDA2A    0.780000E-01   1.00800           0   0.00000       0.00000    
     13052 MEMB     72       POPE     C34      CD32A     2.07980       11.6110           0  -1.66000       1.30000    
     13053 MEMB     72       POPE     DC34     DRUD     -2.23580      0.400000           0   0.00000       0.00000    
     13054 MEMB     72       POPE     H4X      HDA2A    0.780000E-01   1.00800           0   0.00000       0.00000    
     13055 MEMB     72       POPE     H4Y      HDA2A    0.780000E-01   1.00800           0   0.00000       0.00000    
     13056 MEMB     72       POPE     C35      CD32A     2.07980       11.6110           0  -1.66000       1.30000    
     13057 MEMB     72       POPE     DC35     DRUD     -2.23580      0.400000           0   0.00000       0.00000    
     13058 MEMB     72       POPE     H5X      HDA2A    0.780000E-01   1.00800           0   0.00000       0.00000    
     13059 MEMB     72       POPE     H5Y      HDA2A    0.780000E-01   1.00800           0   0.00000       0.00000    
     13060 MEMB     72       POPE     C36      CD32A     2.07980       11.6110           0  -1.66000       1.30000    
     13061 MEMB     72       POPE     DC36     DRUD     -2.23580      0.400000           0   0.00000       0.00000    
     13062 MEMB     72       POPE     H6X      HDA2A    0.780000E-01   1.00800           0   0.00000       0.00000    
     13063 MEMB     72       POPE     H6Y      HDA2A    0.780000E-01   1.00800           0   0.00000       0.00000    
     13064 MEMB     72       POPE     C37      CD32A     2.07980       11.6110           0  -1.66000       1.30000    
     13065 MEMB     72       POPE     DC37     DRUD     -2.23580      0.400000           0   0.00000       0.00000    
     13066 MEMB     72       POPE     H7X      HDA2A    0.780000E-01   1.00800           0   0.00000       0.00000    
     13067 MEMB     72       POPE     H7Y      HDA2A    0.780000E-01   1.00800           0   0.00000       0.00000    
     13068 MEMB     72       POPE     C38      CD32A     2.07980       11.6110           0  -1.66000       1.30000    
     13069 MEMB     72       POPE     DC38     DRUD     -2.23580      0.400000           0   0.00000       0.00000    
     13070 MEMB     72       POPE     H8X      HDA2A    0.780000E-01   1.00800           0   0.00000       0.00000    
     13071 MEMB     72       POPE     H8Y      HDA2A    0.780000E-01   1.00800           0   0.00000       0.00000    
     13072 MEMB     72       POPE     C39      CD32A     2.07980       11.6110           0  -1.66000       1.30000    
     13073 MEMB     72       POPE     DC39     DRUD     -2.23580      0.400000           0   0.00000       0.00000    
     13074 MEMB     72       POPE     H9X      HDA2A    0.780000E-01   1.00800           0   0.00000       0.00000    
     13075 MEMB     72       POPE     H9Y      HDA2A    0.780000E-01   1.00800           0   0.00000       0.00000    
     13076 MEMB     72       POPE     C310     CD32A     2.07980       11.6110           0  -1.66000       1.30000    
     13077 MEMB     72       POPE     DC310    DRUD     -2.23580      0.400000           0   0.00000       0.00000    
     13078 MEMB     72       POPE     H10X     HDA2A    0.780000E-01   1.00800           0   0.00000       0.00000    
     13079 MEMB     72       POPE     H10Y     HDA2A    0.780000E-01   1.00800           0   0.00000       0.00000    
     13080 MEMB     72       POPE     C311     CD32A     2.07980       11.6110           0  -1.66000       1.30000    
     13081 MEMB     72       POPE     DC311    DRUD     -2.23580      0.400000           0   0.00000       0.00000    
     13082 MEMB     72       POPE     H11X     HDA2A    0.780000E-01   1.00800           0   0.00000       0.00000    
     13083 MEMB     72       POPE     H11Y     HDA2A    0.780000E-01   1.00800           0   0.00000       0.00000    
     13084 MEMB     72       POPE     C312     CD32A     2.07980       11.6110           0  -1.66000       1.30000    
     13085 MEMB     72       POPE     DC312    DRUD     -2.23580      0.400000           0   0.00000       0.00000    
     13086 MEMB     72       POPE     H12X     HDA2A    0.780000E-01   1.00800           0   0.00000       0.00000    
     13087 MEMB     72       POPE     H12Y     HDA2A    0.780000E-01   1.00800           0   0.00000       0.00000    
     13088 MEMB     72       POPE     C313     CD32A     2.07980       11.6110           0  -1.66000       1.30000    
     13089 MEMB     72       POPE     DC313    DRUD     -2.23580      0.400000           0   0.00000       0.00000    
     13090 MEMB     72       POPE     H13X     HDA2A    0.780000E-01   1.00800           0   0.00000       0.00000    
     13091 MEMB     72       POPE     H13Y     HDA2A    0.780000E-01   1.00800           0   0.00000       0.00000    
     13092 MEMB     72       POPE     C314     CD32A     2.07980       11.6110           0  -1.66000       1.30000    
     13093 MEMB     72       POPE     DC314    DRUD     -2.23580      0.400000           0   0.00000       0.00000    
     13094 MEMB     72       POPE     H14X     HDA2A    0.780000E-01   1.00800           0   0.00000       0.00000    
     13095 MEMB     72       POPE     H14Y     HDA2A    0.780000E-01   1.00800           0   0.00000       0.00000    
     13096 MEMB     72       POPE     C315     CD32A     2.07980       11.6110           0  -1.66000       1.30000    
     13097 MEMB     72       POPE     DC315    DRUD     -2.23580      0.400000           0   0.00000       0.00000    
     13098 MEMB     72       POPE     H15X     HDA2A    0.780000E-01   1.00800           0   0.00000       0.00000    
     13099 MEMB     72       POPE     H15Y     HDA2A    0.780000E-01   1.00800           0   0.00000       0.00000    
     13100 MEMB     72       POPE     C316     CD33A     2.30820       11.6110           0  -2.05100       1.30000    
     13101 MEMB     72       POPE     DC316    DRUD     -2.48520      0.400000           0   0.00000       0.00000    
     13102 MEMB     72       POPE     H16X     HDA3A    0.590000E-01   1.00800           0   0.00000       0.00000    
     13103 MEMB     72       POPE     H16Y     HDA3A    0.590000E-01   1.00800           0   0.00000       0.00000    
     13104 MEMB     72       POPE     H16Z     HDA3A    0.590000E-01   1.00800           0   0.00000       0.00000    
     13105 MEMB     73       POPE     N        ND3P3A    1.62810       13.6070           0  -1.29800      0.895000    
     13106 MEMB     73       POPE     DN       DRUD     -1.97710      0.400000           0   0.00000       0.00000    
     13107 MEMB     73       POPE     HN1      HDP1B    0.340000       1.00800           0   0.00000       0.00000    
     13108 MEMB     73       POPE     HN2      HDP1B    0.340000       1.00800           0   0.00000       0.00000    
     13109 MEMB     73       POPE     HN3      HDP1B    0.340000       1.00800           0   0.00000       0.00000    
     13110 MEMB     73       POPE     C12      CD32A     2.27610       11.6110           0  -1.65600      0.895000    
     13111 MEMB     73       POPE     DC12     DRUD     -2.23310      0.400000           0   0.00000       0.00000    
     13112 MEMB     73       POPE     H12A     HDA2A    0.143000       1.00800           0   0.00000       0.00000    
     13113 MEMB     73       POPE     H12B     HDA2A    0.143000       1.00800           0   0.00000       0.00000    
     13114 MEMB     73       POPE     C11      CD32A     2.42220       11.6110           0  -1.64200      0.862000    
     13115 MEMB     73       POPE     DC11     DRUD     -2.22370      0.400000           0   0.00000       0.00000    
     13116 MEMB     73       POPE     H11A     HDA2A    0.260000E-01   1.00800           0   0.00000       0.00000    
     13117 MEMB     73       POPE     H11B     HDA2A    0.260000E-01   1.00800           0   0.00000       0.00000    
     13118 MEMB     73       POPE     P        PD1A      2.90360       30.5740           0 -0.974000       2.09800    
     13119 MEMB     73       POPE     DP       DRUD     -1.71260      0.400000           0   0.00000       0.00000    
     13120 MEMB     73       POPE     O13      OD2C2B   0.798400       15.5994           0 -0.931000       1.08300    
     13121 MEMB     73       POPE     DO13     DRUD     -1.67440      0.400000           0   0.00000       0.00000    
     13122 MEMB     73       POPE     O14      OD2C2B   0.798400       15.5994           0 -0.931000       1.08300    
     13123 MEMB     73       POPE     DO14     DRUD     -1.67440      0.400000           0   0.00000       0.00000    
     13124 MEMB     73       POPE     O11      OD30B     1.17720       15.5994           0 -0.901000      0.181000    
     13125 MEMB     73       POPE     DO11     DRUD     -1.64720      0.400000           0   0.00000       0.00000    
     13126 MEMB     73       POPE     O12      OD30B     1.17720       15.5994           0 -0.901000      0.181000    
     13127 MEMB     73       POPE     DO12     DRUD     -1.64720      0.400000           0   0.00000       0.00000    
     13128 MEMB     73       POPE     C1       CD32A     2.42220       11.6110           0  -1.64200      0.862000    
     13129 MEMB     73       POPE     DC1      DRUD     -2.22370      0.400000           0   0.00000       0.00000    
     13130 MEMB     73       POPE     HA       HDA2A    0.260000E-01   1.00800           0   0.00000       0.00000    
     13131 MEMB     73       POPE     HB       HDA2A    0.260000E-01   1.00800           0   0.00000       0.00000    
     13132 MEMB     73       POPE     C2       CD31C     2.52830       11.6110           0  -1.79700      0.410000    
     13133 MEMB     73       POPE     DC2      DRUD     -2.32630      0.400000           0   0.00000       0.00000    
     13134 MEMB     73       POPE     HS       HDA1A    0.116000       1.00800           0   0.00000       0.00000    
     13135 MEMB     73       POPE     O21      OD30CL    1.48470       15.5994           0 -0.732000      0.601000    
     13136 MEMB     73       POPE     DO21     DRUD     -1.48470      0.400000           0   0.00000       0.00000    
     13137 MEMB     73       POPE     C21      CD2O3B    2.72820       11.6110           0  -1.37000       1.74700    
     13138 MEMB     73       POPE     DC21     DRUD     -2.03120      0.400000           0   0.00000       0.00000    
     13139 MEMB     73       POPE     O22      OD2C3B    1.64990       15.5994           0 -0.904000      0.565000    
     13140 MEMB     73       POPE     DO22     DRUD     -1.64990      0.400000           0   0.00000       0.00000    
     13141 MEMB     73       POPE     C22      CD32C     2.24380       11.6110           0  -1.99300      0.410000    
     13142 MEMB     73       POPE     DC22     DRUD     -2.44980      0.400000           0   0.00000       0.00000    
     13143 MEMB     73       POPE     H2R      HDA2A    0.690000E-01   1.00800           0   0.00000       0.00000    
     13144 MEMB     73       POPE     H2S      HDA2A    0.690000E-01   1.00800           0   0.00000       0.00000    
     13145 MEMB     73       POPE     LP1A     LPD     -0.349000       0.00000          -1   0.00000       0.00000    
     13146 MEMB     73       POPE     LP1B     LPD     -0.258000       0.00000          -1   0.00000       0.00000    
     13147 MEMB     73       POPE     LPMA     LPD     -0.170000       0.00000          -1   0.00000       0.00000    
     13148 MEMB     73       POPE     LPMB     LPD     -0.170000       0.00000          -1   0.00000       0.00000    
     13149 MEMB     73       POPE     C3       CD32C     2.41230       11.6110           0  -1.79700      0.410000    
     13150 MEMB     73       POPE     DC3      DRUD     -2.32630      0.400000           0   0.00000       0.00000    
     13151 MEMB     73       POPE     HX       HDA2A    0.116000       1.00800           0   0.00000       0.00000    
     13152 MEMB     73       POPE     HY       HDA2A    0.116000       1.00800           0   0.00000       0.00000    
     13153 MEMB     73       POPE     O31      OD30CL    1.48470       15.5994           0 -0.732000      0.601000    
     13154 MEMB     73       POPE     DO31     DRUD     -1.48470      0.400000           0   0.00000       0.00000    
     13155 MEMB     73       POPE     C31      CD2O3B    2.72820       11.6110           0  -1.37000       1.74700    
     13156 MEMB     73       POPE     DC31     DRUD     -2.03120      0.400000           0   0.00000       0.00000    
     13157 MEMB     73       POPE     O32      OD2C3B    1.64990       15.5994           0 -0.904000      0.565000    
     13158 MEMB     73       POPE     DO32     DRUD     -1.64990      0.400000           0   0.00000       0.00000    
     13159 MEMB     73       POPE     C32      CD32C     2.24380       11.6110           0  -1.99300      0.410000    
     13160 MEMB     73       POPE     DC32     DRUD     -2.44980      0.400000           0   0.00000       0.00000    
     13161 MEMB     73       POPE     H2X      HDA2A    0.690000E-01   1.00800           0   0.00000       0.00000    
     13162 MEMB     73       POPE     H2Y      HDA2A    0.690000E-01   1.00800           0   0.00000       0.00000    
     13163 MEMB     73       POPE     LP1C     LPD     -0.349000       0.00000          -1   0.00000       0.00000    
     13164 MEMB     73       POPE     LP1D     LPD     -0.258000       0.00000          -1   0.00000       0.00000    
     13165 MEMB     73       POPE     LPMC     LPD     -0.170000       0.00000          -1   0.00000       0.00000    
     13166 MEMB     73       POPE     LPMD     LPD     -0.170000       0.00000          -1   0.00000       0.00000    
     13167 MEMB     73       POPE     C23      CD32A     2.07980       11.6110           0  -1.66000       1.30000    
     13168 MEMB     73       POPE     DC23     DRUD     -2.23580      0.400000           0   0.00000       0.00000    
     13169 MEMB     73       POPE     H3R      HDA2A    0.780000E-01   1.00800           0   0.00000       0.00000    
     13170 MEMB     73       POPE     H3S      HDA2A    0.780000E-01   1.00800           0   0.00000       0.00000    
     13171 MEMB     73       POPE     C24      CD32A     2.07980       11.6110           0  -1.66000       1.30000    
     13172 MEMB     73       POPE     DC24     DRUD     -2.23580      0.400000           0   0.00000       0.00000    
     13173 MEMB     73       POPE     H4R      HDA2A    0.780000E-01   1.00800           0   0.00000       0.00000    
     13174 MEMB     73       POPE     H4S      HDA2A    0.780000E-01   1.00800           0   0.00000       0.00000    
     13175 MEMB     73       POPE     C25      CD32A     2.07980       11.6110           0  -1.66000       1.30000    
     13176 MEMB     73       POPE     DC25     DRUD     -2.23580      0.400000           0   0.00000       0.00000    
     13177 MEMB     73       POPE     H5R      HDA2A    0.780000E-01   1.00800           0   0.00000       0.00000    
     13178 MEMB     73       POPE     H5S      HDA2A    0.780000E-01   1.00800           0   0.00000       0.00000    
     13179 MEMB     73       POPE     C26      CD32A     2.07980       11.6110           0  -1.66000       1.30000    
     13180 MEMB     73       POPE     DC26     DRUD     -2.23580      0.400000           0   0.00000       0.00000    
     13181 MEMB     73       POPE     H6R      HDA2A    0.780000E-01   1.00800           0   0.00000       0.00000    
     13182 MEMB     73       POPE     H6S      HDA2A    0.780000E-01   1.00800           0   0.00000       0.00000    
     13183 MEMB     73       POPE     C27      CD32A     2.07980       11.6110           0  -1.66000       1.30000    
     13184 MEMB     73       POPE     DC27     DRUD     -2.23580      0.400000           0   0.00000       0.00000    
     13185 MEMB     73       POPE     H7R      HDA2A    0.780000E-01   1.00800           0   0.00000       0.00000    
     13186 MEMB     73       POPE     H7S      HDA2A    0.780000E-01   1.00800           0   0.00000       0.00000    
     13187 MEMB     73       POPE     C28      CD32A     2.07980       11.6110           0  -1.66000       1.30000    
     13188 MEMB     73       POPE     DC28     DRUD     -2.23580      0.400000           0   0.00000       0.00000    
     13189 MEMB     73       POPE     H8R      HDA2A    0.780000E-01   1.00800           0   0.00000       0.00000    
     13190 MEMB     73       POPE     H8S      HDA2A    0.780000E-01   1.00800           0   0.00000       0.00000    
     13191 MEMB     73       POPE     C29      CD2C1A    2.33700       11.6110           0  -1.99000      0.750000    
     13192 MEMB     73       POPE     DC29     DRUD     -2.44800      0.400000           0   0.00000       0.00000    
     13193 MEMB     73       POPE     H91      HD2C1A   0.111000       1.00800           0   0.00000       0.00000    
     13194 MEMB     73       POPE     C210     CD2C1A    2.33700       11.6110           0  -1.99000      0.750000    
     13195 MEMB     73       POPE     DC210    DRUD     -2.44800      0.400000           0   0.00000       0.00000    
     13196 MEMB     73       POPE     H101     HD2C1A   0.111000       1.00800           0   0.00000       0.00000    
     13197 MEMB     73       POPE     C211     CD32A     2.07980       11.6110           0  -1.66000       1.30000    
     13198 MEMB     73       POPE     DC211    DRUD     -2.23580      0.400000           0   0.00000       0.00000    
     13199 MEMB     73       POPE     H11R     HDA2A    0.780000E-01   1.00800           0   0.00000       0.00000    
     13200 MEMB     73       POPE     H11S     HDA2A    0.780000E-01   1.00800           0   0.00000       0.00000    
     13201 MEMB     73       POPE     C212     CD32A     2.07980       11.6110           0  -1.66000       1.30000    
     13202 MEMB     73       POPE     DC212    DRUD     -2.23580      0.400000           0   0.00000       0.00000    
     13203 MEMB     73       POPE     H12R     HDA2A    0.780000E-01   1.00800           0   0.00000       0.00000    
     13204 MEMB     73       POPE     H12S     HDA2A    0.780000E-01   1.00800           0   0.00000       0.00000    
     13205 MEMB     73       POPE     C213     CD32A     2.07980       11.6110           0  -1.66000       1.30000    
     13206 MEMB     73       POPE     DC213    DRUD     -2.23580      0.400000           0   0.00000       0.00000    
     13207 MEMB     73       POPE     H13R     HDA2A    0.780000E-01   1.00800           0   0.00000       0.00000    
     13208 MEMB     73       POPE     H13S     HDA2A    0.780000E-01   1.00800           0   0.00000       0.00000    
     13209 MEMB     73       POPE     C214     CD32A     2.07980       11.6110           0  -1.66000       1.30000    
     13210 MEMB     73       POPE     DC214    DRUD     -2.23580      0.400000           0   0.00000       0.00000    
     13211 MEMB     73       POPE     H14R     HDA2A    0.780000E-01   1.00800           0   0.00000       0.00000    
     13212 MEMB     73       POPE     H14S     HDA2A    0.780000E-01   1.00800           0   0.00000       0.00000    
     13213 MEMB     73       POPE     C215     CD32A     2.07980       11.6110           0  -1.66000       1.30000    
     13214 MEMB     73       POPE     DC215    DRUD     -2.23580      0.400000           0   0.00000       0.00000    
     13215 MEMB     73       POPE     H15R     HDA2A    0.780000E-01   1.00800           0   0.00000       0.00000    
     13216 MEMB     73       POPE     H15S     HDA2A    0.780000E-01   1.00800           0   0.00000       0.00000    
     13217 MEMB     73       POPE     C216     CD32A     2.07980       11.6110           0  -1.66000       1.30000    
     13218 MEMB     73       POPE     DC216    DRUD     -2.23580      0.400000           0   0.00000       0.00000    
     13219 MEMB     73       POPE     H16R     HDA2A    0.780000E-01   1.00800           0   0.00000       0.00000    
     13220 MEMB     73       POPE     H16S     HDA2A    0.780000E-01   1.00800           0   0.00000       0.00000    
     13221 MEMB     73       POPE     C217     CD32A     2.07980       11.6110           0  -1.66000       1.30000    
     13222 MEMB     73       POPE     DC217    DRUD     -2.23580      0.400000           0   0.00000       0.00000    
     13223 MEMB     73       POPE     H17R     HDA2A    0.780000E-01   1.00800           0   0.00000       0.00000    
     13224 MEMB     73       POPE     H17S     HDA2A    0.780000E-01   1.00800           0   0.00000       0.00000    
     13225 MEMB     73       POPE     C218     CD33A     2.30820       11.6110           0  -2.05100       1.30000    
     13226 MEMB     73       POPE     DC218    DRUD     -2.48520      0.400000           0   0.00000       0.00000    
     13227 MEMB     73       POPE     H18R     HDA3A    0.590000E-01   1.00800           0   0.00000       0.00000    
     13228 MEMB     73       POPE     H18S     HDA3A    0.590000E-01   1.00800           0   0.00000       0.00000    
     13229 MEMB     73       POPE     H18T     HDA3A    0.590000E-01   1.00800           0   0.00000       0.00000    
     13230 MEMB     73       POPE     C33      CD32A     2.07980       11.6110           0  -1.66000       1.30000    
     13231 MEMB     73       POPE     DC33     DRUD     -2.23580      0.400000           0   0.00000       0.00000    
     13232 MEMB     73       POPE     H3X      HDA2A    0.780000E-01   1.00800           0   0.00000       0.00000    
     13233 MEMB     73       POPE     H3Y      HDA2A    0.780000E-01   1.00800           0   0.00000       0.00000    
     13234 MEMB     73       POPE     C34      CD32A     2.07980       11.6110           0  -1.66000       1.30000    
     13235 MEMB     73       POPE     DC34     DRUD     -2.23580      0.400000           0   0.00000       0.00000    
     13236 MEMB     73       POPE     H4X      HDA2A    0.780000E-01   1.00800           0   0.00000       0.00000    
     13237 MEMB     73       POPE     H4Y      HDA2A    0.780000E-01   1.00800           0   0.00000       0.00000    
     13238 MEMB     73       POPE     C35      CD32A     2.07980       11.6110           0  -1.66000       1.30000    
     13239 MEMB     73       POPE     DC35     DRUD     -2.23580      0.400000           0   0.00000       0.00000    
     13240 MEMB     73       POPE     H5X      HDA2A    0.780000E-01   1.00800           0   0.00000       0.00000    
     13241 MEMB     73       POPE     H5Y      HDA2A    0.780000E-01   1.00800           0   0.00000       0.00000    
     13242 MEMB     73       POPE     C36      CD32A     2.07980       11.6110           0  -1.66000       1.30000    
     13243 MEMB     73       POPE     DC36     DRUD     -2.23580      0.400000           0   0.00000       0.00000    
     13244 MEMB     73       POPE     H6X      HDA2A    0.780000E-01   1.00800           0   0.00000       0.00000    
     13245 MEMB     73       POPE     H6Y      HDA2A    0.780000E-01   1.00800           0   0.00000       0.00000    
     13246 MEMB     73       POPE     C37      CD32A     2.07980       11.6110           0  -1.66000       1.30000    
     13247 MEMB     73       POPE     DC37     DRUD     -2.23580      0.400000           0   0.00000       0.00000    
     13248 MEMB     73       POPE     H7X      HDA2A    0.780000E-01   1.00800           0   0.00000       0.00000    
     13249 MEMB     73       POPE     H7Y      HDA2A    0.780000E-01   1.00800           0   0.00000       0.00000    
     13250 MEMB     73       POPE     C38      CD32A     2.07980       11.6110           0  -1.66000       1.30000    
     13251 MEMB     73       POPE     DC38     DRUD     -2.23580      0.400000           0   0.00000       0.00000    
     13252 MEMB     73       POPE     H8X      HDA2A    0.780000E-01   1.00800           0   0.00000       0.00000    
     13253 MEMB     73       POPE     H8Y      HDA2A    0.780000E-01   1.00800           0   0.00000       0.00000    
     13254 MEMB     73       POPE     C39      CD32A     2.07980       11.6110           0  -1.66000       1.30000    
     13255 MEMB     73       POPE     DC39     DRUD     -2.23580      0.400000           0   0.00000       0.00000    
     13256 MEMB     73       POPE     H9X      HDA2A    0.780000E-01   1.00800           0   0.00000       0.00000    
     13257 MEMB     73       POPE     H9Y      HDA2A    0.780000E-01   1.00800           0   0.00000       0.00000    
     13258 MEMB     73       POPE     C310     CD32A     2.07980       11.6110           0  -1.66000       1.30000    
     13259 MEMB     73       POPE     DC310    DRUD     -2.23580      0.400000           0   0.00000       0.00000    
     13260 MEMB     73       POPE     H10X     HDA2A    0.780000E-01   1.00800           0   0.00000       0.00000    
     13261 MEMB     73       POPE     H10Y     HDA2A    0.780000E-01   1.00800           0   0.00000       0.00000    
     13262 MEMB     73       POPE     C311     CD32A     2.07980       11.6110           0  -1.66000       1.30000    
     13263 MEMB     73       POPE     DC311    DRUD     -2.23580      0.400000           0   0.00000       0.00000    
     13264 MEMB     73       POPE     H11X     HDA2A    0.780000E-01   1.00800           0   0.00000       0.00000    
     13265 MEMB     73       POPE     H11Y     HDA2A    0.780000E-01   1.00800           0   0.00000       0.00000    
     13266 MEMB     73       POPE     C312     CD32A     2.07980       11.6110           0  -1.66000       1.30000    
     13267 MEMB     73       POPE     DC312    DRUD     -2.23580      0.400000           0   0.00000       0.00000    
     13268 MEMB     73       POPE     H12X     HDA2A    0.780000E-01   1.00800           0   0.00000       0.00000    
     13269 MEMB     73       POPE     H12Y     HDA2A    0.780000E-01   1.00800           0   0.00000       0.00000    
     13270 MEMB     73       POPE     C313     CD32A     2.07980       11.6110           0  -1.66000       1.30000    
     13271 MEMB     73       POPE     DC313    DRUD     -2.23580      0.400000           0   0.00000       0.00000    
     13272 MEMB     73       POPE     H13X     HDA2A    0.780000E-01   1.00800           0   0.00000       0.00000    
     13273 MEMB     73       POPE     H13Y     HDA2A    0.780000E-01   1.00800           0   0.00000       0.00000    
     13274 MEMB     73       POPE     C314     CD32A     2.07980       11.6110           0  -1.66000       1.30000    
     13275 MEMB     73       POPE     DC314    DRUD     -2.23580      0.400000           0   0.00000       0.00000    
     13276 MEMB     73       POPE     H14X     HDA2A    0.780000E-01   1.00800           0   0.00000       0.00000    
     13277 MEMB     73       POPE     H14Y     HDA2A    0.780000E-01   1.00800           0   0.00000       0.00000    
     13278 MEMB     73       POPE     C315     CD32A     2.07980       11.6110           0  -1.66000       1.30000    
     13279 MEMB     73       POPE     DC315    DRUD     -2.23580      0.400000           0   0.00000       0.00000    
     13280 MEMB     73       POPE     H15X     HDA2A    0.780000E-01   1.00800           0   0.00000       0.00000    
     13281 MEMB     73       POPE     H15Y     HDA2A    0.780000E-01   1.00800           0   0.00000       0.00000    
     13282 MEMB     73       POPE     C316     CD33A     2.30820       11.6110           0  -2.05100       1.30000    
     13283 MEMB     73       POPE     DC316    DRUD     -2.48520      0.400000           0   0.00000       0.00000    
     13284 MEMB     73       POPE     H16X     HDA3A    0.590000E-01   1.00800           0   0.00000       0.00000    
     13285 MEMB     73       POPE     H16Y     HDA3A    0.590000E-01   1.00800           0   0.00000       0.00000    
     13286 MEMB     73       POPE     H16Z     HDA3A    0.590000E-01   1.00800           0   0.00000       0.00000    
     13287 MEMB     74       POPE     N        ND3P3A    1.62810       13.6070           0  -1.29800      0.895000    
     13288 MEMB     74       POPE     DN       DRUD     -1.97710      0.400000           0   0.00000       0.00000    
     13289 MEMB     74       POPE     HN1      HDP1B    0.340000       1.00800           0   0.00000       0.00000    
     13290 MEMB     74       POPE     HN2      HDP1B    0.340000       1.00800           0   0.00000       0.00000    
     13291 MEMB     74       POPE     HN3      HDP1B    0.340000       1.00800           0   0.00000       0.00000    
     13292 MEMB     74       POPE     C12      CD32A     2.27610       11.6110           0  -1.65600      0.895000    
     13293 MEMB     74       POPE     DC12     DRUD     -2.23310      0.400000           0   0.00000       0.00000    
     13294 MEMB     74       POPE     H12A     HDA2A    0.143000       1.00800           0   0.00000       0.00000    
     13295 MEMB     74       POPE     H12B     HDA2A    0.143000       1.00800           0   0.00000       0.00000    
     13296 MEMB     74       POPE     C11      CD32A     2.42220       11.6110           0  -1.64200      0.862000    
     13297 MEMB     74       POPE     DC11     DRUD     -2.22370      0.400000           0   0.00000       0.00000    
     13298 MEMB     74       POPE     H11A     HDA2A    0.260000E-01   1.00800           0   0.00000       0.00000    
     13299 MEMB     74       POPE     H11B     HDA2A    0.260000E-01   1.00800           0   0.00000       0.00000    
     13300 MEMB     74       POPE     P        PD1A      2.90360       30.5740           0 -0.974000       2.09800    
     13301 MEMB     74       POPE     DP       DRUD     -1.71260      0.400000           0   0.00000       0.00000    
     13302 MEMB     74       POPE     O13      OD2C2B   0.798400       15.5994           0 -0.931000       1.08300    
     13303 MEMB     74       POPE     DO13     DRUD     -1.67440      0.400000           0   0.00000       0.00000    
     13304 MEMB     74       POPE     O14      OD2C2B   0.798400       15.5994           0 -0.931000       1.08300    
     13305 MEMB     74       POPE     DO14     DRUD     -1.67440      0.400000           0   0.00000       0.00000    
     13306 MEMB     74       POPE     O11      OD30B     1.17720       15.5994           0 -0.901000      0.181000    
     13307 MEMB     74       POPE     DO11     DRUD     -1.64720      0.400000           0   0.00000       0.00000    
     13308 MEMB     74       POPE     O12      OD30B     1.17720       15.5994           0 -0.901000      0.181000    
     13309 MEMB     74       POPE     DO12     DRUD     -1.64720      0.400000           0   0.00000       0.00000    
     13310 MEMB     74       POPE     C1       CD32A     2.42220       11.6110           0  -1.64200      0.862000    
     13311 MEMB     74       POPE     DC1      DRUD     -2.22370      0.400000           0   0.00000       0.00000    
     13312 MEMB     74       POPE     HA       HDA2A    0.260000E-01   1.00800           0   0.00000       0.00000    
     13313 MEMB     74       POPE     HB       HDA2A    0.260000E-01   1.00800           0   0.00000       0.00000    
     13314 MEMB     74       POPE     C2       CD31C     2.52830       11.6110           0  -1.79700      0.410000    
     13315 MEMB     74       POPE     DC2      DRUD     -2.32630      0.400000           0   0.00000       0.00000    
     13316 MEMB     74       POPE     HS       HDA1A    0.116000       1.00800           0   0.00000       0.00000    
     13317 MEMB     74       POPE     O21      OD30CL    1.48470       15.5994           0 -0.732000      0.601000    
     13318 MEMB     74       POPE     DO21     DRUD     -1.48470      0.400000           0   0.00000       0.00000    
     13319 MEMB     74       POPE     C21      CD2O3B    2.72820       11.6110           0  -1.37000       1.74700    
     13320 MEMB     74       POPE     DC21     DRUD     -2.03120      0.400000           0   0.00000       0.00000    
     13321 MEMB     74       POPE     O22      OD2C3B    1.64990       15.5994           0 -0.904000      0.565000    
     13322 MEMB     74       POPE     DO22     DRUD     -1.64990      0.400000           0   0.00000       0.00000    
     13323 MEMB     74       POPE     C22      CD32C     2.24380       11.6110           0  -1.99300      0.410000    
     13324 MEMB     74       POPE     DC22     DRUD     -2.44980      0.400000           0   0.00000       0.00000    
     13325 MEMB     74       POPE     H2R      HDA2A    0.690000E-01   1.00800           0   0.00000       0.00000    
     13326 MEMB     74       POPE     H2S      HDA2A    0.690000E-01   1.00800           0   0.00000       0.00000    
     13327 MEMB     74       POPE     LP1A     LPD     -0.349000       0.00000          -1   0.00000       0.00000    
     13328 MEMB     74       POPE     LP1B     LPD     -0.258000       0.00000          -1   0.00000       0.00000    
     13329 MEMB     74       POPE     LPMA     LPD     -0.170000       0.00000          -1   0.00000       0.00000    
     13330 MEMB     74       POPE     LPMB     LPD     -0.170000       0.00000          -1   0.00000       0.00000    
     13331 MEMB     74       POPE     C3       CD32C     2.41230       11.6110           0  -1.79700      0.410000    
     13332 MEMB     74       POPE     DC3      DRUD     -2.32630      0.400000           0   0.00000       0.00000    
     13333 MEMB     74       POPE     HX       HDA2A    0.116000       1.00800           0   0.00000       0.00000    
     13334 MEMB     74       POPE     HY       HDA2A    0.116000       1.00800           0   0.00000       0.00000    
     13335 MEMB     74       POPE     O31      OD30CL    1.48470       15.5994           0 -0.732000      0.601000    
     13336 MEMB     74       POPE     DO31     DRUD     -1.48470      0.400000           0   0.00000       0.00000    
     13337 MEMB     74       POPE     C31      CD2O3B    2.72820       11.6110           0  -1.37000       1.74700    
     13338 MEMB     74       POPE     DC31     DRUD     -2.03120      0.400000           0   0.00000       0.00000    
     13339 MEMB     74       POPE     O32      OD2C3B    1.64990       15.5994           0 -0.904000      0.565000    
     13340 MEMB     74       POPE     DO32     DRUD     -1.64990      0.400000           0   0.00000       0.00000    
     13341 MEMB     74       POPE     C32      CD32C     2.24380       11.6110           0  -1.99300      0.410000    
     13342 MEMB     74       POPE     DC32     DRUD     -2.44980      0.400000           0   0.00000       0.00000    
     13343 MEMB     74       POPE     H2X      HDA2A    0.690000E-01   1.00800           0   0.00000       0.00000    
     13344 MEMB     74       POPE     H2Y      HDA2A    0.690000E-01   1.00800           0   0.00000       0.00000    
     13345 MEMB     74       POPE     LP1C     LPD     -0.349000       0.00000          -1   0.00000       0.00000    
     13346 MEMB     74       POPE     LP1D     LPD     -0.258000       0.00000          -1   0.00000       0.00000    
     13347 MEMB     74       POPE     LPMC     LPD     -0.170000       0.00000          -1   0.00000       0.00000    
     13348 MEMB     74       POPE     LPMD     LPD     -0.170000       0.00000          -1   0.00000       0.00000    
     13349 MEMB     74       POPE     C23      CD32A     2.07980       11.6110           0  -1.66000       1.30000    
     13350 MEMB     74       POPE     DC23     DRUD     -2.23580      0.400000           0   0.00000       0.00000    
     13351 MEMB     74       POPE     H3R      HDA2A    0.780000E-01   1.00800           0   0.00000       0.00000    
     13352 MEMB     74       POPE     H3S      HDA2A    0.780000E-01   1.00800           0   0.00000       0.00000    
     13353 MEMB     74       POPE     C24      CD32A     2.07980       11.6110           0  -1.66000       1.30000    
     13354 MEMB     74       POPE     DC24     DRUD     -2.23580      0.400000           0   0.00000       0.00000    
     13355 MEMB     74       POPE     H4R      HDA2A    0.780000E-01   1.00800           0   0.00000       0.00000    
     13356 MEMB     74       POPE     H4S      HDA2A    0.780000E-01   1.00800           0   0.00000       0.00000    
     13357 MEMB     74       POPE     C25      CD32A     2.07980       11.6110           0  -1.66000       1.30000    
     13358 MEMB     74       POPE     DC25     DRUD     -2.23580      0.400000           0   0.00000       0.00000    
     13359 MEMB     74       POPE     H5R      HDA2A    0.780000E-01   1.00800           0   0.00000       0.00000    
     13360 MEMB     74       POPE     H5S      HDA2A    0.780000E-01   1.00800           0   0.00000       0.00000    
     13361 MEMB     74       POPE     C26      CD32A     2.07980       11.6110           0  -1.66000       1.30000    
     13362 MEMB     74       POPE     DC26     DRUD     -2.23580      0.400000           0   0.00000       0.00000    
     13363 MEMB     74       POPE     H6R      HDA2A    0.780000E-01   1.00800           0   0.00000       0.00000    
     13364 MEMB     74       POPE     H6S      HDA2A    0.780000E-01   1.00800           0   0.00000       0.00000    
     13365 MEMB     74       POPE     C27      CD32A     2.07980       11.6110           0  -1.66000       1.30000    
     13366 MEMB     74       POPE     DC27     DRUD     -2.23580      0.400000           0   0.00000       0.00000    
     13367 MEMB     74       POPE     H7R      HDA2A    0.780000E-01   1.00800           0   0.00000       0.00000    
     13368 MEMB     74       POPE     H7S      HDA2A    0.780000E-01   1.00800           0   0.00000       0.00000    
     13369 MEMB     74       POPE     C28      CD32A     2.07980       11.6110           0  -1.66000       1.30000    
     13370 MEMB     74       POPE     DC28     DRUD     -2.23580      0.400000           0   0.00000       0.00000    
     13371 MEMB     74       POPE     H8R      HDA2A    0.780000E-01   1.00800           0   0.00000       0.00000    
     13372 MEMB     74       POPE     H8S      HDA2A    0.780000E-01   1.00800           0   0.00000       0.00000    
     13373 MEMB     74       POPE     C29      CD2C1A    2.33700       11.6110           0  -1.99000      0.750000    
     13374 MEMB     74       POPE     DC29     DRUD     -2.44800      0.400000           0   0.00000       0.00000    
     13375 MEMB     74       POPE     H91      HD2C1A   0.111000       1.00800           0   0.00000       0.00000    
     13376 MEMB     74       POPE     C210     CD2C1A    2.33700       11.6110           0  -1.99000      0.750000    
     13377 MEMB     74       POPE     DC210    DRUD     -2.44800      0.400000           0   0.00000       0.00000    
     13378 MEMB     74       POPE     H101     HD2C1A   0.111000       1.00800           0   0.00000       0.00000    
     13379 MEMB     74       POPE     C211     CD32A     2.07980       11.6110           0  -1.66000       1.30000    
     13380 MEMB     74       POPE     DC211    DRUD     -2.23580      0.400000           0   0.00000       0.00000    
     13381 MEMB     74       POPE     H11R     HDA2A    0.780000E-01   1.00800           0   0.00000       0.00000    
     13382 MEMB     74       POPE     H11S     HDA2A    0.780000E-01   1.00800           0   0.00000       0.00000    
     13383 MEMB     74       POPE     C212     CD32A     2.07980       11.6110           0  -1.66000       1.30000    
     13384 MEMB     74       POPE     DC212    DRUD     -2.23580      0.400000           0   0.00000       0.00000    
     13385 MEMB     74       POPE     H12R     HDA2A    0.780000E-01   1.00800           0   0.00000       0.00000    
     13386 MEMB     74       POPE     H12S     HDA2A    0.780000E-01   1.00800           0   0.00000       0.00000    
     13387 MEMB     74       POPE     C213     CD32A     2.07980       11.6110           0  -1.66000       1.30000    
     13388 MEMB     74       POPE     DC213    DRUD     -2.23580      0.400000           0   0.00000       0.00000    
     13389 MEMB     74       POPE     H13R     HDA2A    0.780000E-01   1.00800           0   0.00000       0.00000    
     13390 MEMB     74       POPE     H13S     HDA2A    0.780000E-01   1.00800           0   0.00000       0.00000    
     13391 MEMB     74       POPE     C214     CD32A     2.07980       11.6110           0  -1.66000       1.30000    
     13392 MEMB     74       POPE     DC214    DRUD     -2.23580      0.400000           0   0.00000       0.00000    
     13393 MEMB     74       POPE     H14R     HDA2A    0.780000E-01   1.00800           0   0.00000       0.00000    
     13394 MEMB     74       POPE     H14S     HDA2A    0.780000E-01   1.00800           0   0.00000       0.00000    
     13395 MEMB     74       POPE     C215     CD32A     2.07980       11.6110           0  -1.66000       1.30000    
     13396 MEMB     74       POPE     DC215    DRUD     -2.23580      0.400000           0   0.00000       0.00000    
     13397 MEMB     74       POPE     H15R     HDA2A    0.780000E-01   1.00800           0   0.00000       0.00000    
     13398 MEMB     74       POPE     H15S     HDA2A    0.780000E-01   1.00800           0   0.00000       0.00000    
     13399 MEMB     74       POPE     C216     CD32A     2.07980       11.6110           0  -1.66000       1.30000    
     13400 MEMB     74       POPE     DC216    DRUD     -2.23580      0.400000           0   0.00000       0.00000    
     13401 MEMB     74       POPE     H16R     HDA2A    0.780000E-01   1.00800           0   0.00000       0.00000    
     13402 MEMB     74       POPE     H16S     HDA2A    0.780000E-01   1.00800           0   0.00000       0.00000    
     13403 MEMB     74       POPE     C217     CD32A     2.07980       11.6110           0  -1.66000       1.30000    
     13404 MEMB     74       POPE     DC217    DRUD     -2.23580      0.400000           0   0.00000       0.00000    
     13405 MEMB     74       POPE     H17R     HDA2A    0.780000E-01   1.00800           0   0.00000       0.00000    
     13406 MEMB     74       POPE     H17S     HDA2A    0.780000E-01   1.00800           0   0.00000       0.00000    
     13407 MEMB     74       POPE     C218     CD33A     2.30820       11.6110           0  -2.05100       1.30000    
     13408 MEMB     74       POPE     DC218    DRUD     -2.48520      0.400000           0   0.00000       0.00000    
     13409 MEMB     74       POPE     H18R     HDA3A    0.590000E-01   1.00800           0   0.00000       0.00000    
     13410 MEMB     74       POPE     H18S     HDA3A    0.590000E-01   1.00800           0   0.00000       0.00000    
     13411 MEMB     74       POPE     H18T     HDA3A    0.590000E-01   1.00800           0   0.00000       0.00000    
     13412 MEMB     74       POPE     C33      CD32A     2.07980       11.6110           0  -1.66000       1.30000    
     13413 MEMB     74       POPE     DC33     DRUD     -2.23580      0.400000           0   0.00000       0.00000    
     13414 MEMB     74       POPE     H3X      HDA2A    0.780000E-01   1.00800           0   0.00000       0.00000    
     13415 MEMB     74       POPE     H3Y      HDA2A    0.780000E-01   1.00800           0   0.00000       0.00000    
     13416 MEMB     74       POPE     C34      CD32A     2.07980       11.6110           0  -1.66000       1.30000    
     13417 MEMB     74       POPE     DC34     DRUD     -2.23580      0.400000           0   0.00000       0.00000    
     13418 MEMB     74       POPE     H4X      HDA2A    0.780000E-01   1.00800           0   0.00000       0.00000    
     13419 MEMB     74       POPE     H4Y      HDA2A    0.780000E-01   1.00800           0   0.00000       0.00000    
     13420 MEMB     74       POPE     C35      CD32A     2.07980       11.6110           0  -1.66000       1.30000    
     13421 MEMB     74       POPE     DC35     DRUD     -2.23580      0.400000           0   0.00000       0.00000    
     13422 MEMB     74       POPE     H5X      HDA2A    0.780000E-01   1.00800           0   0.00000       0.00000    
     13423 MEMB     74       POPE     H5Y      HDA2A    0.780000E-01   1.00800           0   0.00000       0.00000    
     13424 MEMB     74       POPE     C36      CD32A     2.07980       11.6110           0  -1.66000       1.30000    
     13425 MEMB     74       POPE     DC36     DRUD     -2.23580      0.400000           0   0.00000       0.00000    
     13426 MEMB     74       POPE     H6X      HDA2A    0.780000E-01   1.00800           0   0.00000       0.00000    
     13427 MEMB     74       POPE     H6Y      HDA2A    0.780000E-01   1.00800           0   0.00000       0.00000    
     13428 MEMB     74       POPE     C37      CD32A     2.07980       11.6110           0  -1.66000       1.30000    
     13429 MEMB     74       POPE     DC37     DRUD     -2.23580      0.400000           0   0.00000       0.00000    
     13430 MEMB     74       POPE     H7X      HDA2A    0.780000E-01   1.00800           0   0.00000       0.00000    
     13431 MEMB     74       POPE     H7Y      HDA2A    0.780000E-01   1.00800           0   0.00000       0.00000    
     13432 MEMB     74       POPE     C38      CD32A     2.07980       11.6110           0  -1.66000       1.30000    
     13433 MEMB     74       POPE     DC38     DRUD     -2.23580      0.400000           0   0.00000       0.00000    
     13434 MEMB     74       POPE     H8X      HDA2A    0.780000E-01   1.00800           0   0.00000       0.00000    
     13435 MEMB     74       POPE     H8Y      HDA2A    0.780000E-01   1.00800           0   0.00000       0.00000    
     13436 MEMB     74       POPE     C39      CD32A     2.07980       11.6110           0  -1.66000       1.30000    
     13437 MEMB     74       POPE     DC39     DRUD     -2.23580      0.400000           0   0.00000       0.00000    
     13438 MEMB     74       POPE     H9X      HDA2A    0.780000E-01   1.00800           0   0.00000       0.00000    
     13439 MEMB     74       POPE     H9Y      HDA2A    0.780000E-01   1.00800           0   0.00000       0.00000    
     13440 MEMB     74       POPE     C310     CD32A     2.07980       11.6110           0  -1.66000       1.30000    
     13441 MEMB     74       POPE     DC310    DRUD     -2.23580      0.400000           0   0.00000       0.00000    
     13442 MEMB     74       POPE     H10X     HDA2A    0.780000E-01   1.00800           0   0.00000       0.00000    
     13443 MEMB     74       POPE     H10Y     HDA2A    0.780000E-01   1.00800           0   0.00000       0.00000    
     13444 MEMB     74       POPE     C311     CD32A     2.07980       11.6110           0  -1.66000       1.30000    
     13445 MEMB     74       POPE     DC311    DRUD     -2.23580      0.400000           0   0.00000       0.00000    
     13446 MEMB     74       POPE     H11X     HDA2A    0.780000E-01   1.00800           0   0.00000       0.00000    
     13447 MEMB     74       POPE     H11Y     HDA2A    0.780000E-01   1.00800           0   0.00000       0.00000    
     13448 MEMB     74       POPE     C312     CD32A     2.07980       11.6110           0  -1.66000       1.30000    
     13449 MEMB     74       POPE     DC312    DRUD     -2.23580      0.400000           0   0.00000       0.00000    
     13450 MEMB     74       POPE     H12X     HDA2A    0.780000E-01   1.00800           0   0.00000       0.00000    
     13451 MEMB     74       POPE     H12Y     HDA2A    0.780000E-01   1.00800           0   0.00000       0.00000    
     13452 MEMB     74       POPE     C313     CD32A     2.07980       11.6110           0  -1.66000       1.30000    
     13453 MEMB     74       POPE     DC313    DRUD     -2.23580      0.400000           0   0.00000       0.00000    
     13454 MEMB     74       POPE     H13X     HDA2A    0.780000E-01   1.00800           0   0.00000       0.00000    
     13455 MEMB     74       POPE     H13Y     HDA2A    0.780000E-01   1.00800           0   0.00000       0.00000    
     13456 MEMB     74       POPE     C314     CD32A     2.07980       11.6110           0  -1.66000       1.30000    
     13457 MEMB     74       POPE     DC314    DRUD     -2.23580      0.400000           0   0.00000       0.00000    
     13458 MEMB     74       POPE     H14X     HDA2A    0.780000E-01   1.00800           0   0.00000       0.00000    
     13459 MEMB     74       POPE     H14Y     HDA2A    0.780000E-01   1.00800           0   0.00000       0.00000    
     13460 MEMB     74       POPE     C315     CD32A     2.07980       11.6110           0  -1.66000       1.30000    
     13461 MEMB     74       POPE     DC315    DRUD     -2.23580      0.400000           0   0.00000       0.00000    
     13462 MEMB     74       POPE     H15X     HDA2A    0.780000E-01   1.00800           0   0.00000       0.00000    
     13463 MEMB     74       POPE     H15Y     HDA2A    0.780000E-01   1.00800           0   0.00000       0.00000    
     13464 MEMB     74       POPE     C316     CD33A     2.30820       11.6110           0  -2.05100       1.30000    
     13465 MEMB     74       POPE     DC316    DRUD     -2.48520      0.400000           0   0.00000       0.00000    
     13466 MEMB     74       POPE     H16X     HDA3A    0.590000E-01   1.00800           0   0.00000       0.00000    
     13467 MEMB     74       POPE     H16Y     HDA3A    0.590000E-01   1.00800           0   0.00000       0.00000    
     13468 MEMB     74       POPE     H16Z     HDA3A    0.590000E-01   1.00800           0   0.00000       0.00000    
     13469 MEMB     75       POPE     N        ND3P3A    1.62810       13.6070           0  -1.29800      0.895000    
     13470 MEMB     75       POPE     DN       DRUD     -1.97710      0.400000           0   0.00000       0.00000    
     13471 MEMB     75       POPE     HN1      HDP1B    0.340000       1.00800           0   0.00000       0.00000    
     13472 MEMB     75       POPE     HN2      HDP1B    0.340000       1.00800           0   0.00000       0.00000    
     13473 MEMB     75       POPE     HN3      HDP1B    0.340000       1.00800           0   0.00000       0.00000    
     13474 MEMB     75       POPE     C12      CD32A     2.27610       11.6110           0  -1.65600      0.895000    
     13475 MEMB     75       POPE     DC12     DRUD     -2.23310      0.400000           0   0.00000       0.00000    
     13476 MEMB     75       POPE     H12A     HDA2A    0.143000       1.00800           0   0.00000       0.00000    
     13477 MEMB     75       POPE     H12B     HDA2A    0.143000       1.00800           0   0.00000       0.00000    
     13478 MEMB     75       POPE     C11      CD32A     2.42220       11.6110           0  -1.64200      0.862000    
     13479 MEMB     75       POPE     DC11     DRUD     -2.22370      0.400000           0   0.00000       0.00000    
     13480 MEMB     75       POPE     H11A     HDA2A    0.260000E-01   1.00800           0   0.00000       0.00000    
     13481 MEMB     75       POPE     H11B     HDA2A    0.260000E-01   1.00800           0   0.00000       0.00000    
     13482 MEMB     75       POPE     P        PD1A      2.90360       30.5740           0 -0.974000       2.09800    
     13483 MEMB     75       POPE     DP       DRUD     -1.71260      0.400000           0   0.00000       0.00000    
     13484 MEMB     75       POPE     O13      OD2C2B   0.798400       15.5994           0 -0.931000       1.08300    
     13485 MEMB     75       POPE     DO13     DRUD     -1.67440      0.400000           0   0.00000       0.00000    
     13486 MEMB     75       POPE     O14      OD2C2B   0.798400       15.5994           0 -0.931000       1.08300    
     13487 MEMB     75       POPE     DO14     DRUD     -1.67440      0.400000           0   0.00000       0.00000    
     13488 MEMB     75       POPE     O11      OD30B     1.17720       15.5994           0 -0.901000      0.181000    
     13489 MEMB     75       POPE     DO11     DRUD     -1.64720      0.400000           0   0.00000       0.00000    
     13490 MEMB     75       POPE     O12      OD30B     1.17720       15.5994           0 -0.901000      0.181000    
     13491 MEMB     75       POPE     DO12     DRUD     -1.64720      0.400000           0   0.00000       0.00000    
     13492 MEMB     75       POPE     C1       CD32A     2.42220       11.6110           0  -1.64200      0.862000    
     13493 MEMB     75       POPE     DC1      DRUD     -2.22370      0.400000           0   0.00000       0.00000    
     13494 MEMB     75       POPE     HA       HDA2A    0.260000E-01   1.00800           0   0.00000       0.00000    
     13495 MEMB     75       POPE     HB       HDA2A    0.260000E-01   1.00800           0   0.00000       0.00000    
     13496 MEMB     75       POPE     C2       CD31C     2.52830       11.6110           0  -1.79700      0.410000    
     13497 MEMB     75       POPE     DC2      DRUD     -2.32630      0.400000           0   0.00000       0.00000    
     13498 MEMB     75       POPE     HS       HDA1A    0.116000       1.00800           0   0.00000       0.00000    
     13499 MEMB     75       POPE     O21      OD30CL    1.48470       15.5994           0 -0.732000      0.601000    
     13500 MEMB     75       POPE     DO21     DRUD     -1.48470      0.400000           0   0.00000       0.00000    
     13501 MEMB     75       POPE     C21      CD2O3B    2.72820       11.6110           0  -1.37000       1.74700    
     13502 MEMB     75       POPE     DC21     DRUD     -2.03120      0.400000           0   0.00000       0.00000    
     13503 MEMB     75       POPE     O22      OD2C3B    1.64990       15.5994           0 -0.904000      0.565000    
     13504 MEMB     75       POPE     DO22     DRUD     -1.64990      0.400000           0   0.00000       0.00000    
     13505 MEMB     75       POPE     C22      CD32C     2.24380       11.6110           0  -1.99300      0.410000    
     13506 MEMB     75       POPE     DC22     DRUD     -2.44980      0.400000           0   0.00000       0.00000    
     13507 MEMB     75       POPE     H2R      HDA2A    0.690000E-01   1.00800           0   0.00000       0.00000    
     13508 MEMB     75       POPE     H2S      HDA2A    0.690000E-01   1.00800           0   0.00000       0.00000    
     13509 MEMB     75       POPE     LP1A     LPD     -0.349000       0.00000          -1   0.00000       0.00000    
     13510 MEMB     75       POPE     LP1B     LPD     -0.258000       0.00000          -1   0.00000       0.00000    
     13511 MEMB     75       POPE     LPMA     LPD     -0.170000       0.00000          -1   0.00000       0.00000    
     13512 MEMB     75       POPE     LPMB     LPD     -0.170000       0.00000          -1   0.00000       0.00000    
     13513 MEMB     75       POPE     C3       CD32C     2.41230       11.6110           0  -1.79700      0.410000    
     13514 MEMB     75       POPE     DC3      DRUD     -2.32630      0.400000           0   0.00000       0.00000    
     13515 MEMB     75       POPE     HX       HDA2A    0.116000       1.00800           0   0.00000       0.00000    
     13516 MEMB     75       POPE     HY       HDA2A    0.116000       1.00800           0   0.00000       0.00000    
     13517 MEMB     75       POPE     O31      OD30CL    1.48470       15.5994           0 -0.732000      0.601000    
     13518 MEMB     75       POPE     DO31     DRUD     -1.48470      0.400000           0   0.00000       0.00000    
     13519 MEMB     75       POPE     C31      CD2O3B    2.72820       11.6110           0  -1.37000       1.74700    
     13520 MEMB     75       POPE     DC31     DRUD     -2.03120      0.400000           0   0.00000       0.00000    
     13521 MEMB     75       POPE     O32      OD2C3B    1.64990       15.5994           0 -0.904000      0.565000    
     13522 MEMB     75       POPE     DO32     DRUD     -1.64990      0.400000           0   0.00000       0.00000    
     13523 MEMB     75       POPE     C32      CD32C     2.24380       11.6110           0  -1.99300      0.410000    
     13524 MEMB     75       POPE     DC32     DRUD     -2.44980      0.400000           0   0.00000       0.00000    
     13525 MEMB     75       POPE     H2X      HDA2A    0.690000E-01   1.00800           0   0.00000       0.00000    
     13526 MEMB     75       POPE     H2Y      HDA2A    0.690000E-01   1.00800           0   0.00000       0.00000    
     13527 MEMB     75       POPE     LP1C     LPD     -0.349000       0.00000          -1   0.00000       0.00000    
     13528 MEMB     75       POPE     LP1D     LPD     -0.258000       0.00000          -1   0.00000       0.00000    
     13529 MEMB     75       POPE     LPMC     LPD     -0.170000       0.00000          -1   0.00000       0.00000    
     13530 MEMB     75       POPE     LPMD     LPD     -0.170000       0.00000          -1   0.00000       0.00000    
     13531 MEMB     75       POPE     C23      CD32A     2.07980       11.6110           0  -1.66000       1.30000    
     13532 MEMB     75       POPE     DC23     DRUD     -2.23580      0.400000           0   0.00000       0.00000    
     13533 MEMB     75       POPE     H3R      HDA2A    0.780000E-01   1.00800           0   0.00000       0.00000    
     13534 MEMB     75       POPE     H3S      HDA2A    0.780000E-01   1.00800           0   0.00000       0.00000    
     13535 MEMB     75       POPE     C24      CD32A     2.07980       11.6110           0  -1.66000       1.30000    
     13536 MEMB     75       POPE     DC24     DRUD     -2.23580      0.400000           0   0.00000       0.00000    
     13537 MEMB     75       POPE     H4R      HDA2A    0.780000E-01   1.00800           0   0.00000       0.00000    
     13538 MEMB     75       POPE     H4S      HDA2A    0.780000E-01   1.00800           0   0.00000       0.00000    
     13539 MEMB     75       POPE     C25      CD32A     2.07980       11.6110           0  -1.66000       1.30000    
     13540 MEMB     75       POPE     DC25     DRUD     -2.23580      0.400000           0   0.00000       0.00000    
     13541 MEMB     75       POPE     H5R      HDA2A    0.780000E-01   1.00800           0   0.00000       0.00000    
     13542 MEMB     75       POPE     H5S      HDA2A    0.780000E-01   1.00800           0   0.00000       0.00000    
     13543 MEMB     75       POPE     C26      CD32A     2.07980       11.6110           0  -1.66000       1.30000    
     13544 MEMB     75       POPE     DC26     DRUD     -2.23580      0.400000           0   0.00000       0.00000    
     13545 MEMB     75       POPE     H6R      HDA2A    0.780000E-01   1.00800           0   0.00000       0.00000    
     13546 MEMB     75       POPE     H6S      HDA2A    0.780000E-01   1.00800           0   0.00000       0.00000    
     13547 MEMB     75       POPE     C27      CD32A     2.07980       11.6110           0  -1.66000       1.30000    
     13548 MEMB     75       POPE     DC27     DRUD     -2.23580      0.400000           0   0.00000       0.00000    
     13549 MEMB     75       POPE     H7R      HDA2A    0.780000E-01   1.00800           0   0.00000       0.00000    
     13550 MEMB     75       POPE     H7S      HDA2A    0.780000E-01   1.00800           0   0.00000       0.00000    
     13551 MEMB     75       POPE     C28      CD32A     2.07980       11.6110           0  -1.66000       1.30000    
     13552 MEMB     75       POPE     DC28     DRUD     -2.23580      0.400000           0   0.00000       0.00000    
     13553 MEMB     75       POPE     H8R      HDA2A    0.780000E-01   1.00800           0   0.00000       0.00000    
     13554 MEMB     75       POPE     H8S      HDA2A    0.780000E-01   1.00800           0   0.00000       0.00000    
     13555 MEMB     75       POPE     C29      CD2C1A    2.33700       11.6110           0  -1.99000      0.750000    
     13556 MEMB     75       POPE     DC29     DRUD     -2.44800      0.400000           0   0.00000       0.00000    
     13557 MEMB     75       POPE     H91      HD2C1A   0.111000       1.00800           0   0.00000       0.00000    
     13558 MEMB     75       POPE     C210     CD2C1A    2.33700       11.6110           0  -1.99000      0.750000    
     13559 MEMB     75       POPE     DC210    DRUD     -2.44800      0.400000           0   0.00000       0.00000    
     13560 MEMB     75       POPE     H101     HD2C1A   0.111000       1.00800           0   0.00000       0.00000    
     13561 MEMB     75       POPE     C211     CD32A     2.07980       11.6110           0  -1.66000       1.30000    
     13562 MEMB     75       POPE     DC211    DRUD     -2.23580      0.400000           0   0.00000       0.00000    
     13563 MEMB     75       POPE     H11R     HDA2A    0.780000E-01   1.00800           0   0.00000       0.00000    
     13564 MEMB     75       POPE     H11S     HDA2A    0.780000E-01   1.00800           0   0.00000       0.00000    
     13565 MEMB     75       POPE     C212     CD32A     2.07980       11.6110           0  -1.66000       1.30000    
     13566 MEMB     75       POPE     DC212    DRUD     -2.23580      0.400000           0   0.00000       0.00000    
     13567 MEMB     75       POPE     H12R     HDA2A    0.780000E-01   1.00800           0   0.00000       0.00000    
     13568 MEMB     75       POPE     H12S     HDA2A    0.780000E-01   1.00800           0   0.00000       0.00000    
     13569 MEMB     75       POPE     C213     CD32A     2.07980       11.6110           0  -1.66000       1.30000    
     13570 MEMB     75       POPE     DC213    DRUD     -2.23580      0.400000           0   0.00000       0.00000    
     13571 MEMB     75       POPE     H13R     HDA2A    0.780000E-01   1.00800           0   0.00000       0.00000    
     13572 MEMB     75       POPE     H13S     HDA2A    0.780000E-01   1.00800           0   0.00000       0.00000    
     13573 MEMB     75       POPE     C214     CD32A     2.07980       11.6110           0  -1.66000       1.30000    
     13574 MEMB     75       POPE     DC214    DRUD     -2.23580      0.400000           0   0.00000       0.00000    
     13575 MEMB     75       POPE     H14R     HDA2A    0.780000E-01   1.00800           0   0.00000       0.00000    
     13576 MEMB     75       POPE     H14S     HDA2A    0.780000E-01   1.00800           0   0.00000       0.00000    
     13577 MEMB     75       POPE     C215     CD32A     2.07980       11.6110           0  -1.66000       1.30000    
     13578 MEMB     75       POPE     DC215    DRUD     -2.23580      0.400000           0   0.00000       0.00000    
     13579 MEMB     75       POPE     H15R     HDA2A    0.780000E-01   1.00800           0   0.00000       0.00000    
     13580 MEMB     75       POPE     H15S     HDA2A    0.780000E-01   1.00800           0   0.00000       0.00000    
     13581 MEMB     75       POPE     C216     CD32A     2.07980       11.6110           0  -1.66000       1.30000    
     13582 MEMB     75       POPE     DC216    DRUD     -2.23580      0.400000           0   0.00000       0.00000    
     13583 MEMB     75       POPE     H16R     HDA2A    0.780000E-01   1.00800           0   0.00000       0.00000    
     13584 MEMB     75       POPE     H16S     HDA2A    0.780000E-01   1.00800           0   0.00000       0.00000    
     13585 MEMB     75       POPE     C217     CD32A     2.07980       11.6110           0  -1.66000       1.30000    
     13586 MEMB     75       POPE     DC217    DRUD     -2.23580      0.400000           0   0.00000       0.00000    
     13587 MEMB     75       POPE     H17R     HDA2A    0.780000E-01   1.00800           0   0.00000       0.00000    
     13588 MEMB     75       POPE     H17S     HDA2A    0.780000E-01   1.00800           0   0.00000       0.00000    
     13589 MEMB     75       POPE     C218     CD33A     2.30820       11.6110           0  -2.05100       1.30000    
     13590 MEMB     75       POPE     DC218    DRUD     -2.48520      0.400000           0   0.00000       0.00000    
     13591 MEMB     75       POPE     H18R     HDA3A    0.590000E-01   1.00800           0   0.00000       0.00000    
     13592 MEMB     75       POPE     H18S     HDA3A    0.590000E-01   1.00800           0   0.00000       0.00000    
     13593 MEMB     75       POPE     H18T     HDA3A    0.590000E-01   1.00800           0   0.00000       0.00000    
     13594 MEMB     75       POPE     C33      CD32A     2.07980       11.6110           0  -1.66000       1.30000    
     13595 MEMB     75       POPE     DC33     DRUD     -2.23580      0.400000           0   0.00000       0.00000    
     13596 MEMB     75       POPE     H3X      HDA2A    0.780000E-01   1.00800           0   0.00000       0.00000    
     13597 MEMB     75       POPE     H3Y      HDA2A    0.780000E-01   1.00800           0   0.00000       0.00000    
     13598 MEMB     75       POPE     C34      CD32A     2.07980       11.6110           0  -1.66000       1.30000    
     13599 MEMB     75       POPE     DC34     DRUD     -2.23580      0.400000           0   0.00000       0.00000    
     13600 MEMB     75       POPE     H4X      HDA2A    0.780000E-01   1.00800           0   0.00000       0.00000    
     13601 MEMB     75       POPE     H4Y      HDA2A    0.780000E-01   1.00800           0   0.00000       0.00000    
     13602 MEMB     75       POPE     C35      CD32A     2.07980       11.6110           0  -1.66000       1.30000    
     13603 MEMB     75       POPE     DC35     DRUD     -2.23580      0.400000           0   0.00000       0.00000    
     13604 MEMB     75       POPE     H5X      HDA2A    0.780000E-01   1.00800           0   0.00000       0.00000    
     13605 MEMB     75       POPE     H5Y      HDA2A    0.780000E-01   1.00800           0   0.00000       0.00000    
     13606 MEMB     75       POPE     C36      CD32A     2.07980       11.6110           0  -1.66000       1.30000    
     13607 MEMB     75       POPE     DC36     DRUD     -2.23580      0.400000           0   0.00000       0.00000    
     13608 MEMB     75       POPE     H6X      HDA2A    0.780000E-01   1.00800           0   0.00000       0.00000    
     13609 MEMB     75       POPE     H6Y      HDA2A    0.780000E-01   1.00800           0   0.00000       0.00000    
     13610 MEMB     75       POPE     C37      CD32A     2.07980       11.6110           0  -1.66000       1.30000    
     13611 MEMB     75       POPE     DC37     DRUD     -2.23580      0.400000           0   0.00000       0.00000    
     13612 MEMB     75       POPE     H7X      HDA2A    0.780000E-01   1.00800           0   0.00000       0.00000    
     13613 MEMB     75       POPE     H7Y      HDA2A    0.780000E-01   1.00800           0   0.00000       0.00000    
     13614 MEMB     75       POPE     C38      CD32A     2.07980       11.6110           0  -1.66000       1.30000    
     13615 MEMB     75       POPE     DC38     DRUD     -2.23580      0.400000           0   0.00000       0.00000    
     13616 MEMB     75       POPE     H8X      HDA2A    0.780000E-01   1.00800           0   0.00000       0.00000    
     13617 MEMB     75       POPE     H8Y      HDA2A    0.780000E-01   1.00800           0   0.00000       0.00000    
     13618 MEMB     75       POPE     C39      CD32A     2.07980       11.6110           0  -1.66000       1.30000    
     13619 MEMB     75       POPE     DC39     DRUD     -2.23580      0.400000           0   0.00000       0.00000    
     13620 MEMB     75       POPE     H9X      HDA2A    0.780000E-01   1.00800           0   0.00000       0.00000    
     13621 MEMB     75       POPE     H9Y      HDA2A    0.780000E-01   1.00800           0   0.00000       0.00000    
     13622 MEMB     75       POPE     C310     CD32A     2.07980       11.6110           0  -1.66000       1.30000    
     13623 MEMB     75       POPE     DC310    DRUD     -2.23580      0.400000           0   0.00000       0.00000    
     13624 MEMB     75       POPE     H10X     HDA2A    0.780000E-01   1.00800           0   0.00000       0.00000    
     13625 MEMB     75       POPE     H10Y     HDA2A    0.780000E-01   1.00800           0   0.00000       0.00000    
     13626 MEMB     75       POPE     C311     CD32A     2.07980       11.6110           0  -1.66000       1.30000    
     13627 MEMB     75       POPE     DC311    DRUD     -2.23580      0.400000           0   0.00000       0.00000    
     13628 MEMB     75       POPE     H11X     HDA2A    0.780000E-01   1.00800           0   0.00000       0.00000    
     13629 MEMB     75       POPE     H11Y     HDA2A    0.780000E-01   1.00800           0   0.00000       0.00000    
     13630 MEMB     75       POPE     C312     CD32A     2.07980       11.6110           0  -1.66000       1.30000    
     13631 MEMB     75       POPE     DC312    DRUD     -2.23580      0.400000           0   0.00000       0.00000    
     13632 MEMB     75       POPE     H12X     HDA2A    0.780000E-01   1.00800           0   0.00000       0.00000    
     13633 MEMB     75       POPE     H12Y     HDA2A    0.780000E-01   1.00800           0   0.00000       0.00000    
     13634 MEMB     75       POPE     C313     CD32A     2.07980       11.6110           0  -1.66000       1.30000    
     13635 MEMB     75       POPE     DC313    DRUD     -2.23580      0.400000           0   0.00000       0.00000    
     13636 MEMB     75       POPE     H13X     HDA2A    0.780000E-01   1.00800           0   0.00000       0.00000    
     13637 MEMB     75       POPE     H13Y     HDA2A    0.780000E-01   1.00800           0   0.00000       0.00000    
     13638 MEMB     75       POPE     C314     CD32A     2.07980       11.6110           0  -1.66000       1.30000    
     13639 MEMB     75       POPE     DC314    DRUD     -2.23580      0.400000           0   0.00000       0.00000    
     13640 MEMB     75       POPE     H14X     HDA2A    0.780000E-01   1.00800           0   0.00000       0.00000    
     13641 MEMB     75       POPE     H14Y     HDA2A    0.780000E-01   1.00800           0   0.00000       0.00000    
     13642 MEMB     75       POPE     C315     CD32A     2.07980       11.6110           0  -1.66000       1.30000    
     13643 MEMB     75       POPE     DC315    DRUD     -2.23580      0.400000           0   0.00000       0.00000    
     13644 MEMB     75       POPE     H15X     HDA2A    0.780000E-01   1.00800           0   0.00000       0.00000    
     13645 MEMB     75       POPE     H15Y     HDA2A    0.780000E-01   1.00800           0   0.00000       0.00000    
     13646 MEMB     75       POPE     C316     CD33A     2.30820       11.6110           0  -2.05100       1.30000    
     13647 MEMB     75       POPE     DC316    DRUD     -2.48520      0.400000           0   0.00000       0.00000    
     13648 MEMB     75       POPE     H16X     HDA3A    0.590000E-01   1.00800           0   0.00000       0.00000    
     13649 MEMB     75       POPE     H16Y     HDA3A    0.590000E-01   1.00800           0   0.00000       0.00000    
     13650 MEMB     75       POPE     H16Z     HDA3A    0.590000E-01   1.00800           0   0.00000       0.00000    
     13651 MEMB     76       POPE     N        ND3P3A    1.62810       13.6070           0  -1.29800      0.895000    
     13652 MEMB     76       POPE     DN       DRUD     -1.97710      0.400000           0   0.00000       0.00000    
     13653 MEMB     76       POPE     HN1      HDP1B    0.340000       1.00800           0   0.00000       0.00000    
     13654 MEMB     76       POPE     HN2      HDP1B    0.340000       1.00800           0   0.00000       0.00000    
     13655 MEMB     76       POPE     HN3      HDP1B    0.340000       1.00800           0   0.00000       0.00000    
     13656 MEMB     76       POPE     C12      CD32A     2.27610       11.6110           0  -1.65600      0.895000    
     13657 MEMB     76       POPE     DC12     DRUD     -2.23310      0.400000           0   0.00000       0.00000    
     13658 MEMB     76       POPE     H12A     HDA2A    0.143000       1.00800           0   0.00000       0.00000    
     13659 MEMB     76       POPE     H12B     HDA2A    0.143000       1.00800           0   0.00000       0.00000    
     13660 MEMB     76       POPE     C11      CD32A     2.42220       11.6110           0  -1.64200      0.862000    
     13661 MEMB     76       POPE     DC11     DRUD     -2.22370      0.400000           0   0.00000       0.00000    
     13662 MEMB     76       POPE     H11A     HDA2A    0.260000E-01   1.00800           0   0.00000       0.00000    
     13663 MEMB     76       POPE     H11B     HDA2A    0.260000E-01   1.00800           0   0.00000       0.00000    
     13664 MEMB     76       POPE     P        PD1A      2.90360       30.5740           0 -0.974000       2.09800    
     13665 MEMB     76       POPE     DP       DRUD     -1.71260      0.400000           0   0.00000       0.00000    
     13666 MEMB     76       POPE     O13      OD2C2B   0.798400       15.5994           0 -0.931000       1.08300    
     13667 MEMB     76       POPE     DO13     DRUD     -1.67440      0.400000           0   0.00000       0.00000    
     13668 MEMB     76       POPE     O14      OD2C2B   0.798400       15.5994           0 -0.931000       1.08300    
     13669 MEMB     76       POPE     DO14     DRUD     -1.67440      0.400000           0   0.00000       0.00000    
     13670 MEMB     76       POPE     O11      OD30B     1.17720       15.5994           0 -0.901000      0.181000    
     13671 MEMB     76       POPE     DO11     DRUD     -1.64720      0.400000           0   0.00000       0.00000    
     13672 MEMB     76       POPE     O12      OD30B     1.17720       15.5994           0 -0.901000      0.181000    
     13673 MEMB     76       POPE     DO12     DRUD     -1.64720      0.400000           0   0.00000       0.00000    
     13674 MEMB     76       POPE     C1       CD32A     2.42220       11.6110           0  -1.64200      0.862000    
     13675 MEMB     76       POPE     DC1      DRUD     -2.22370      0.400000           0   0.00000       0.00000    
     13676 MEMB     76       POPE     HA       HDA2A    0.260000E-01   1.00800           0   0.00000       0.00000    
     13677 MEMB     76       POPE     HB       HDA2A    0.260000E-01   1.00800           0   0.00000       0.00000    
     13678 MEMB     76       POPE     C2       CD31C     2.52830       11.6110           0  -1.79700      0.410000    
     13679 MEMB     76       POPE     DC2      DRUD     -2.32630      0.400000           0   0.00000       0.00000    
     13680 MEMB     76       POPE     HS       HDA1A    0.116000       1.00800           0   0.00000       0.00000    
     13681 MEMB     76       POPE     O21      OD30CL    1.48470       15.5994           0 -0.732000      0.601000    
     13682 MEMB     76       POPE     DO21     DRUD     -1.48470      0.400000           0   0.00000       0.00000    
     13683 MEMB     76       POPE     C21      CD2O3B    2.72820       11.6110           0  -1.37000       1.74700    
     13684 MEMB     76       POPE     DC21     DRUD     -2.03120      0.400000           0   0.00000       0.00000    
     13685 MEMB     76       POPE     O22      OD2C3B    1.64990       15.5994           0 -0.904000      0.565000    
     13686 MEMB     76       POPE     DO22     DRUD     -1.64990      0.400000           0   0.00000       0.00000    
     13687 MEMB     76       POPE     C22      CD32C     2.24380       11.6110           0  -1.99300      0.410000    
     13688 MEMB     76       POPE     DC22     DRUD     -2.44980      0.400000           0   0.00000       0.00000    
     13689 MEMB     76       POPE     H2R      HDA2A    0.690000E-01   1.00800           0   0.00000       0.00000    
     13690 MEMB     76       POPE     H2S      HDA2A    0.690000E-01   1.00800           0   0.00000       0.00000    
     13691 MEMB     76       POPE     LP1A     LPD     -0.349000       0.00000          -1   0.00000       0.00000    
     13692 MEMB     76       POPE     LP1B     LPD     -0.258000       0.00000          -1   0.00000       0.00000    
     13693 MEMB     76       POPE     LPMA     LPD     -0.170000       0.00000          -1   0.00000       0.00000    
     13694 MEMB     76       POPE     LPMB     LPD     -0.170000       0.00000          -1   0.00000       0.00000    
     13695 MEMB     76       POPE     C3       CD32C     2.41230       11.6110           0  -1.79700      0.410000    
     13696 MEMB     76       POPE     DC3      DRUD     -2.32630      0.400000           0   0.00000       0.00000    
     13697 MEMB     76       POPE     HX       HDA2A    0.116000       1.00800           0   0.00000       0.00000    
     13698 MEMB     76       POPE     HY       HDA2A    0.116000       1.00800           0   0.00000       0.00000    
     13699 MEMB     76       POPE     O31      OD30CL    1.48470       15.5994           0 -0.732000      0.601000    
     13700 MEMB     76       POPE     DO31     DRUD     -1.48470      0.400000           0   0.00000       0.00000    
     13701 MEMB     76       POPE     C31      CD2O3B    2.72820       11.6110           0  -1.37000       1.74700    
     13702 MEMB     76       POPE     DC31     DRUD     -2.03120      0.400000           0   0.00000       0.00000    
     13703 MEMB     76       POPE     O32      OD2C3B    1.64990       15.5994           0 -0.904000      0.565000    
     13704 MEMB     76       POPE     DO32     DRUD     -1.64990      0.400000           0   0.00000       0.00000    
     13705 MEMB     76       POPE     C32      CD32C     2.24380       11.6110           0  -1.99300      0.410000    
     13706 MEMB     76       POPE     DC32     DRUD     -2.44980      0.400000           0   0.00000       0.00000    
     13707 MEMB     76       POPE     H2X      HDA2A    0.690000E-01   1.00800           0   0.00000       0.00000    
     13708 MEMB     76       POPE     H2Y      HDA2A    0.690000E-01   1.00800           0   0.00000       0.00000    
     13709 MEMB     76       POPE     LP1C     LPD     -0.349000       0.00000          -1   0.00000       0.00000    
     13710 MEMB     76       POPE     LP1D     LPD     -0.258000       0.00000          -1   0.00000       0.00000    
     13711 MEMB     76       POPE     LPMC     LPD     -0.170000       0.00000          -1   0.00000       0.00000    
     13712 MEMB     76       POPE     LPMD     LPD     -0.170000       0.00000          -1   0.00000       0.00000    
     13713 MEMB     76       POPE     C23      CD32A     2.07980       11.6110           0  -1.66000       1.30000    
     13714 MEMB     76       POPE     DC23     DRUD     -2.23580      0.400000           0   0.00000       0.00000    
     13715 MEMB     76       POPE     H3R      HDA2A    0.780000E-01   1.00800           0   0.00000       0.00000    
     13716 MEMB     76       POPE     H3S      HDA2A    0.780000E-01   1.00800           0   0.00000       0.00000    
     13717 MEMB     76       POPE     C24      CD32A     2.07980       11.6110           0  -1.66000       1.30000    
     13718 MEMB     76       POPE     DC24     DRUD     -2.23580      0.400000           0   0.00000       0.00000    
     13719 MEMB     76       POPE     H4R      HDA2A    0.780000E-01   1.00800           0   0.00000       0.00000    
     13720 MEMB     76       POPE     H4S      HDA2A    0.780000E-01   1.00800           0   0.00000       0.00000    
     13721 MEMB     76       POPE     C25      CD32A     2.07980       11.6110           0  -1.66000       1.30000    
     13722 MEMB     76       POPE     DC25     DRUD     -2.23580      0.400000           0   0.00000       0.00000    
     13723 MEMB     76       POPE     H5R      HDA2A    0.780000E-01   1.00800           0   0.00000       0.00000    
     13724 MEMB     76       POPE     H5S      HDA2A    0.780000E-01   1.00800           0   0.00000       0.00000    
     13725 MEMB     76       POPE     C26      CD32A     2.07980       11.6110           0  -1.66000       1.30000    
     13726 MEMB     76       POPE     DC26     DRUD     -2.23580      0.400000           0   0.00000       0.00000    
     13727 MEMB     76       POPE     H6R      HDA2A    0.780000E-01   1.00800           0   0.00000       0.00000    
     13728 MEMB     76       POPE     H6S      HDA2A    0.780000E-01   1.00800           0   0.00000       0.00000    
     13729 MEMB     76       POPE     C27      CD32A     2.07980       11.6110           0  -1.66000       1.30000    
     13730 MEMB     76       POPE     DC27     DRUD     -2.23580      0.400000           0   0.00000       0.00000    
     13731 MEMB     76       POPE     H7R      HDA2A    0.780000E-01   1.00800           0   0.00000       0.00000    
     13732 MEMB     76       POPE     H7S      HDA2A    0.780000E-01   1.00800           0   0.00000       0.00000    
     13733 MEMB     76       POPE     C28      CD32A     2.07980       11.6110           0  -1.66000       1.30000    
     13734 MEMB     76       POPE     DC28     DRUD     -2.23580      0.400000           0   0.00000       0.00000    
     13735 MEMB     76       POPE     H8R      HDA2A    0.780000E-01   1.00800           0   0.00000       0.00000    
     13736 MEMB     76       POPE     H8S      HDA2A    0.780000E-01   1.00800           0   0.00000       0.00000    
     13737 MEMB     76       POPE     C29      CD2C1A    2.33700       11.6110           0  -1.99000      0.750000    
     13738 MEMB     76       POPE     DC29     DRUD     -2.44800      0.400000           0   0.00000       0.00000    
     13739 MEMB     76       POPE     H91      HD2C1A   0.111000       1.00800           0   0.00000       0.00000    
     13740 MEMB     76       POPE     C210     CD2C1A    2.33700       11.6110           0  -1.99000      0.750000    
     13741 MEMB     76       POPE     DC210    DRUD     -2.44800      0.400000           0   0.00000       0.00000    
     13742 MEMB     76       POPE     H101     HD2C1A   0.111000       1.00800           0   0.00000       0.00000    
     13743 MEMB     76       POPE     C211     CD32A     2.07980       11.6110           0  -1.66000       1.30000    
     13744 MEMB     76       POPE     DC211    DRUD     -2.23580      0.400000           0   0.00000       0.00000    
     13745 MEMB     76       POPE     H11R     HDA2A    0.780000E-01   1.00800           0   0.00000       0.00000    
     13746 MEMB     76       POPE     H11S     HDA2A    0.780000E-01   1.00800           0   0.00000       0.00000    
     13747 MEMB     76       POPE     C212     CD32A     2.07980       11.6110           0  -1.66000       1.30000    
     13748 MEMB     76       POPE     DC212    DRUD     -2.23580      0.400000           0   0.00000       0.00000    
     13749 MEMB     76       POPE     H12R     HDA2A    0.780000E-01   1.00800           0   0.00000       0.00000    
     13750 MEMB     76       POPE     H12S     HDA2A    0.780000E-01   1.00800           0   0.00000       0.00000    
     13751 MEMB     76       POPE     C213     CD32A     2.07980       11.6110           0  -1.66000       1.30000    
     13752 MEMB     76       POPE     DC213    DRUD     -2.23580      0.400000           0   0.00000       0.00000    
     13753 MEMB     76       POPE     H13R     HDA2A    0.780000E-01   1.00800           0   0.00000       0.00000    
     13754 MEMB     76       POPE     H13S     HDA2A    0.780000E-01   1.00800           0   0.00000       0.00000    
     13755 MEMB     76       POPE     C214     CD32A     2.07980       11.6110           0  -1.66000       1.30000    
     13756 MEMB     76       POPE     DC214    DRUD     -2.23580      0.400000           0   0.00000       0.00000    
     13757 MEMB     76       POPE     H14R     HDA2A    0.780000E-01   1.00800           0   0.00000       0.00000    
     13758 MEMB     76       POPE     H14S     HDA2A    0.780000E-01   1.00800           0   0.00000       0.00000    
     13759 MEMB     76       POPE     C215     CD32A     2.07980       11.6110           0  -1.66000       1.30000    
     13760 MEMB     76       POPE     DC215    DRUD     -2.23580      0.400000           0   0.00000       0.00000    
     13761 MEMB     76       POPE     H15R     HDA2A    0.780000E-01   1.00800           0   0.00000       0.00000    
     13762 MEMB     76       POPE     H15S     HDA2A    0.780000E-01   1.00800           0   0.00000       0.00000    
     13763 MEMB     76       POPE     C216     CD32A     2.07980       11.6110           0  -1.66000       1.30000    
     13764 MEMB     76       POPE     DC216    DRUD     -2.23580      0.400000           0   0.00000       0.00000    
     13765 MEMB     76       POPE     H16R     HDA2A    0.780000E-01   1.00800           0   0.00000       0.00000    
     13766 MEMB     76       POPE     H16S     HDA2A    0.780000E-01   1.00800           0   0.00000       0.00000    
     13767 MEMB     76       POPE     C217     CD32A     2.07980       11.6110           0  -1.66000       1.30000    
     13768 MEMB     76       POPE     DC217    DRUD     -2.23580      0.400000           0   0.00000       0.00000    
     13769 MEMB     76       POPE     H17R     HDA2A    0.780000E-01   1.00800           0   0.00000       0.00000    
     13770 MEMB     76       POPE     H17S     HDA2A    0.780000E-01   1.00800           0   0.00000       0.00000    
     13771 MEMB     76       POPE     C218     CD33A     2.30820       11.6110           0  -2.05100       1.30000    
     13772 MEMB     76       POPE     DC218    DRUD     -2.48520      0.400000           0   0.00000       0.00000    
     13773 MEMB     76       POPE     H18R     HDA3A    0.590000E-01   1.00800           0   0.00000       0.00000    
     13774 MEMB     76       POPE     H18S     HDA3A    0.590000E-01   1.00800           0   0.00000       0.00000    
     13775 MEMB     76       POPE     H18T     HDA3A    0.590000E-01   1.00800           0   0.00000       0.00000    
     13776 MEMB     76       POPE     C33      CD32A     2.07980       11.6110           0  -1.66000       1.30000    
     13777 MEMB     76       POPE     DC33     DRUD     -2.23580      0.400000           0   0.00000       0.00000    
     13778 MEMB     76       POPE     H3X      HDA2A    0.780000E-01   1.00800           0   0.00000       0.00000    
     13779 MEMB     76       POPE     H3Y      HDA2A    0.780000E-01   1.00800           0   0.00000       0.00000    
     13780 MEMB     76       POPE     C34      CD32A     2.07980       11.6110           0  -1.66000       1.30000    
     13781 MEMB     76       POPE     DC34     DRUD     -2.23580      0.400000           0   0.00000       0.00000    
     13782 MEMB     76       POPE     H4X      HDA2A    0.780000E-01   1.00800           0   0.00000       0.00000    
     13783 MEMB     76       POPE     H4Y      HDA2A    0.780000E-01   1.00800           0   0.00000       0.00000    
     13784 MEMB     76       POPE     C35      CD32A     2.07980       11.6110           0  -1.66000       1.30000    
     13785 MEMB     76       POPE     DC35     DRUD     -2.23580      0.400000           0   0.00000       0.00000    
     13786 MEMB     76       POPE     H5X      HDA2A    0.780000E-01   1.00800           0   0.00000       0.00000    
     13787 MEMB     76       POPE     H5Y      HDA2A    0.780000E-01   1.00800           0   0.00000       0.00000    
     13788 MEMB     76       POPE     C36      CD32A     2.07980       11.6110           0  -1.66000       1.30000    
     13789 MEMB     76       POPE     DC36     DRUD     -2.23580      0.400000           0   0.00000       0.00000    
     13790 MEMB     76       POPE     H6X      HDA2A    0.780000E-01   1.00800           0   0.00000       0.00000    
     13791 MEMB     76       POPE     H6Y      HDA2A    0.780000E-01   1.00800           0   0.00000       0.00000    
     13792 MEMB     76       POPE     C37      CD32A     2.07980       11.6110           0  -1.66000       1.30000    
     13793 MEMB     76       POPE     DC37     DRUD     -2.23580      0.400000           0   0.00000       0.00000    
     13794 MEMB     76       POPE     H7X      HDA2A    0.780000E-01   1.00800           0   0.00000       0.00000    
     13795 MEMB     76       POPE     H7Y      HDA2A    0.780000E-01   1.00800           0   0.00000       0.00000    
     13796 MEMB     76       POPE     C38      CD32A     2.07980       11.6110           0  -1.66000       1.30000    
     13797 MEMB     76       POPE     DC38     DRUD     -2.23580      0.400000           0   0.00000       0.00000    
     13798 MEMB     76       POPE     H8X      HDA2A    0.780000E-01   1.00800           0   0.00000       0.00000    
     13799 MEMB     76       POPE     H8Y      HDA2A    0.780000E-01   1.00800           0   0.00000       0.00000    
     13800 MEMB     76       POPE     C39      CD32A     2.07980       11.6110           0  -1.66000       1.30000    
     13801 MEMB     76       POPE     DC39     DRUD     -2.23580      0.400000           0   0.00000       0.00000    
     13802 MEMB     76       POPE     H9X      HDA2A    0.780000E-01   1.00800           0   0.00000       0.00000    
     13803 MEMB     76       POPE     H9Y      HDA2A    0.780000E-01   1.00800           0   0.00000       0.00000    
     13804 MEMB     76       POPE     C310     CD32A     2.07980       11.6110           0  -1.66000       1.30000    
     13805 MEMB     76       POPE     DC310    DRUD     -2.23580      0.400000           0   0.00000       0.00000    
     13806 MEMB     76       POPE     H10X     HDA2A    0.780000E-01   1.00800           0   0.00000       0.00000    
     13807 MEMB     76       POPE     H10Y     HDA2A    0.780000E-01   1.00800           0   0.00000       0.00000    
     13808 MEMB     76       POPE     C311     CD32A     2.07980       11.6110           0  -1.66000       1.30000    
     13809 MEMB     76       POPE     DC311    DRUD     -2.23580      0.400000           0   0.00000       0.00000    
     13810 MEMB     76       POPE     H11X     HDA2A    0.780000E-01   1.00800           0   0.00000       0.00000    
     13811 MEMB     76       POPE     H11Y     HDA2A    0.780000E-01   1.00800           0   0.00000       0.00000    
     13812 MEMB     76       POPE     C312     CD32A     2.07980       11.6110           0  -1.66000       1.30000    
     13813 MEMB     76       POPE     DC312    DRUD     -2.23580      0.400000           0   0.00000       0.00000    
     13814 MEMB     76       POPE     H12X     HDA2A    0.780000E-01   1.00800           0   0.00000       0.00000    
     13815 MEMB     76       POPE     H12Y     HDA2A    0.780000E-01   1.00800           0   0.00000       0.00000    
     13816 MEMB     76       POPE     C313     CD32A     2.07980       11.6110           0  -1.66000       1.30000    
     13817 MEMB     76       POPE     DC313    DRUD     -2.23580      0.400000           0   0.00000       0.00000    
     13818 MEMB     76       POPE     H13X     HDA2A    0.780000E-01   1.00800           0   0.00000       0.00000    
     13819 MEMB     76       POPE     H13Y     HDA2A    0.780000E-01   1.00800           0   0.00000       0.00000    
     13820 MEMB     76       POPE     C314     CD32A     2.07980       11.6110           0  -1.66000       1.30000    
     13821 MEMB     76       POPE     DC314    DRUD     -2.23580      0.400000           0   0.00000       0.00000    
     13822 MEMB     76       POPE     H14X     HDA2A    0.780000E-01   1.00800           0   0.00000       0.00000    
     13823 MEMB     76       POPE     H14Y     HDA2A    0.780000E-01   1.00800           0   0.00000       0.00000    
     13824 MEMB     76       POPE     C315     CD32A     2.07980       11.6110           0  -1.66000       1.30000    
     13825 MEMB     76       POPE     DC315    DRUD     -2.23580      0.400000           0   0.00000       0.00000    
     13826 MEMB     76       POPE     H15X     HDA2A    0.780000E-01   1.00800           0   0.00000       0.00000    
     13827 MEMB     76       POPE     H15Y     HDA2A    0.780000E-01   1.00800           0   0.00000       0.00000    
     13828 MEMB     76       POPE     C316     CD33A     2.30820       11.6110           0  -2.05100       1.30000    
     13829 MEMB     76       POPE     DC316    DRUD     -2.48520      0.400000           0   0.00000       0.00000    
     13830 MEMB     76       POPE     H16X     HDA3A    0.590000E-01   1.00800           0   0.00000       0.00000    
     13831 MEMB     76       POPE     H16Y     HDA3A    0.590000E-01   1.00800           0   0.00000       0.00000    
     13832 MEMB     76       POPE     H16Z     HDA3A    0.590000E-01   1.00800           0   0.00000       0.00000    
     13833 MEMB     77       POPE     N        ND3P3A    1.62810       13.6070           0  -1.29800      0.895000    
     13834 MEMB     77       POPE     DN       DRUD     -1.97710      0.400000           0   0.00000       0.00000    
     13835 MEMB     77       POPE     HN1      HDP1B    0.340000       1.00800           0   0.00000       0.00000    
     13836 MEMB     77       POPE     HN2      HDP1B    0.340000       1.00800           0   0.00000       0.00000    
     13837 MEMB     77       POPE     HN3      HDP1B    0.340000       1.00800           0   0.00000       0.00000    
     13838 MEMB     77       POPE     C12      CD32A     2.27610       11.6110           0  -1.65600      0.895000    
     13839 MEMB     77       POPE     DC12     DRUD     -2.23310      0.400000           0   0.00000       0.00000    
     13840 MEMB     77       POPE     H12A     HDA2A    0.143000       1.00800           0   0.00000       0.00000    
     13841 MEMB     77       POPE     H12B     HDA2A    0.143000       1.00800           0   0.00000       0.00000    
     13842 MEMB     77       POPE     C11      CD32A     2.42220       11.6110           0  -1.64200      0.862000    
     13843 MEMB     77       POPE     DC11     DRUD     -2.22370      0.400000           0   0.00000       0.00000    
     13844 MEMB     77       POPE     H11A     HDA2A    0.260000E-01   1.00800           0   0.00000       0.00000    
     13845 MEMB     77       POPE     H11B     HDA2A    0.260000E-01   1.00800           0   0.00000       0.00000    
     13846 MEMB     77       POPE     P        PD1A      2.90360       30.5740           0 -0.974000       2.09800    
     13847 MEMB     77       POPE     DP       DRUD     -1.71260      0.400000           0   0.00000       0.00000    
     13848 MEMB     77       POPE     O13      OD2C2B   0.798400       15.5994           0 -0.931000       1.08300    
     13849 MEMB     77       POPE     DO13     DRUD     -1.67440      0.400000           0   0.00000       0.00000    
     13850 MEMB     77       POPE     O14      OD2C2B   0.798400       15.5994           0 -0.931000       1.08300    
     13851 MEMB     77       POPE     DO14     DRUD     -1.67440      0.400000           0   0.00000       0.00000    
     13852 MEMB     77       POPE     O11      OD30B     1.17720       15.5994           0 -0.901000      0.181000    
     13853 MEMB     77       POPE     DO11     DRUD     -1.64720      0.400000           0   0.00000       0.00000    
     13854 MEMB     77       POPE     O12      OD30B     1.17720       15.5994           0 -0.901000      0.181000    
     13855 MEMB     77       POPE     DO12     DRUD     -1.64720      0.400000           0   0.00000       0.00000    
     13856 MEMB     77       POPE     C1       CD32A     2.42220       11.6110           0  -1.64200      0.862000    
     13857 MEMB     77       POPE     DC1      DRUD     -2.22370      0.400000           0   0.00000       0.00000    
     13858 MEMB     77       POPE     HA       HDA2A    0.260000E-01   1.00800           0   0.00000       0.00000    
     13859 MEMB     77       POPE     HB       HDA2A    0.260000E-01   1.00800           0   0.00000       0.00000    
     13860 MEMB     77       POPE     C2       CD31C     2.52830       11.6110           0  -1.79700      0.410000    
     13861 MEMB     77       POPE     DC2      DRUD     -2.32630      0.400000           0   0.00000       0.00000    
     13862 MEMB     77       POPE     HS       HDA1A    0.116000       1.00800           0   0.00000       0.00000    
     13863 MEMB     77       POPE     O21      OD30CL    1.48470       15.5994           0 -0.732000      0.601000    
     13864 MEMB     77       POPE     DO21     DRUD     -1.48470      0.400000           0   0.00000       0.00000    
     13865 MEMB     77       POPE     C21      CD2O3B    2.72820       11.6110           0  -1.37000       1.74700    
     13866 MEMB     77       POPE     DC21     DRUD     -2.03120      0.400000           0   0.00000       0.00000    
     13867 MEMB     77       POPE     O22      OD2C3B    1.64990       15.5994           0 -0.904000      0.565000    
     13868 MEMB     77       POPE     DO22     DRUD     -1.64990      0.400000           0   0.00000       0.00000    
     13869 MEMB     77       POPE     C22      CD32C     2.24380       11.6110           0  -1.99300      0.410000    
     13870 MEMB     77       POPE     DC22     DRUD     -2.44980      0.400000           0   0.00000       0.00000    
     13871 MEMB     77       POPE     H2R      HDA2A    0.690000E-01   1.00800           0   0.00000       0.00000    
     13872 MEMB     77       POPE     H2S      HDA2A    0.690000E-01   1.00800           0   0.00000       0.00000    
     13873 MEMB     77       POPE     LP1A     LPD     -0.349000       0.00000          -1   0.00000       0.00000    
     13874 MEMB     77       POPE     LP1B     LPD     -0.258000       0.00000          -1   0.00000       0.00000    
     13875 MEMB     77       POPE     LPMA     LPD     -0.170000       0.00000          -1   0.00000       0.00000    
     13876 MEMB     77       POPE     LPMB     LPD     -0.170000       0.00000          -1   0.00000       0.00000    
     13877 MEMB     77       POPE     C3       CD32C     2.41230       11.6110           0  -1.79700      0.410000    
     13878 MEMB     77       POPE     DC3      DRUD     -2.32630      0.400000           0   0.00000       0.00000    
     13879 MEMB     77       POPE     HX       HDA2A    0.116000       1.00800           0   0.00000       0.00000    
     13880 MEMB     77       POPE     HY       HDA2A    0.116000       1.00800           0   0.00000       0.00000    
     13881 MEMB     77       POPE     O31      OD30CL    1.48470       15.5994           0 -0.732000      0.601000    
     13882 MEMB     77       POPE     DO31     DRUD     -1.48470      0.400000           0   0.00000       0.00000    
     13883 MEMB     77       POPE     C31      CD2O3B    2.72820       11.6110           0  -1.37000       1.74700    
     13884 MEMB     77       POPE     DC31     DRUD     -2.03120      0.400000           0   0.00000       0.00000    
     13885 MEMB     77       POPE     O32      OD2C3B    1.64990       15.5994           0 -0.904000      0.565000    
     13886 MEMB     77       POPE     DO32     DRUD     -1.64990      0.400000           0   0.00000       0.00000    
     13887 MEMB     77       POPE     C32      CD32C     2.24380       11.6110           0  -1.99300      0.410000    
     13888 MEMB     77       POPE     DC32     DRUD     -2.44980      0.400000           0   0.00000       0.00000    
     13889 MEMB     77       POPE     H2X      HDA2A    0.690000E-01   1.00800           0   0.00000       0.00000    
     13890 MEMB     77       POPE     H2Y      HDA2A    0.690000E-01   1.00800           0   0.00000       0.00000    
     13891 MEMB     77       POPE     LP1C     LPD     -0.349000       0.00000          -1   0.00000       0.00000    
     13892 MEMB     77       POPE     LP1D     LPD     -0.258000       0.00000          -1   0.00000       0.00000    
     13893 MEMB     77       POPE     LPMC     LPD     -0.170000       0.00000          -1   0.00000       0.00000    
     13894 MEMB     77       POPE     LPMD     LPD     -0.170000       0.00000          -1   0.00000       0.00000    
     13895 MEMB     77       POPE     C23      CD32A     2.07980       11.6110           0  -1.66000       1.30000    
     13896 MEMB     77       POPE     DC23     DRUD     -2.23580      0.400000           0   0.00000       0.00000    
     13897 MEMB     77       POPE     H3R      HDA2A    0.780000E-01   1.00800           0   0.00000       0.00000    
     13898 MEMB     77       POPE     H3S      HDA2A    0.780000E-01   1.00800           0   0.00000       0.00000    
     13899 MEMB     77       POPE     C24      CD32A     2.07980       11.6110           0  -1.66000       1.30000    
     13900 MEMB     77       POPE     DC24     DRUD     -2.23580      0.400000           0   0.00000       0.00000    
     13901 MEMB     77       POPE     H4R      HDA2A    0.780000E-01   1.00800           0   0.00000       0.00000    
     13902 MEMB     77       POPE     H4S      HDA2A    0.780000E-01   1.00800           0   0.00000       0.00000    
     13903 MEMB     77       POPE     C25      CD32A     2.07980       11.6110           0  -1.66000       1.30000    
     13904 MEMB     77       POPE     DC25     DRUD     -2.23580      0.400000           0   0.00000       0.00000    
     13905 MEMB     77       POPE     H5R      HDA2A    0.780000E-01   1.00800           0   0.00000       0.00000    
     13906 MEMB     77       POPE     H5S      HDA2A    0.780000E-01   1.00800           0   0.00000       0.00000    
     13907 MEMB     77       POPE     C26      CD32A     2.07980       11.6110           0  -1.66000       1.30000    
     13908 MEMB     77       POPE     DC26     DRUD     -2.23580      0.400000           0   0.00000       0.00000    
     13909 MEMB     77       POPE     H6R      HDA2A    0.780000E-01   1.00800           0   0.00000       0.00000    
     13910 MEMB     77       POPE     H6S      HDA2A    0.780000E-01   1.00800           0   0.00000       0.00000    
     13911 MEMB     77       POPE     C27      CD32A     2.07980       11.6110           0  -1.66000       1.30000    
     13912 MEMB     77       POPE     DC27     DRUD     -2.23580      0.400000           0   0.00000       0.00000    
     13913 MEMB     77       POPE     H7R      HDA2A    0.780000E-01   1.00800           0   0.00000       0.00000    
     13914 MEMB     77       POPE     H7S      HDA2A    0.780000E-01   1.00800           0   0.00000       0.00000    
     13915 MEMB     77       POPE     C28      CD32A     2.07980       11.6110           0  -1.66000       1.30000    
     13916 MEMB     77       POPE     DC28     DRUD     -2.23580      0.400000           0   0.00000       0.00000    
     13917 MEMB     77       POPE     H8R      HDA2A    0.780000E-01   1.00800           0   0.00000       0.00000    
     13918 MEMB     77       POPE     H8S      HDA2A    0.780000E-01   1.00800           0   0.00000       0.00000    
     13919 MEMB     77       POPE     C29      CD2C1A    2.33700       11.6110           0  -1.99000      0.750000    
     13920 MEMB     77       POPE     DC29     DRUD     -2.44800      0.400000           0   0.00000       0.00000    
     13921 MEMB     77       POPE     H91      HD2C1A   0.111000       1.00800           0   0.00000       0.00000    
     13922 MEMB     77       POPE     C210     CD2C1A    2.33700       11.6110           0  -1.99000      0.750000    
     13923 MEMB     77       POPE     DC210    DRUD     -2.44800      0.400000           0   0.00000       0.00000    
     13924 MEMB     77       POPE     H101     HD2C1A   0.111000       1.00800           0   0.00000       0.00000    
     13925 MEMB     77       POPE     C211     CD32A     2.07980       11.6110           0  -1.66000       1.30000    
     13926 MEMB     77       POPE     DC211    DRUD     -2.23580      0.400000           0   0.00000       0.00000    
     13927 MEMB     77       POPE     H11R     HDA2A    0.780000E-01   1.00800           0   0.00000       0.00000    
     13928 MEMB     77       POPE     H11S     HDA2A    0.780000E-01   1.00800           0   0.00000       0.00000    
     13929 MEMB     77       POPE     C212     CD32A     2.07980       11.6110           0  -1.66000       1.30000    
     13930 MEMB     77       POPE     DC212    DRUD     -2.23580      0.400000           0   0.00000       0.00000    
     13931 MEMB     77       POPE     H12R     HDA2A    0.780000E-01   1.00800           0   0.00000       0.00000    
     13932 MEMB     77       POPE     H12S     HDA2A    0.780000E-01   1.00800           0   0.00000       0.00000    
     13933 MEMB     77       POPE     C213     CD32A     2.07980       11.6110           0  -1.66000       1.30000    
     13934 MEMB     77       POPE     DC213    DRUD     -2.23580      0.400000           0   0.00000       0.00000    
     13935 MEMB     77       POPE     H13R     HDA2A    0.780000E-01   1.00800           0   0.00000       0.00000    
     13936 MEMB     77       POPE     H13S     HDA2A    0.780000E-01   1.00800           0   0.00000       0.00000    
     13937 MEMB     77       POPE     C214     CD32A     2.07980       11.6110           0  -1.66000       1.30000    
     13938 MEMB     77       POPE     DC214    DRUD     -2.23580      0.400000           0   0.00000       0.00000    
     13939 MEMB     77       POPE     H14R     HDA2A    0.780000E-01   1.00800           0   0.00000       0.00000    
     13940 MEMB     77       POPE     H14S     HDA2A    0.780000E-01   1.00800           0   0.00000       0.00000    
     13941 MEMB     77       POPE     C215     CD32A     2.07980       11.6110           0  -1.66000       1.30000    
     13942 MEMB     77       POPE     DC215    DRUD     -2.23580      0.400000           0   0.00000       0.00000    
     13943 MEMB     77       POPE     H15R     HDA2A    0.780000E-01   1.00800           0   0.00000       0.00000    
     13944 MEMB     77       POPE     H15S     HDA2A    0.780000E-01   1.00800           0   0.00000       0.00000    
     13945 MEMB     77       POPE     C216     CD32A     2.07980       11.6110           0  -1.66000       1.30000    
     13946 MEMB     77       POPE     DC216    DRUD     -2.23580      0.400000           0   0.00000       0.00000    
     13947 MEMB     77       POPE     H16R     HDA2A    0.780000E-01   1.00800           0   0.00000       0.00000    
     13948 MEMB     77       POPE     H16S     HDA2A    0.780000E-01   1.00800           0   0.00000       0.00000    
     13949 MEMB     77       POPE     C217     CD32A     2.07980       11.6110           0  -1.66000       1.30000    
     13950 MEMB     77       POPE     DC217    DRUD     -2.23580      0.400000           0   0.00000       0.00000    
     13951 MEMB     77       POPE     H17R     HDA2A    0.780000E-01   1.00800           0   0.00000       0.00000    
     13952 MEMB     77       POPE     H17S     HDA2A    0.780000E-01   1.00800           0   0.00000       0.00000    
     13953 MEMB     77       POPE     C218     CD33A     2.30820       11.6110           0  -2.05100       1.30000    
     13954 MEMB     77       POPE     DC218    DRUD     -2.48520      0.400000           0   0.00000       0.00000    
     13955 MEMB     77       POPE     H18R     HDA3A    0.590000E-01   1.00800           0   0.00000       0.00000    
     13956 MEMB     77       POPE     H18S     HDA3A    0.590000E-01   1.00800           0   0.00000       0.00000    
     13957 MEMB     77       POPE     H18T     HDA3A    0.590000E-01   1.00800           0   0.00000       0.00000    
     13958 MEMB     77       POPE     C33      CD32A     2.07980       11.6110           0  -1.66000       1.30000    
     13959 MEMB     77       POPE     DC33     DRUD     -2.23580      0.400000           0   0.00000       0.00000    
     13960 MEMB     77       POPE     H3X      HDA2A    0.780000E-01   1.00800           0   0.00000       0.00000    
     13961 MEMB     77       POPE     H3Y      HDA2A    0.780000E-01   1.00800           0   0.00000       0.00000    
     13962 MEMB     77       POPE     C34      CD32A     2.07980       11.6110           0  -1.66000       1.30000    
     13963 MEMB     77       POPE     DC34     DRUD     -2.23580      0.400000           0   0.00000       0.00000    
     13964 MEMB     77       POPE     H4X      HDA2A    0.780000E-01   1.00800           0   0.00000       0.00000    
     13965 MEMB     77       POPE     H4Y      HDA2A    0.780000E-01   1.00800           0   0.00000       0.00000    
     13966 MEMB     77       POPE     C35      CD32A     2.07980       11.6110           0  -1.66000       1.30000    
     13967 MEMB     77       POPE     DC35     DRUD     -2.23580      0.400000           0   0.00000       0.00000    
     13968 MEMB     77       POPE     H5X      HDA2A    0.780000E-01   1.00800           0   0.00000       0.00000    
     13969 MEMB     77       POPE     H5Y      HDA2A    0.780000E-01   1.00800           0   0.00000       0.00000    
     13970 MEMB     77       POPE     C36      CD32A     2.07980       11.6110           0  -1.66000       1.30000    
     13971 MEMB     77       POPE     DC36     DRUD     -2.23580      0.400000           0   0.00000       0.00000    
     13972 MEMB     77       POPE     H6X      HDA2A    0.780000E-01   1.00800           0   0.00000       0.00000    
     13973 MEMB     77       POPE     H6Y      HDA2A    0.780000E-01   1.00800           0   0.00000       0.00000    
     13974 MEMB     77       POPE     C37      CD32A     2.07980       11.6110           0  -1.66000       1.30000    
     13975 MEMB     77       POPE     DC37     DRUD     -2.23580      0.400000           0   0.00000       0.00000    
     13976 MEMB     77       POPE     H7X      HDA2A    0.780000E-01   1.00800           0   0.00000       0.00000    
     13977 MEMB     77       POPE     H7Y      HDA2A    0.780000E-01   1.00800           0   0.00000       0.00000    
     13978 MEMB     77       POPE     C38      CD32A     2.07980       11.6110           0  -1.66000       1.30000    
     13979 MEMB     77       POPE     DC38     DRUD     -2.23580      0.400000           0   0.00000       0.00000    
     13980 MEMB     77       POPE     H8X      HDA2A    0.780000E-01   1.00800           0   0.00000       0.00000    
     13981 MEMB     77       POPE     H8Y      HDA2A    0.780000E-01   1.00800           0   0.00000       0.00000    
     13982 MEMB     77       POPE     C39      CD32A     2.07980       11.6110           0  -1.66000       1.30000    
     13983 MEMB     77       POPE     DC39     DRUD     -2.23580      0.400000           0   0.00000       0.00000    
     13984 MEMB     77       POPE     H9X      HDA2A    0.780000E-01   1.00800           0   0.00000       0.00000    
     13985 MEMB     77       POPE     H9Y      HDA2A    0.780000E-01   1.00800           0   0.00000       0.00000    
     13986 MEMB     77       POPE     C310     CD32A     2.07980       11.6110           0  -1.66000       1.30000    
     13987 MEMB     77       POPE     DC310    DRUD     -2.23580      0.400000           0   0.00000       0.00000    
     13988 MEMB     77       POPE     H10X     HDA2A    0.780000E-01   1.00800           0   0.00000       0.00000    
     13989 MEMB     77       POPE     H10Y     HDA2A    0.780000E-01   1.00800           0   0.00000       0.00000    
     13990 MEMB     77       POPE     C311     CD32A     2.07980       11.6110           0  -1.66000       1.30000    
     13991 MEMB     77       POPE     DC311    DRUD     -2.23580      0.400000           0   0.00000       0.00000    
     13992 MEMB     77       POPE     H11X     HDA2A    0.780000E-01   1.00800           0   0.00000       0.00000    
     13993 MEMB     77       POPE     H11Y     HDA2A    0.780000E-01   1.00800           0   0.00000       0.00000    
     13994 MEMB     77       POPE     C312     CD32A     2.07980       11.6110           0  -1.66000       1.30000    
     13995 MEMB     77       POPE     DC312    DRUD     -2.23580      0.400000           0   0.00000       0.00000    
     13996 MEMB     77       POPE     H12X     HDA2A    0.780000E-01   1.00800           0   0.00000       0.00000    
     13997 MEMB     77       POPE     H12Y     HDA2A    0.780000E-01   1.00800           0   0.00000       0.00000    
     13998 MEMB     77       POPE     C313     CD32A     2.07980       11.6110           0  -1.66000       1.30000    
     13999 MEMB     77       POPE     DC313    DRUD     -2.23580      0.400000           0   0.00000       0.00000    
     14000 MEMB     77       POPE     H13X     HDA2A    0.780000E-01   1.00800           0   0.00000       0.00000    
     14001 MEMB     77       POPE     H13Y     HDA2A    0.780000E-01   1.00800           0   0.00000       0.00000    
     14002 MEMB     77       POPE     C314     CD32A     2.07980       11.6110           0  -1.66000       1.30000    
     14003 MEMB     77       POPE     DC314    DRUD     -2.23580      0.400000           0   0.00000       0.00000    
     14004 MEMB     77       POPE     H14X     HDA2A    0.780000E-01   1.00800           0   0.00000       0.00000    
     14005 MEMB     77       POPE     H14Y     HDA2A    0.780000E-01   1.00800           0   0.00000       0.00000    
     14006 MEMB     77       POPE     C315     CD32A     2.07980       11.6110           0  -1.66000       1.30000    
     14007 MEMB     77       POPE     DC315    DRUD     -2.23580      0.400000           0   0.00000       0.00000    
     14008 MEMB     77       POPE     H15X     HDA2A    0.780000E-01   1.00800           0   0.00000       0.00000    
     14009 MEMB     77       POPE     H15Y     HDA2A    0.780000E-01   1.00800           0   0.00000       0.00000    
     14010 MEMB     77       POPE     C316     CD33A     2.30820       11.6110           0  -2.05100       1.30000    
     14011 MEMB     77       POPE     DC316    DRUD     -2.48520      0.400000           0   0.00000       0.00000    
     14012 MEMB     77       POPE     H16X     HDA3A    0.590000E-01   1.00800           0   0.00000       0.00000    
     14013 MEMB     77       POPE     H16Y     HDA3A    0.590000E-01   1.00800           0   0.00000       0.00000    
     14014 MEMB     77       POPE     H16Z     HDA3A    0.590000E-01   1.00800           0   0.00000       0.00000    
     14015 MEMB     78       POPE     N        ND3P3A    1.62810       13.6070           0  -1.29800      0.895000    
     14016 MEMB     78       POPE     DN       DRUD     -1.97710      0.400000           0   0.00000       0.00000    
     14017 MEMB     78       POPE     HN1      HDP1B    0.340000       1.00800           0   0.00000       0.00000    
     14018 MEMB     78       POPE     HN2      HDP1B    0.340000       1.00800           0   0.00000       0.00000    
     14019 MEMB     78       POPE     HN3      HDP1B    0.340000       1.00800           0   0.00000       0.00000    
     14020 MEMB     78       POPE     C12      CD32A     2.27610       11.6110           0  -1.65600      0.895000    
     14021 MEMB     78       POPE     DC12     DRUD     -2.23310      0.400000           0   0.00000       0.00000    
     14022 MEMB     78       POPE     H12A     HDA2A    0.143000       1.00800           0   0.00000       0.00000    
     14023 MEMB     78       POPE     H12B     HDA2A    0.143000       1.00800           0   0.00000       0.00000    
     14024 MEMB     78       POPE     C11      CD32A     2.42220       11.6110           0  -1.64200      0.862000    
     14025 MEMB     78       POPE     DC11     DRUD     -2.22370      0.400000           0   0.00000       0.00000    
     14026 MEMB     78       POPE     H11A     HDA2A    0.260000E-01   1.00800           0   0.00000       0.00000    
     14027 MEMB     78       POPE     H11B     HDA2A    0.260000E-01   1.00800           0   0.00000       0.00000    
     14028 MEMB     78       POPE     P        PD1A      2.90360       30.5740           0 -0.974000       2.09800    
     14029 MEMB     78       POPE     DP       DRUD     -1.71260      0.400000           0   0.00000       0.00000    
     14030 MEMB     78       POPE     O13      OD2C2B   0.798400       15.5994           0 -0.931000       1.08300    
     14031 MEMB     78       POPE     DO13     DRUD     -1.67440      0.400000           0   0.00000       0.00000    
     14032 MEMB     78       POPE     O14      OD2C2B   0.798400       15.5994           0 -0.931000       1.08300    
     14033 MEMB     78       POPE     DO14     DRUD     -1.67440      0.400000           0   0.00000       0.00000    
     14034 MEMB     78       POPE     O11      OD30B     1.17720       15.5994           0 -0.901000      0.181000    
     14035 MEMB     78       POPE     DO11     DRUD     -1.64720      0.400000           0   0.00000       0.00000    
     14036 MEMB     78       POPE     O12      OD30B     1.17720       15.5994           0 -0.901000      0.181000    
     14037 MEMB     78       POPE     DO12     DRUD     -1.64720      0.400000           0   0.00000       0.00000    
     14038 MEMB     78       POPE     C1       CD32A     2.42220       11.6110           0  -1.64200      0.862000    
     14039 MEMB     78       POPE     DC1      DRUD     -2.22370      0.400000           0   0.00000       0.00000    
     14040 MEMB     78       POPE     HA       HDA2A    0.260000E-01   1.00800           0   0.00000       0.00000    
     14041 MEMB     78       POPE     HB       HDA2A    0.260000E-01   1.00800           0   0.00000       0.00000    
     14042 MEMB     78       POPE     C2       CD31C     2.52830       11.6110           0  -1.79700      0.410000    
     14043 MEMB     78       POPE     DC2      DRUD     -2.32630      0.400000           0   0.00000       0.00000    
     14044 MEMB     78       POPE     HS       HDA1A    0.116000       1.00800           0   0.00000       0.00000    
     14045 MEMB     78       POPE     O21      OD30CL    1.48470       15.5994           0 -0.732000      0.601000    
     14046 MEMB     78       POPE     DO21     DRUD     -1.48470      0.400000           0   0.00000       0.00000    
     14047 MEMB     78       POPE     C21      CD2O3B    2.72820       11.6110           0  -1.37000       1.74700    
     14048 MEMB     78       POPE     DC21     DRUD     -2.03120      0.400000           0   0.00000       0.00000    
     14049 MEMB     78       POPE     O22      OD2C3B    1.64990       15.5994           0 -0.904000      0.565000    
     14050 MEMB     78       POPE     DO22     DRUD     -1.64990      0.400000           0   0.00000       0.00000    
     14051 MEMB     78       POPE     C22      CD32C     2.24380       11.6110           0  -1.99300      0.410000    
     14052 MEMB     78       POPE     DC22     DRUD     -2.44980      0.400000           0   0.00000       0.00000    
     14053 MEMB     78       POPE     H2R      HDA2A    0.690000E-01   1.00800           0   0.00000       0.00000    
     14054 MEMB     78       POPE     H2S      HDA2A    0.690000E-01   1.00800           0   0.00000       0.00000    
     14055 MEMB     78       POPE     LP1A     LPD     -0.349000       0.00000          -1   0.00000       0.00000    
     14056 MEMB     78       POPE     LP1B     LPD     -0.258000       0.00000          -1   0.00000       0.00000    
     14057 MEMB     78       POPE     LPMA     LPD     -0.170000       0.00000          -1   0.00000       0.00000    
     14058 MEMB     78       POPE     LPMB     LPD     -0.170000       0.00000          -1   0.00000       0.00000    
     14059 MEMB     78       POPE     C3       CD32C     2.41230       11.6110           0  -1.79700      0.410000    
     14060 MEMB     78       POPE     DC3      DRUD     -2.32630      0.400000           0   0.00000       0.00000    
     14061 MEMB     78       POPE     HX       HDA2A    0.116000       1.00800           0   0.00000       0.00000    
     14062 MEMB     78       POPE     HY       HDA2A    0.116000       1.00800           0   0.00000       0.00000    
     14063 MEMB     78       POPE     O31      OD30CL    1.48470       15.5994           0 -0.732000      0.601000    
     14064 MEMB     78       POPE     DO31     DRUD     -1.48470      0.400000           0   0.00000       0.00000    
     14065 MEMB     78       POPE     C31      CD2O3B    2.72820       11.6110           0  -1.37000       1.74700    
     14066 MEMB     78       POPE     DC31     DRUD     -2.03120      0.400000           0   0.00000       0.00000    
     14067 MEMB     78       POPE     O32      OD2C3B    1.64990       15.5994           0 -0.904000      0.565000    
     14068 MEMB     78       POPE     DO32     DRUD     -1.64990      0.400000           0   0.00000       0.00000    
     14069 MEMB     78       POPE     C32      CD32C     2.24380       11.6110           0  -1.99300      0.410000    
     14070 MEMB     78       POPE     DC32     DRUD     -2.44980      0.400000           0   0.00000       0.00000    
     14071 MEMB     78       POPE     H2X      HDA2A    0.690000E-01   1.00800           0   0.00000       0.00000    
     14072 MEMB     78       POPE     H2Y      HDA2A    0.690000E-01   1.00800           0   0.00000       0.00000    
     14073 MEMB     78       POPE     LP1C     LPD     -0.349000       0.00000          -1   0.00000       0.00000    
     14074 MEMB     78       POPE     LP1D     LPD     -0.258000       0.00000          -1   0.00000       0.00000    
     14075 MEMB     78       POPE     LPMC     LPD     -0.170000       0.00000          -1   0.00000       0.00000    
     14076 MEMB     78       POPE     LPMD     LPD     -0.170000       0.00000          -1   0.00000       0.00000    
     14077 MEMB     78       POPE     C23      CD32A     2.07980       11.6110           0  -1.66000       1.30000    
     14078 MEMB     78       POPE     DC23     DRUD     -2.23580      0.400000           0   0.00000       0.00000    
     14079 MEMB     78       POPE     H3R      HDA2A    0.780000E-01   1.00800           0   0.00000       0.00000    
     14080 MEMB     78       POPE     H3S      HDA2A    0.780000E-01   1.00800           0   0.00000       0.00000    
     14081 MEMB     78       POPE     C24      CD32A     2.07980       11.6110           0  -1.66000       1.30000    
     14082 MEMB     78       POPE     DC24     DRUD     -2.23580      0.400000           0   0.00000       0.00000    
     14083 MEMB     78       POPE     H4R      HDA2A    0.780000E-01   1.00800           0   0.00000       0.00000    
     14084 MEMB     78       POPE     H4S      HDA2A    0.780000E-01   1.00800           0   0.00000       0.00000    
     14085 MEMB     78       POPE     C25      CD32A     2.07980       11.6110           0  -1.66000       1.30000    
     14086 MEMB     78       POPE     DC25     DRUD     -2.23580      0.400000           0   0.00000       0.00000    
     14087 MEMB     78       POPE     H5R      HDA2A    0.780000E-01   1.00800           0   0.00000       0.00000    
     14088 MEMB     78       POPE     H5S      HDA2A    0.780000E-01   1.00800           0   0.00000       0.00000    
     14089 MEMB     78       POPE     C26      CD32A     2.07980       11.6110           0  -1.66000       1.30000    
     14090 MEMB     78       POPE     DC26     DRUD     -2.23580      0.400000           0   0.00000       0.00000    
     14091 MEMB     78       POPE     H6R      HDA2A    0.780000E-01   1.00800           0   0.00000       0.00000    
     14092 MEMB     78       POPE     H6S      HDA2A    0.780000E-01   1.00800           0   0.00000       0.00000    
     14093 MEMB     78       POPE     C27      CD32A     2.07980       11.6110           0  -1.66000       1.30000    
     14094 MEMB     78       POPE     DC27     DRUD     -2.23580      0.400000           0   0.00000       0.00000    
     14095 MEMB     78       POPE     H7R      HDA2A    0.780000E-01   1.00800           0   0.00000       0.00000    
     14096 MEMB     78       POPE     H7S      HDA2A    0.780000E-01   1.00800           0   0.00000       0.00000    
     14097 MEMB     78       POPE     C28      CD32A     2.07980       11.6110           0  -1.66000       1.30000    
     14098 MEMB     78       POPE     DC28     DRUD     -2.23580      0.400000           0   0.00000       0.00000    
     14099 MEMB     78       POPE     H8R      HDA2A    0.780000E-01   1.00800           0   0.00000       0.00000    
     14100 MEMB     78       POPE     H8S      HDA2A    0.780000E-01   1.00800           0   0.00000       0.00000    
     14101 MEMB     78       POPE     C29      CD2C1A    2.33700       11.6110           0  -1.99000      0.750000    
     14102 MEMB     78       POPE     DC29     DRUD     -2.44800      0.400000           0   0.00000       0.00000    
     14103 MEMB     78       POPE     H91      HD2C1A   0.111000       1.00800           0   0.00000       0.00000    
     14104 MEMB     78       POPE     C210     CD2C1A    2.33700       11.6110           0  -1.99000      0.750000    
     14105 MEMB     78       POPE     DC210    DRUD     -2.44800      0.400000           0   0.00000       0.00000    
     14106 MEMB     78       POPE     H101     HD2C1A   0.111000       1.00800           0   0.00000       0.00000    
     14107 MEMB     78       POPE     C211     CD32A     2.07980       11.6110           0  -1.66000       1.30000    
     14108 MEMB     78       POPE     DC211    DRUD     -2.23580      0.400000           0   0.00000       0.00000    
     14109 MEMB     78       POPE     H11R     HDA2A    0.780000E-01   1.00800           0   0.00000       0.00000    
     14110 MEMB     78       POPE     H11S     HDA2A    0.780000E-01   1.00800           0   0.00000       0.00000    
     14111 MEMB     78       POPE     C212     CD32A     2.07980       11.6110           0  -1.66000       1.30000    
     14112 MEMB     78       POPE     DC212    DRUD     -2.23580      0.400000           0   0.00000       0.00000    
     14113 MEMB     78       POPE     H12R     HDA2A    0.780000E-01   1.00800           0   0.00000       0.00000    
     14114 MEMB     78       POPE     H12S     HDA2A    0.780000E-01   1.00800           0   0.00000       0.00000    
     14115 MEMB     78       POPE     C213     CD32A     2.07980       11.6110           0  -1.66000       1.30000    
     14116 MEMB     78       POPE     DC213    DRUD     -2.23580      0.400000           0   0.00000       0.00000    
     14117 MEMB     78       POPE     H13R     HDA2A    0.780000E-01   1.00800           0   0.00000       0.00000    
     14118 MEMB     78       POPE     H13S     HDA2A    0.780000E-01   1.00800           0   0.00000       0.00000    
     14119 MEMB     78       POPE     C214     CD32A     2.07980       11.6110           0  -1.66000       1.30000    
     14120 MEMB     78       POPE     DC214    DRUD     -2.23580      0.400000           0   0.00000       0.00000    
     14121 MEMB     78       POPE     H14R     HDA2A    0.780000E-01   1.00800           0   0.00000       0.00000    
     14122 MEMB     78       POPE     H14S     HDA2A    0.780000E-01   1.00800           0   0.00000       0.00000    
     14123 MEMB     78       POPE     C215     CD32A     2.07980       11.6110           0  -1.66000       1.30000    
     14124 MEMB     78       POPE     DC215    DRUD     -2.23580      0.400000           0   0.00000       0.00000    
     14125 MEMB     78       POPE     H15R     HDA2A    0.780000E-01   1.00800           0   0.00000       0.00000    
     14126 MEMB     78       POPE     H15S     HDA2A    0.780000E-01   1.00800           0   0.00000       0.00000    
     14127 MEMB     78       POPE     C216     CD32A     2.07980       11.6110           0  -1.66000       1.30000    
     14128 MEMB     78       POPE     DC216    DRUD     -2.23580      0.400000           0   0.00000       0.00000    
     14129 MEMB     78       POPE     H16R     HDA2A    0.780000E-01   1.00800           0   0.00000       0.00000    
     14130 MEMB     78       POPE     H16S     HDA2A    0.780000E-01   1.00800           0   0.00000       0.00000    
     14131 MEMB     78       POPE     C217     CD32A     2.07980       11.6110           0  -1.66000       1.30000    
     14132 MEMB     78       POPE     DC217    DRUD     -2.23580      0.400000           0   0.00000       0.00000    
     14133 MEMB     78       POPE     H17R     HDA2A    0.780000E-01   1.00800           0   0.00000       0.00000    
     14134 MEMB     78       POPE     H17S     HDA2A    0.780000E-01   1.00800           0   0.00000       0.00000    
     14135 MEMB     78       POPE     C218     CD33A     2.30820       11.6110           0  -2.05100       1.30000    
     14136 MEMB     78       POPE     DC218    DRUD     -2.48520      0.400000           0   0.00000       0.00000    
     14137 MEMB     78       POPE     H18R     HDA3A    0.590000E-01   1.00800           0   0.00000       0.00000    
     14138 MEMB     78       POPE     H18S     HDA3A    0.590000E-01   1.00800           0   0.00000       0.00000    
     14139 MEMB     78       POPE     H18T     HDA3A    0.590000E-01   1.00800           0   0.00000       0.00000    
     14140 MEMB     78       POPE     C33      CD32A     2.07980       11.6110           0  -1.66000       1.30000    
     14141 MEMB     78       POPE     DC33     DRUD     -2.23580      0.400000           0   0.00000       0.00000    
     14142 MEMB     78       POPE     H3X      HDA2A    0.780000E-01   1.00800           0   0.00000       0.00000    
     14143 MEMB     78       POPE     H3Y      HDA2A    0.780000E-01   1.00800           0   0.00000       0.00000    
     14144 MEMB     78       POPE     C34      CD32A     2.07980       11.6110           0  -1.66000       1.30000    
     14145 MEMB     78       POPE     DC34     DRUD     -2.23580      0.400000           0   0.00000       0.00000    
     14146 MEMB     78       POPE     H4X      HDA2A    0.780000E-01   1.00800           0   0.00000       0.00000    
     14147 MEMB     78       POPE     H4Y      HDA2A    0.780000E-01   1.00800           0   0.00000       0.00000    
     14148 MEMB     78       POPE     C35      CD32A     2.07980       11.6110           0  -1.66000       1.30000    
     14149 MEMB     78       POPE     DC35     DRUD     -2.23580      0.400000           0   0.00000       0.00000    
     14150 MEMB     78       POPE     H5X      HDA2A    0.780000E-01   1.00800           0   0.00000       0.00000    
     14151 MEMB     78       POPE     H5Y      HDA2A    0.780000E-01   1.00800           0   0.00000       0.00000    
     14152 MEMB     78       POPE     C36      CD32A     2.07980       11.6110           0  -1.66000       1.30000    
     14153 MEMB     78       POPE     DC36     DRUD     -2.23580      0.400000           0   0.00000       0.00000    
     14154 MEMB     78       POPE     H6X      HDA2A    0.780000E-01   1.00800           0   0.00000       0.00000    
     14155 MEMB     78       POPE     H6Y      HDA2A    0.780000E-01   1.00800           0   0.00000       0.00000    
     14156 MEMB     78       POPE     C37      CD32A     2.07980       11.6110           0  -1.66000       1.30000    
     14157 MEMB     78       POPE     DC37     DRUD     -2.23580      0.400000           0   0.00000       0.00000    
     14158 MEMB     78       POPE     H7X      HDA2A    0.780000E-01   1.00800           0   0.00000       0.00000    
     14159 MEMB     78       POPE     H7Y      HDA2A    0.780000E-01   1.00800           0   0.00000       0.00000    
     14160 MEMB     78       POPE     C38      CD32A     2.07980       11.6110           0  -1.66000       1.30000    
     14161 MEMB     78       POPE     DC38     DRUD     -2.23580      0.400000           0   0.00000       0.00000    
     14162 MEMB     78       POPE     H8X      HDA2A    0.780000E-01   1.00800           0   0.00000       0.00000    
     14163 MEMB     78       POPE     H8Y      HDA2A    0.780000E-01   1.00800           0   0.00000       0.00000    
     14164 MEMB     78       POPE     C39      CD32A     2.07980       11.6110           0  -1.66000       1.30000    
     14165 MEMB     78       POPE     DC39     DRUD     -2.23580      0.400000           0   0.00000       0.00000    
     14166 MEMB     78       POPE     H9X      HDA2A    0.780000E-01   1.00800           0   0.00000       0.00000    
     14167 MEMB     78       POPE     H9Y      HDA2A    0.780000E-01   1.00800           0   0.00000       0.00000    
     14168 MEMB     78       POPE     C310     CD32A     2.07980       11.6110           0  -1.66000       1.30000    
     14169 MEMB     78       POPE     DC310    DRUD     -2.23580      0.400000           0   0.00000       0.00000    
     14170 MEMB     78       POPE     H10X     HDA2A    0.780000E-01   1.00800           0   0.00000       0.00000    
     14171 MEMB     78       POPE     H10Y     HDA2A    0.780000E-01   1.00800           0   0.00000       0.00000    
     14172 MEMB     78       POPE     C311     CD32A     2.07980       11.6110           0  -1.66000       1.30000    
     14173 MEMB     78       POPE     DC311    DRUD     -2.23580      0.400000           0   0.00000       0.00000    
     14174 MEMB     78       POPE     H11X     HDA2A    0.780000E-01   1.00800           0   0.00000       0.00000    
     14175 MEMB     78       POPE     H11Y     HDA2A    0.780000E-01   1.00800           0   0.00000       0.00000    
     14176 MEMB     78       POPE     C312     CD32A     2.07980       11.6110           0  -1.66000       1.30000    
     14177 MEMB     78       POPE     DC312    DRUD     -2.23580      0.400000           0   0.00000       0.00000    
     14178 MEMB     78       POPE     H12X     HDA2A    0.780000E-01   1.00800           0   0.00000       0.00000    
     14179 MEMB     78       POPE     H12Y     HDA2A    0.780000E-01   1.00800           0   0.00000       0.00000    
     14180 MEMB     78       POPE     C313     CD32A     2.07980       11.6110           0  -1.66000       1.30000    
     14181 MEMB     78       POPE     DC313    DRUD     -2.23580      0.400000           0   0.00000       0.00000    
     14182 MEMB     78       POPE     H13X     HDA2A    0.780000E-01   1.00800           0   0.00000       0.00000    
     14183 MEMB     78       POPE     H13Y     HDA2A    0.780000E-01   1.00800           0   0.00000       0.00000    
     14184 MEMB     78       POPE     C314     CD32A     2.07980       11.6110           0  -1.66000       1.30000    
     14185 MEMB     78       POPE     DC314    DRUD     -2.23580      0.400000           0   0.00000       0.00000    
     14186 MEMB     78       POPE     H14X     HDA2A    0.780000E-01   1.00800           0   0.00000       0.00000    
     14187 MEMB     78       POPE     H14Y     HDA2A    0.780000E-01   1.00800           0   0.00000       0.00000    
     14188 MEMB     78       POPE     C315     CD32A     2.07980       11.6110           0  -1.66000       1.30000    
     14189 MEMB     78       POPE     DC315    DRUD     -2.23580      0.400000           0   0.00000       0.00000    
     14190 MEMB     78       POPE     H15X     HDA2A    0.780000E-01   1.00800           0   0.00000       0.00000    
     14191 MEMB     78       POPE     H15Y     HDA2A    0.780000E-01   1.00800           0   0.00000       0.00000    
     14192 MEMB     78       POPE     C316     CD33A     2.30820       11.6110           0  -2.05100       1.30000    
     14193 MEMB     78       POPE     DC316    DRUD     -2.48520      0.400000           0   0.00000       0.00000    
     14194 MEMB     78       POPE     H16X     HDA3A    0.590000E-01   1.00800           0   0.00000       0.00000    
     14195 MEMB     78       POPE     H16Y     HDA3A    0.590000E-01   1.00800           0   0.00000       0.00000    
     14196 MEMB     78       POPE     H16Z     HDA3A    0.590000E-01   1.00800           0   0.00000       0.00000    
     14197 MEMB     79       POPE     N        ND3P3A    1.62810       13.6070           0  -1.29800      0.895000    
     14198 MEMB     79       POPE     DN       DRUD     -1.97710      0.400000           0   0.00000       0.00000    
     14199 MEMB     79       POPE     HN1      HDP1B    0.340000       1.00800           0   0.00000       0.00000    
     14200 MEMB     79       POPE     HN2      HDP1B    0.340000       1.00800           0   0.00000       0.00000    
     14201 MEMB     79       POPE     HN3      HDP1B    0.340000       1.00800           0   0.00000       0.00000    
     14202 MEMB     79       POPE     C12      CD32A     2.27610       11.6110           0  -1.65600      0.895000    
     14203 MEMB     79       POPE     DC12     DRUD     -2.23310      0.400000           0   0.00000       0.00000    
     14204 MEMB     79       POPE     H12A     HDA2A    0.143000       1.00800           0   0.00000       0.00000    
     14205 MEMB     79       POPE     H12B     HDA2A    0.143000       1.00800           0   0.00000       0.00000    
     14206 MEMB     79       POPE     C11      CD32A     2.42220       11.6110           0  -1.64200      0.862000    
     14207 MEMB     79       POPE     DC11     DRUD     -2.22370      0.400000           0   0.00000       0.00000    
     14208 MEMB     79       POPE     H11A     HDA2A    0.260000E-01   1.00800           0   0.00000       0.00000    
     14209 MEMB     79       POPE     H11B     HDA2A    0.260000E-01   1.00800           0   0.00000       0.00000    
     14210 MEMB     79       POPE     P        PD1A      2.90360       30.5740           0 -0.974000       2.09800    
     14211 MEMB     79       POPE     DP       DRUD     -1.71260      0.400000           0   0.00000       0.00000    
     14212 MEMB     79       POPE     O13      OD2C2B   0.798400       15.5994           0 -0.931000       1.08300    
     14213 MEMB     79       POPE     DO13     DRUD     -1.67440      0.400000           0   0.00000       0.00000    
     14214 MEMB     79       POPE     O14      OD2C2B   0.798400       15.5994           0 -0.931000       1.08300    
     14215 MEMB     79       POPE     DO14     DRUD     -1.67440      0.400000           0   0.00000       0.00000    
     14216 MEMB     79       POPE     O11      OD30B     1.17720       15.5994           0 -0.901000      0.181000    
     14217 MEMB     79       POPE     DO11     DRUD     -1.64720      0.400000           0   0.00000       0.00000    
     14218 MEMB     79       POPE     O12      OD30B     1.17720       15.5994           0 -0.901000      0.181000    
     14219 MEMB     79       POPE     DO12     DRUD     -1.64720      0.400000           0   0.00000       0.00000    
     14220 MEMB     79       POPE     C1       CD32A     2.42220       11.6110           0  -1.64200      0.862000    
     14221 MEMB     79       POPE     DC1      DRUD     -2.22370      0.400000           0   0.00000       0.00000    
     14222 MEMB     79       POPE     HA       HDA2A    0.260000E-01   1.00800           0   0.00000       0.00000    
     14223 MEMB     79       POPE     HB       HDA2A    0.260000E-01   1.00800           0   0.00000       0.00000    
     14224 MEMB     79       POPE     C2       CD31C     2.52830       11.6110           0  -1.79700      0.410000    
     14225 MEMB     79       POPE     DC2      DRUD     -2.32630      0.400000           0   0.00000       0.00000    
     14226 MEMB     79       POPE     HS       HDA1A    0.116000       1.00800           0   0.00000       0.00000    
     14227 MEMB     79       POPE     O21      OD30CL    1.48470       15.5994           0 -0.732000      0.601000    
     14228 MEMB     79       POPE     DO21     DRUD     -1.48470      0.400000           0   0.00000       0.00000    
     14229 MEMB     79       POPE     C21      CD2O3B    2.72820       11.6110           0  -1.37000       1.74700    
     14230 MEMB     79       POPE     DC21     DRUD     -2.03120      0.400000           0   0.00000       0.00000    
     14231 MEMB     79       POPE     O22      OD2C3B    1.64990       15.5994           0 -0.904000      0.565000    
     14232 MEMB     79       POPE     DO22     DRUD     -1.64990      0.400000           0   0.00000       0.00000    
     14233 MEMB     79       POPE     C22      CD32C     2.24380       11.6110           0  -1.99300      0.410000    
     14234 MEMB     79       POPE     DC22     DRUD     -2.44980      0.400000           0   0.00000       0.00000    
     14235 MEMB     79       POPE     H2R      HDA2A    0.690000E-01   1.00800           0   0.00000       0.00000    
     14236 MEMB     79       POPE     H2S      HDA2A    0.690000E-01   1.00800           0   0.00000       0.00000    
     14237 MEMB     79       POPE     LP1A     LPD     -0.349000       0.00000          -1   0.00000       0.00000    
     14238 MEMB     79       POPE     LP1B     LPD     -0.258000       0.00000          -1   0.00000       0.00000    
     14239 MEMB     79       POPE     LPMA     LPD     -0.170000       0.00000          -1   0.00000       0.00000    
     14240 MEMB     79       POPE     LPMB     LPD     -0.170000       0.00000          -1   0.00000       0.00000    
     14241 MEMB     79       POPE     C3       CD32C     2.41230       11.6110           0  -1.79700      0.410000    
     14242 MEMB     79       POPE     DC3      DRUD     -2.32630      0.400000           0   0.00000       0.00000    
     14243 MEMB     79       POPE     HX       HDA2A    0.116000       1.00800           0   0.00000       0.00000    
     14244 MEMB     79       POPE     HY       HDA2A    0.116000       1.00800           0   0.00000       0.00000    
     14245 MEMB     79       POPE     O31      OD30CL    1.48470       15.5994           0 -0.732000      0.601000    
     14246 MEMB     79       POPE     DO31     DRUD     -1.48470      0.400000           0   0.00000       0.00000    
     14247 MEMB     79       POPE     C31      CD2O3B    2.72820       11.6110           0  -1.37000       1.74700    
     14248 MEMB     79       POPE     DC31     DRUD     -2.03120      0.400000           0   0.00000       0.00000    
     14249 MEMB     79       POPE     O32      OD2C3B    1.64990       15.5994           0 -0.904000      0.565000    
     14250 MEMB     79       POPE     DO32     DRUD     -1.64990      0.400000           0   0.00000       0.00000    
     14251 MEMB     79       POPE     C32      CD32C     2.24380       11.6110           0  -1.99300      0.410000    
     14252 MEMB     79       POPE     DC32     DRUD     -2.44980      0.400000           0   0.00000       0.00000    
     14253 MEMB     79       POPE     H2X      HDA2A    0.690000E-01   1.00800           0   0.00000       0.00000    
     14254 MEMB     79       POPE     H2Y      HDA2A    0.690000E-01   1.00800           0   0.00000       0.00000    
     14255 MEMB     79       POPE     LP1C     LPD     -0.349000       0.00000          -1   0.00000       0.00000    
     14256 MEMB     79       POPE     LP1D     LPD     -0.258000       0.00000          -1   0.00000       0.00000    
     14257 MEMB     79       POPE     LPMC     LPD     -0.170000       0.00000          -1   0.00000       0.00000    
     14258 MEMB     79       POPE     LPMD     LPD     -0.170000       0.00000          -1   0.00000       0.00000    
     14259 MEMB     79       POPE     C23      CD32A     2.07980       11.6110           0  -1.66000       1.30000    
     14260 MEMB     79       POPE     DC23     DRUD     -2.23580      0.400000           0   0.00000       0.00000    
     14261 MEMB     79       POPE     H3R      HDA2A    0.780000E-01   1.00800           0   0.00000       0.00000    
     14262 MEMB     79       POPE     H3S      HDA2A    0.780000E-01   1.00800           0   0.00000       0.00000    
     14263 MEMB     79       POPE     C24      CD32A     2.07980       11.6110           0  -1.66000       1.30000    
     14264 MEMB     79       POPE     DC24     DRUD     -2.23580      0.400000           0   0.00000       0.00000    
     14265 MEMB     79       POPE     H4R      HDA2A    0.780000E-01   1.00800           0   0.00000       0.00000    
     14266 MEMB     79       POPE     H4S      HDA2A    0.780000E-01   1.00800           0   0.00000       0.00000    
     14267 MEMB     79       POPE     C25      CD32A     2.07980       11.6110           0  -1.66000       1.30000    
     14268 MEMB     79       POPE     DC25     DRUD     -2.23580      0.400000           0   0.00000       0.00000    
     14269 MEMB     79       POPE     H5R      HDA2A    0.780000E-01   1.00800           0   0.00000       0.00000    
     14270 MEMB     79       POPE     H5S      HDA2A    0.780000E-01   1.00800           0   0.00000       0.00000    
     14271 MEMB     79       POPE     C26      CD32A     2.07980       11.6110           0  -1.66000       1.30000    
     14272 MEMB     79       POPE     DC26     DRUD     -2.23580      0.400000           0   0.00000       0.00000    
     14273 MEMB     79       POPE     H6R      HDA2A    0.780000E-01   1.00800           0   0.00000       0.00000    
     14274 MEMB     79       POPE     H6S      HDA2A    0.780000E-01   1.00800           0   0.00000       0.00000    
     14275 MEMB     79       POPE     C27      CD32A     2.07980       11.6110           0  -1.66000       1.30000    
     14276 MEMB     79       POPE     DC27     DRUD     -2.23580      0.400000           0   0.00000       0.00000    
     14277 MEMB     79       POPE     H7R      HDA2A    0.780000E-01   1.00800           0   0.00000       0.00000    
     14278 MEMB     79       POPE     H7S      HDA2A    0.780000E-01   1.00800           0   0.00000       0.00000    
     14279 MEMB     79       POPE     C28      CD32A     2.07980       11.6110           0  -1.66000       1.30000    
     14280 MEMB     79       POPE     DC28     DRUD     -2.23580      0.400000           0   0.00000       0.00000    
     14281 MEMB     79       POPE     H8R      HDA2A    0.780000E-01   1.00800           0   0.00000       0.00000    
     14282 MEMB     79       POPE     H8S      HDA2A    0.780000E-01   1.00800           0   0.00000       0.00000    
     14283 MEMB     79       POPE     C29      CD2C1A    2.33700       11.6110           0  -1.99000      0.750000    
     14284 MEMB     79       POPE     DC29     DRUD     -2.44800      0.400000           0   0.00000       0.00000    
     14285 MEMB     79       POPE     H91      HD2C1A   0.111000       1.00800           0   0.00000       0.00000    
     14286 MEMB     79       POPE     C210     CD2C1A    2.33700       11.6110           0  -1.99000      0.750000    
     14287 MEMB     79       POPE     DC210    DRUD     -2.44800      0.400000           0   0.00000       0.00000    
     14288 MEMB     79       POPE     H101     HD2C1A   0.111000       1.00800           0   0.00000       0.00000    
     14289 MEMB     79       POPE     C211     CD32A     2.07980       11.6110           0  -1.66000       1.30000    
     14290 MEMB     79       POPE     DC211    DRUD     -2.23580      0.400000           0   0.00000       0.00000    
     14291 MEMB     79       POPE     H11R     HDA2A    0.780000E-01   1.00800           0   0.00000       0.00000    
     14292 MEMB     79       POPE     H11S     HDA2A    0.780000E-01   1.00800           0   0.00000       0.00000    
     14293 MEMB     79       POPE     C212     CD32A     2.07980       11.6110           0  -1.66000       1.30000    
     14294 MEMB     79       POPE     DC212    DRUD     -2.23580      0.400000           0   0.00000       0.00000    
     14295 MEMB     79       POPE     H12R     HDA2A    0.780000E-01   1.00800           0   0.00000       0.00000    
     14296 MEMB     79       POPE     H12S     HDA2A    0.780000E-01   1.00800           0   0.00000       0.00000    
     14297 MEMB     79       POPE     C213     CD32A     2.07980       11.6110           0  -1.66000       1.30000    
     14298 MEMB     79       POPE     DC213    DRUD     -2.23580      0.400000           0   0.00000       0.00000    
     14299 MEMB     79       POPE     H13R     HDA2A    0.780000E-01   1.00800           0   0.00000       0.00000    
     14300 MEMB     79       POPE     H13S     HDA2A    0.780000E-01   1.00800           0   0.00000       0.00000    
     14301 MEMB     79       POPE     C214     CD32A     2.07980       11.6110           0  -1.66000       1.30000    
     14302 MEMB     79       POPE     DC214    DRUD     -2.23580      0.400000           0   0.00000       0.00000    
     14303 MEMB     79       POPE     H14R     HDA2A    0.780000E-01   1.00800           0   0.00000       0.00000    
     14304 MEMB     79       POPE     H14S     HDA2A    0.780000E-01   1.00800           0   0.00000       0.00000    
     14305 MEMB     79       POPE     C215     CD32A     2.07980       11.6110           0  -1.66000       1.30000    
     14306 MEMB     79       POPE     DC215    DRUD     -2.23580      0.400000           0   0.00000       0.00000    
     14307 MEMB     79       POPE     H15R     HDA2A    0.780000E-01   1.00800           0   0.00000       0.00000    
     14308 MEMB     79       POPE     H15S     HDA2A    0.780000E-01   1.00800           0   0.00000       0.00000    
     14309 MEMB     79       POPE     C216     CD32A     2.07980       11.6110           0  -1.66000       1.30000    
     14310 MEMB     79       POPE     DC216    DRUD     -2.23580      0.400000           0   0.00000       0.00000    
     14311 MEMB     79       POPE     H16R     HDA2A    0.780000E-01   1.00800           0   0.00000       0.00000    
     14312 MEMB     79       POPE     H16S     HDA2A    0.780000E-01   1.00800           0   0.00000       0.00000    
     14313 MEMB     79       POPE     C217     CD32A     2.07980       11.6110           0  -1.66000       1.30000    
     14314 MEMB     79       POPE     DC217    DRUD     -2.23580      0.400000           0   0.00000       0.00000    
     14315 MEMB     79       POPE     H17R     HDA2A    0.780000E-01   1.00800           0   0.00000       0.00000    
     14316 MEMB     79       POPE     H17S     HDA2A    0.780000E-01   1.00800           0   0.00000       0.00000    
     14317 MEMB     79       POPE     C218     CD33A     2.30820       11.6110           0  -2.05100       1.30000    
     14318 MEMB     79       POPE     DC218    DRUD     -2.48520      0.400000           0   0.00000       0.00000    
     14319 MEMB     79       POPE     H18R     HDA3A    0.590000E-01   1.00800           0   0.00000       0.00000    
     14320 MEMB     79       POPE     H18S     HDA3A    0.590000E-01   1.00800           0   0.00000       0.00000    
     14321 MEMB     79       POPE     H18T     HDA3A    0.590000E-01   1.00800           0   0.00000       0.00000    
     14322 MEMB     79       POPE     C33      CD32A     2.07980       11.6110           0  -1.66000       1.30000    
     14323 MEMB     79       POPE     DC33     DRUD     -2.23580      0.400000           0   0.00000       0.00000    
     14324 MEMB     79       POPE     H3X      HDA2A    0.780000E-01   1.00800           0   0.00000       0.00000    
     14325 MEMB     79       POPE     H3Y      HDA2A    0.780000E-01   1.00800           0   0.00000       0.00000    
     14326 MEMB     79       POPE     C34      CD32A     2.07980       11.6110           0  -1.66000       1.30000    
     14327 MEMB     79       POPE     DC34     DRUD     -2.23580      0.400000           0   0.00000       0.00000    
     14328 MEMB     79       POPE     H4X      HDA2A    0.780000E-01   1.00800           0   0.00000       0.00000    
     14329 MEMB     79       POPE     H4Y      HDA2A    0.780000E-01   1.00800           0   0.00000       0.00000    
     14330 MEMB     79       POPE     C35      CD32A     2.07980       11.6110           0  -1.66000       1.30000    
     14331 MEMB     79       POPE     DC35     DRUD     -2.23580      0.400000           0   0.00000       0.00000    
     14332 MEMB     79       POPE     H5X      HDA2A    0.780000E-01   1.00800           0   0.00000       0.00000    
     14333 MEMB     79       POPE     H5Y      HDA2A    0.780000E-01   1.00800           0   0.00000       0.00000    
     14334 MEMB     79       POPE     C36      CD32A     2.07980       11.6110           0  -1.66000       1.30000    
     14335 MEMB     79       POPE     DC36     DRUD     -2.23580      0.400000           0   0.00000       0.00000    
     14336 MEMB     79       POPE     H6X      HDA2A    0.780000E-01   1.00800           0   0.00000       0.00000    
     14337 MEMB     79       POPE     H6Y      HDA2A    0.780000E-01   1.00800           0   0.00000       0.00000    
     14338 MEMB     79       POPE     C37      CD32A     2.07980       11.6110           0  -1.66000       1.30000    
     14339 MEMB     79       POPE     DC37     DRUD     -2.23580      0.400000           0   0.00000       0.00000    
     14340 MEMB     79       POPE     H7X      HDA2A    0.780000E-01   1.00800           0   0.00000       0.00000    
     14341 MEMB     79       POPE     H7Y      HDA2A    0.780000E-01   1.00800           0   0.00000       0.00000    
     14342 MEMB     79       POPE     C38      CD32A     2.07980       11.6110           0  -1.66000       1.30000    
     14343 MEMB     79       POPE     DC38     DRUD     -2.23580      0.400000           0   0.00000       0.00000    
     14344 MEMB     79       POPE     H8X      HDA2A    0.780000E-01   1.00800           0   0.00000       0.00000    
     14345 MEMB     79       POPE     H8Y      HDA2A    0.780000E-01   1.00800           0   0.00000       0.00000    
     14346 MEMB     79       POPE     C39      CD32A     2.07980       11.6110           0  -1.66000       1.30000    
     14347 MEMB     79       POPE     DC39     DRUD     -2.23580      0.400000           0   0.00000       0.00000    
     14348 MEMB     79       POPE     H9X      HDA2A    0.780000E-01   1.00800           0   0.00000       0.00000    
     14349 MEMB     79       POPE     H9Y      HDA2A    0.780000E-01   1.00800           0   0.00000       0.00000    
     14350 MEMB     79       POPE     C310     CD32A     2.07980       11.6110           0  -1.66000       1.30000    
     14351 MEMB     79       POPE     DC310    DRUD     -2.23580      0.400000           0   0.00000       0.00000    
     14352 MEMB     79       POPE     H10X     HDA2A    0.780000E-01   1.00800           0   0.00000       0.00000    
     14353 MEMB     79       POPE     H10Y     HDA2A    0.780000E-01   1.00800           0   0.00000       0.00000    
     14354 MEMB     79       POPE     C311     CD32A     2.07980       11.6110           0  -1.66000       1.30000    
     14355 MEMB     79       POPE     DC311    DRUD     -2.23580      0.400000           0   0.00000       0.00000    
     14356 MEMB     79       POPE     H11X     HDA2A    0.780000E-01   1.00800           0   0.00000       0.00000    
     14357 MEMB     79       POPE     H11Y     HDA2A    0.780000E-01   1.00800           0   0.00000       0.00000    
     14358 MEMB     79       POPE     C312     CD32A     2.07980       11.6110           0  -1.66000       1.30000    
     14359 MEMB     79       POPE     DC312    DRUD     -2.23580      0.400000           0   0.00000       0.00000    
     14360 MEMB     79       POPE     H12X     HDA2A    0.780000E-01   1.00800           0   0.00000       0.00000    
     14361 MEMB     79       POPE     H12Y     HDA2A    0.780000E-01   1.00800           0   0.00000       0.00000    
     14362 MEMB     79       POPE     C313     CD32A     2.07980       11.6110           0  -1.66000       1.30000    
     14363 MEMB     79       POPE     DC313    DRUD     -2.23580      0.400000           0   0.00000       0.00000    
     14364 MEMB     79       POPE     H13X     HDA2A    0.780000E-01   1.00800           0   0.00000       0.00000    
     14365 MEMB     79       POPE     H13Y     HDA2A    0.780000E-01   1.00800           0   0.00000       0.00000    
     14366 MEMB     79       POPE     C314     CD32A     2.07980       11.6110           0  -1.66000       1.30000    
     14367 MEMB     79       POPE     DC314    DRUD     -2.23580      0.400000           0   0.00000       0.00000    
     14368 MEMB     79       POPE     H14X     HDA2A    0.780000E-01   1.00800           0   0.00000       0.00000    
     14369 MEMB     79       POPE     H14Y     HDA2A    0.780000E-01   1.00800           0   0.00000       0.00000    
     14370 MEMB     79       POPE     C315     CD32A     2.07980       11.6110           0  -1.66000       1.30000    
     14371 MEMB     79       POPE     DC315    DRUD     -2.23580      0.400000           0   0.00000       0.00000    
     14372 MEMB     79       POPE     H15X     HDA2A    0.780000E-01   1.00800           0   0.00000       0.00000    
     14373 MEMB     79       POPE     H15Y     HDA2A    0.780000E-01   1.00800           0   0.00000       0.00000    
     14374 MEMB     79       POPE     C316     CD33A     2.30820       11.6110           0  -2.05100       1.30000    
     14375 MEMB     79       POPE     DC316    DRUD     -2.48520      0.400000           0   0.00000       0.00000    
     14376 MEMB     79       POPE     H16X     HDA3A    0.590000E-01   1.00800           0   0.00000       0.00000    
     14377 MEMB     79       POPE     H16Y     HDA3A    0.590000E-01   1.00800           0   0.00000       0.00000    
     14378 MEMB     79       POPE     H16Z     HDA3A    0.590000E-01   1.00800           0   0.00000       0.00000    
     14379 MEMB     80       POPE     N        ND3P3A    1.62810       13.6070           0  -1.29800      0.895000    
     14380 MEMB     80       POPE     DN       DRUD     -1.97710      0.400000           0   0.00000       0.00000    
     14381 MEMB     80       POPE     HN1      HDP1B    0.340000       1.00800           0   0.00000       0.00000    
     14382 MEMB     80       POPE     HN2      HDP1B    0.340000       1.00800           0   0.00000       0.00000    
     14383 MEMB     80       POPE     HN3      HDP1B    0.340000       1.00800           0   0.00000       0.00000    
     14384 MEMB     80       POPE     C12      CD32A     2.27610       11.6110           0  -1.65600      0.895000    
     14385 MEMB     80       POPE     DC12     DRUD     -2.23310      0.400000           0   0.00000       0.00000    
     14386 MEMB     80       POPE     H12A     HDA2A    0.143000       1.00800           0   0.00000       0.00000    
     14387 MEMB     80       POPE     H12B     HDA2A    0.143000       1.00800           0   0.00000       0.00000    
     14388 MEMB     80       POPE     C11      CD32A     2.42220       11.6110           0  -1.64200      0.862000    
     14389 MEMB     80       POPE     DC11     DRUD     -2.22370      0.400000           0   0.00000       0.00000    
     14390 MEMB     80       POPE     H11A     HDA2A    0.260000E-01   1.00800           0   0.00000       0.00000    
     14391 MEMB     80       POPE     H11B     HDA2A    0.260000E-01   1.00800           0   0.00000       0.00000    
     14392 MEMB     80       POPE     P        PD1A      2.90360       30.5740           0 -0.974000       2.09800    
     14393 MEMB     80       POPE     DP       DRUD     -1.71260      0.400000           0   0.00000       0.00000    
     14394 MEMB     80       POPE     O13      OD2C2B   0.798400       15.5994           0 -0.931000       1.08300    
     14395 MEMB     80       POPE     DO13     DRUD     -1.67440      0.400000           0   0.00000       0.00000    
     14396 MEMB     80       POPE     O14      OD2C2B   0.798400       15.5994           0 -0.931000       1.08300    
     14397 MEMB     80       POPE     DO14     DRUD     -1.67440      0.400000           0   0.00000       0.00000    
     14398 MEMB     80       POPE     O11      OD30B     1.17720       15.5994           0 -0.901000      0.181000    
     14399 MEMB     80       POPE     DO11     DRUD     -1.64720      0.400000           0   0.00000       0.00000    
     14400 MEMB     80       POPE     O12      OD30B     1.17720       15.5994           0 -0.901000      0.181000    
     14401 MEMB     80       POPE     DO12     DRUD     -1.64720      0.400000           0   0.00000       0.00000    
     14402 MEMB     80       POPE     C1       CD32A     2.42220       11.6110           0  -1.64200      0.862000    
     14403 MEMB     80       POPE     DC1      DRUD     -2.22370      0.400000           0   0.00000       0.00000    
     14404 MEMB     80       POPE     HA       HDA2A    0.260000E-01   1.00800           0   0.00000       0.00000    
     14405 MEMB     80       POPE     HB       HDA2A    0.260000E-01   1.00800           0   0.00000       0.00000    
     14406 MEMB     80       POPE     C2       CD31C     2.52830       11.6110           0  -1.79700      0.410000    
     14407 MEMB     80       POPE     DC2      DRUD     -2.32630      0.400000           0   0.00000       0.00000    
     14408 MEMB     80       POPE     HS       HDA1A    0.116000       1.00800           0   0.00000       0.00000    
     14409 MEMB     80       POPE     O21      OD30CL    1.48470       15.5994           0 -0.732000      0.601000    
     14410 MEMB     80       POPE     DO21     DRUD     -1.48470      0.400000           0   0.00000       0.00000    
     14411 MEMB     80       POPE     C21      CD2O3B    2.72820       11.6110           0  -1.37000       1.74700    
     14412 MEMB     80       POPE     DC21     DRUD     -2.03120      0.400000           0   0.00000       0.00000    
     14413 MEMB     80       POPE     O22      OD2C3B    1.64990       15.5994           0 -0.904000      0.565000    
     14414 MEMB     80       POPE     DO22     DRUD     -1.64990      0.400000           0   0.00000       0.00000    
     14415 MEMB     80       POPE     C22      CD32C     2.24380       11.6110           0  -1.99300      0.410000    
     14416 MEMB     80       POPE     DC22     DRUD     -2.44980      0.400000           0   0.00000       0.00000    
     14417 MEMB     80       POPE     H2R      HDA2A    0.690000E-01   1.00800           0   0.00000       0.00000    
     14418 MEMB     80       POPE     H2S      HDA2A    0.690000E-01   1.00800           0   0.00000       0.00000    
     14419 MEMB     80       POPE     LP1A     LPD     -0.349000       0.00000          -1   0.00000       0.00000    
     14420 MEMB     80       POPE     LP1B     LPD     -0.258000       0.00000          -1   0.00000       0.00000    
     14421 MEMB     80       POPE     LPMA     LPD     -0.170000       0.00000          -1   0.00000       0.00000    
     14422 MEMB     80       POPE     LPMB     LPD     -0.170000       0.00000          -1   0.00000       0.00000    
     14423 MEMB     80       POPE     C3       CD32C     2.41230       11.6110           0  -1.79700      0.410000    
     14424 MEMB     80       POPE     DC3      DRUD     -2.32630      0.400000           0   0.00000       0.00000    
     14425 MEMB     80       POPE     HX       HDA2A    0.116000       1.00800           0   0.00000       0.00000    
     14426 MEMB     80       POPE     HY       HDA2A    0.116000       1.00800           0   0.00000       0.00000    
     14427 MEMB     80       POPE     O31      OD30CL    1.48470       15.5994           0 -0.732000      0.601000    
     14428 MEMB     80       POPE     DO31     DRUD     -1.48470      0.400000           0   0.00000       0.00000    
     14429 MEMB     80       POPE     C31      CD2O3B    2.72820       11.6110           0  -1.37000       1.74700    
     14430 MEMB     80       POPE     DC31     DRUD     -2.03120      0.400000           0   0.00000       0.00000    
     14431 MEMB     80       POPE     O32      OD2C3B    1.64990       15.5994           0 -0.904000      0.565000    
     14432 MEMB     80       POPE     DO32     DRUD     -1.64990      0.400000           0   0.00000       0.00000    
     14433 MEMB     80       POPE     C32      CD32C     2.24380       11.6110           0  -1.99300      0.410000    
     14434 MEMB     80       POPE     DC32     DRUD     -2.44980      0.400000           0   0.00000       0.00000    
     14435 MEMB     80       POPE     H2X      HDA2A    0.690000E-01   1.00800           0   0.00000       0.00000    
     14436 MEMB     80       POPE     H2Y      HDA2A    0.690000E-01   1.00800           0   0.00000       0.00000    
     14437 MEMB     80       POPE     LP1C     LPD     -0.349000       0.00000          -1   0.00000       0.00000    
     14438 MEMB     80       POPE     LP1D     LPD     -0.258000       0.00000          -1   0.00000       0.00000    
     14439 MEMB     80       POPE     LPMC     LPD     -0.170000       0.00000          -1   0.00000       0.00000    
     14440 MEMB     80       POPE     LPMD     LPD     -0.170000       0.00000          -1   0.00000       0.00000    
     14441 MEMB     80       POPE     C23      CD32A     2.07980       11.6110           0  -1.66000       1.30000    
     14442 MEMB     80       POPE     DC23     DRUD     -2.23580      0.400000           0   0.00000       0.00000    
     14443 MEMB     80       POPE     H3R      HDA2A    0.780000E-01   1.00800           0   0.00000       0.00000    
     14444 MEMB     80       POPE     H3S      HDA2A    0.780000E-01   1.00800           0   0.00000       0.00000    
     14445 MEMB     80       POPE     C24      CD32A     2.07980       11.6110           0  -1.66000       1.30000    
     14446 MEMB     80       POPE     DC24     DRUD     -2.23580      0.400000           0   0.00000       0.00000    
     14447 MEMB     80       POPE     H4R      HDA2A    0.780000E-01   1.00800           0   0.00000       0.00000    
     14448 MEMB     80       POPE     H4S      HDA2A    0.780000E-01   1.00800           0   0.00000       0.00000    
     14449 MEMB     80       POPE     C25      CD32A     2.07980       11.6110           0  -1.66000       1.30000    
     14450 MEMB     80       POPE     DC25     DRUD     -2.23580      0.400000           0   0.00000       0.00000    
     14451 MEMB     80       POPE     H5R      HDA2A    0.780000E-01   1.00800           0   0.00000       0.00000    
     14452 MEMB     80       POPE     H5S      HDA2A    0.780000E-01   1.00800           0   0.00000       0.00000    
     14453 MEMB     80       POPE     C26      CD32A     2.07980       11.6110           0  -1.66000       1.30000    
     14454 MEMB     80       POPE     DC26     DRUD     -2.23580      0.400000           0   0.00000       0.00000    
     14455 MEMB     80       POPE     H6R      HDA2A    0.780000E-01   1.00800           0   0.00000       0.00000    
     14456 MEMB     80       POPE     H6S      HDA2A    0.780000E-01   1.00800           0   0.00000       0.00000    
     14457 MEMB     80       POPE     C27      CD32A     2.07980       11.6110           0  -1.66000       1.30000    
     14458 MEMB     80       POPE     DC27     DRUD     -2.23580      0.400000           0   0.00000       0.00000    
     14459 MEMB     80       POPE     H7R      HDA2A    0.780000E-01   1.00800           0   0.00000       0.00000    
     14460 MEMB     80       POPE     H7S      HDA2A    0.780000E-01   1.00800           0   0.00000       0.00000    
     14461 MEMB     80       POPE     C28      CD32A     2.07980       11.6110           0  -1.66000       1.30000    
     14462 MEMB     80       POPE     DC28     DRUD     -2.23580      0.400000           0   0.00000       0.00000    
     14463 MEMB     80       POPE     H8R      HDA2A    0.780000E-01   1.00800           0   0.00000       0.00000    
     14464 MEMB     80       POPE     H8S      HDA2A    0.780000E-01   1.00800           0   0.00000       0.00000    
     14465 MEMB     80       POPE     C29      CD2C1A    2.33700       11.6110           0  -1.99000      0.750000    
     14466 MEMB     80       POPE     DC29     DRUD     -2.44800      0.400000           0   0.00000       0.00000    
     14467 MEMB     80       POPE     H91      HD2C1A   0.111000       1.00800           0   0.00000       0.00000    
     14468 MEMB     80       POPE     C210     CD2C1A    2.33700       11.6110           0  -1.99000      0.750000    
     14469 MEMB     80       POPE     DC210    DRUD     -2.44800      0.400000           0   0.00000       0.00000    
     14470 MEMB     80       POPE     H101     HD2C1A   0.111000       1.00800           0   0.00000       0.00000    
     14471 MEMB     80       POPE     C211     CD32A     2.07980       11.6110           0  -1.66000       1.30000    
     14472 MEMB     80       POPE     DC211    DRUD     -2.23580      0.400000           0   0.00000       0.00000    
     14473 MEMB     80       POPE     H11R     HDA2A    0.780000E-01   1.00800           0   0.00000       0.00000    
     14474 MEMB     80       POPE     H11S     HDA2A    0.780000E-01   1.00800           0   0.00000       0.00000    
     14475 MEMB     80       POPE     C212     CD32A     2.07980       11.6110           0  -1.66000       1.30000    
     14476 MEMB     80       POPE     DC212    DRUD     -2.23580      0.400000           0   0.00000       0.00000    
     14477 MEMB     80       POPE     H12R     HDA2A    0.780000E-01   1.00800           0   0.00000       0.00000    
     14478 MEMB     80       POPE     H12S     HDA2A    0.780000E-01   1.00800           0   0.00000       0.00000    
     14479 MEMB     80       POPE     C213     CD32A     2.07980       11.6110           0  -1.66000       1.30000    
     14480 MEMB     80       POPE     DC213    DRUD     -2.23580      0.400000           0   0.00000       0.00000    
     14481 MEMB     80       POPE     H13R     HDA2A    0.780000E-01   1.00800           0   0.00000       0.00000    
     14482 MEMB     80       POPE     H13S     HDA2A    0.780000E-01   1.00800           0   0.00000       0.00000    
     14483 MEMB     80       POPE     C214     CD32A     2.07980       11.6110           0  -1.66000       1.30000    
     14484 MEMB     80       POPE     DC214    DRUD     -2.23580      0.400000           0   0.00000       0.00000    
     14485 MEMB     80       POPE     H14R     HDA2A    0.780000E-01   1.00800           0   0.00000       0.00000    
     14486 MEMB     80       POPE     H14S     HDA2A    0.780000E-01   1.00800           0   0.00000       0.00000    
     14487 MEMB     80       POPE     C215     CD32A     2.07980       11.6110           0  -1.66000       1.30000    
     14488 MEMB     80       POPE     DC215    DRUD     -2.23580      0.400000           0   0.00000       0.00000    
     14489 MEMB     80       POPE     H15R     HDA2A    0.780000E-01   1.00800           0   0.00000       0.00000    
     14490 MEMB     80       POPE     H15S     HDA2A    0.780000E-01   1.00800           0   0.00000       0.00000    
     14491 MEMB     80       POPE     C216     CD32A     2.07980       11.6110           0  -1.66000       1.30000    
     14492 MEMB     80       POPE     DC216    DRUD     -2.23580      0.400000           0   0.00000       0.00000    
     14493 MEMB     80       POPE     H16R     HDA2A    0.780000E-01   1.00800           0   0.00000       0.00000    
     14494 MEMB     80       POPE     H16S     HDA2A    0.780000E-01   1.00800           0   0.00000       0.00000    
     14495 MEMB     80       POPE     C217     CD32A     2.07980       11.6110           0  -1.66000       1.30000    
     14496 MEMB     80       POPE     DC217    DRUD     -2.23580      0.400000           0   0.00000       0.00000    
     14497 MEMB     80       POPE     H17R     HDA2A    0.780000E-01   1.00800           0   0.00000       0.00000    
     14498 MEMB     80       POPE     H17S     HDA2A    0.780000E-01   1.00800           0   0.00000       0.00000    
     14499 MEMB     80       POPE     C218     CD33A     2.30820       11.6110           0  -2.05100       1.30000    
     14500 MEMB     80       POPE     DC218    DRUD     -2.48520      0.400000           0   0.00000       0.00000    
     14501 MEMB     80       POPE     H18R     HDA3A    0.590000E-01   1.00800           0   0.00000       0.00000    
     14502 MEMB     80       POPE     H18S     HDA3A    0.590000E-01   1.00800           0   0.00000       0.00000    
     14503 MEMB     80       POPE     H18T     HDA3A    0.590000E-01   1.00800           0   0.00000       0.00000    
     14504 MEMB     80       POPE     C33      CD32A     2.07980       11.6110           0  -1.66000       1.30000    
     14505 MEMB     80       POPE     DC33     DRUD     -2.23580      0.400000           0   0.00000       0.00000    
     14506 MEMB     80       POPE     H3X      HDA2A    0.780000E-01   1.00800           0   0.00000       0.00000    
     14507 MEMB     80       POPE     H3Y      HDA2A    0.780000E-01   1.00800           0   0.00000       0.00000    
     14508 MEMB     80       POPE     C34      CD32A     2.07980       11.6110           0  -1.66000       1.30000    
     14509 MEMB     80       POPE     DC34     DRUD     -2.23580      0.400000           0   0.00000       0.00000    
     14510 MEMB     80       POPE     H4X      HDA2A    0.780000E-01   1.00800           0   0.00000       0.00000    
     14511 MEMB     80       POPE     H4Y      HDA2A    0.780000E-01   1.00800           0   0.00000       0.00000    
     14512 MEMB     80       POPE     C35      CD32A     2.07980       11.6110           0  -1.66000       1.30000    
     14513 MEMB     80       POPE     DC35     DRUD     -2.23580      0.400000           0   0.00000       0.00000    
     14514 MEMB     80       POPE     H5X      HDA2A    0.780000E-01   1.00800           0   0.00000       0.00000    
     14515 MEMB     80       POPE     H5Y      HDA2A    0.780000E-01   1.00800           0   0.00000       0.00000    
     14516 MEMB     80       POPE     C36      CD32A     2.07980       11.6110           0  -1.66000       1.30000    
     14517 MEMB     80       POPE     DC36     DRUD     -2.23580      0.400000           0   0.00000       0.00000    
     14518 MEMB     80       POPE     H6X      HDA2A    0.780000E-01   1.00800           0   0.00000       0.00000    
     14519 MEMB     80       POPE     H6Y      HDA2A    0.780000E-01   1.00800           0   0.00000       0.00000    
     14520 MEMB     80       POPE     C37      CD32A     2.07980       11.6110           0  -1.66000       1.30000    
     14521 MEMB     80       POPE     DC37     DRUD     -2.23580      0.400000           0   0.00000       0.00000    
     14522 MEMB     80       POPE     H7X      HDA2A    0.780000E-01   1.00800           0   0.00000       0.00000    
     14523 MEMB     80       POPE     H7Y      HDA2A    0.780000E-01   1.00800           0   0.00000       0.00000    
     14524 MEMB     80       POPE     C38      CD32A     2.07980       11.6110           0  -1.66000       1.30000    
     14525 MEMB     80       POPE     DC38     DRUD     -2.23580      0.400000           0   0.00000       0.00000    
     14526 MEMB     80       POPE     H8X      HDA2A    0.780000E-01   1.00800           0   0.00000       0.00000    
     14527 MEMB     80       POPE     H8Y      HDA2A    0.780000E-01   1.00800           0   0.00000       0.00000    
     14528 MEMB     80       POPE     C39      CD32A     2.07980       11.6110           0  -1.66000       1.30000    
     14529 MEMB     80       POPE     DC39     DRUD     -2.23580      0.400000           0   0.00000       0.00000    
     14530 MEMB     80       POPE     H9X      HDA2A    0.780000E-01   1.00800           0   0.00000       0.00000    
     14531 MEMB     80       POPE     H9Y      HDA2A    0.780000E-01   1.00800           0   0.00000       0.00000    
     14532 MEMB     80       POPE     C310     CD32A     2.07980       11.6110           0  -1.66000       1.30000    
     14533 MEMB     80       POPE     DC310    DRUD     -2.23580      0.400000           0   0.00000       0.00000    
     14534 MEMB     80       POPE     H10X     HDA2A    0.780000E-01   1.00800           0   0.00000       0.00000    
     14535 MEMB     80       POPE     H10Y     HDA2A    0.780000E-01   1.00800           0   0.00000       0.00000    
     14536 MEMB     80       POPE     C311     CD32A     2.07980       11.6110           0  -1.66000       1.30000    
     14537 MEMB     80       POPE     DC311    DRUD     -2.23580      0.400000           0   0.00000       0.00000    
     14538 MEMB     80       POPE     H11X     HDA2A    0.780000E-01   1.00800           0   0.00000       0.00000    
     14539 MEMB     80       POPE     H11Y     HDA2A    0.780000E-01   1.00800           0   0.00000       0.00000    
     14540 MEMB     80       POPE     C312     CD32A     2.07980       11.6110           0  -1.66000       1.30000    
     14541 MEMB     80       POPE     DC312    DRUD     -2.23580      0.400000           0   0.00000       0.00000    
     14542 MEMB     80       POPE     H12X     HDA2A    0.780000E-01   1.00800           0   0.00000       0.00000    
     14543 MEMB     80       POPE     H12Y     HDA2A    0.780000E-01   1.00800           0   0.00000       0.00000    
     14544 MEMB     80       POPE     C313     CD32A     2.07980       11.6110           0  -1.66000       1.30000    
     14545 MEMB     80       POPE     DC313    DRUD     -2.23580      0.400000           0   0.00000       0.00000    
     14546 MEMB     80       POPE     H13X     HDA2A    0.780000E-01   1.00800           0   0.00000       0.00000    
     14547 MEMB     80       POPE     H13Y     HDA2A    0.780000E-01   1.00800           0   0.00000       0.00000    
     14548 MEMB     80       POPE     C314     CD32A     2.07980       11.6110           0  -1.66000       1.30000    
     14549 MEMB     80       POPE     DC314    DRUD     -2.23580      0.400000           0   0.00000       0.00000    
     14550 MEMB     80       POPE     H14X     HDA2A    0.780000E-01   1.00800           0   0.00000       0.00000    
     14551 MEMB     80       POPE     H14Y     HDA2A    0.780000E-01   1.00800           0   0.00000       0.00000    
     14552 MEMB     80       POPE     C315     CD32A     2.07980       11.6110           0  -1.66000       1.30000    
     14553 MEMB     80       POPE     DC315    DRUD     -2.23580      0.400000           0   0.00000       0.00000    
     14554 MEMB     80       POPE     H15X     HDA2A    0.780000E-01   1.00800           0   0.00000       0.00000    
     14555 MEMB     80       POPE     H15Y     HDA2A    0.780000E-01   1.00800           0   0.00000       0.00000    
     14556 MEMB     80       POPE     C316     CD33A     2.30820       11.6110           0  -2.05100       1.30000    
     14557 MEMB     80       POPE     DC316    DRUD     -2.48520      0.400000           0   0.00000       0.00000    
     14558 MEMB     80       POPE     H16X     HDA3A    0.590000E-01   1.00800           0   0.00000       0.00000    
     14559 MEMB     80       POPE     H16Y     HDA3A    0.590000E-01   1.00800           0   0.00000       0.00000    
     14560 MEMB     80       POPE     H16Z     HDA3A    0.590000E-01   1.00800           0   0.00000       0.00000    
     14561 MEMB     81       POPE     N        ND3P3A    1.62810       13.6070           0  -1.29800      0.895000    
     14562 MEMB     81       POPE     DN       DRUD     -1.97710      0.400000           0   0.00000       0.00000    
     14563 MEMB     81       POPE     HN1      HDP1B    0.340000       1.00800           0   0.00000       0.00000    
     14564 MEMB     81       POPE     HN2      HDP1B    0.340000       1.00800           0   0.00000       0.00000    
     14565 MEMB     81       POPE     HN3      HDP1B    0.340000       1.00800           0   0.00000       0.00000    
     14566 MEMB     81       POPE     C12      CD32A     2.27610       11.6110           0  -1.65600      0.895000    
     14567 MEMB     81       POPE     DC12     DRUD     -2.23310      0.400000           0   0.00000       0.00000    
     14568 MEMB     81       POPE     H12A     HDA2A    0.143000       1.00800           0   0.00000       0.00000    
     14569 MEMB     81       POPE     H12B     HDA2A    0.143000       1.00800           0   0.00000       0.00000    
     14570 MEMB     81       POPE     C11      CD32A     2.42220       11.6110           0  -1.64200      0.862000    
     14571 MEMB     81       POPE     DC11     DRUD     -2.22370      0.400000           0   0.00000       0.00000    
     14572 MEMB     81       POPE     H11A     HDA2A    0.260000E-01   1.00800           0   0.00000       0.00000    
     14573 MEMB     81       POPE     H11B     HDA2A    0.260000E-01   1.00800           0   0.00000       0.00000    
     14574 MEMB     81       POPE     P        PD1A      2.90360       30.5740           0 -0.974000       2.09800    
     14575 MEMB     81       POPE     DP       DRUD     -1.71260      0.400000           0   0.00000       0.00000    
     14576 MEMB     81       POPE     O13      OD2C2B   0.798400       15.5994           0 -0.931000       1.08300    
     14577 MEMB     81       POPE     DO13     DRUD     -1.67440      0.400000           0   0.00000       0.00000    
     14578 MEMB     81       POPE     O14      OD2C2B   0.798400       15.5994           0 -0.931000       1.08300    
     14579 MEMB     81       POPE     DO14     DRUD     -1.67440      0.400000           0   0.00000       0.00000    
     14580 MEMB     81       POPE     O11      OD30B     1.17720       15.5994           0 -0.901000      0.181000    
     14581 MEMB     81       POPE     DO11     DRUD     -1.64720      0.400000           0   0.00000       0.00000    
     14582 MEMB     81       POPE     O12      OD30B     1.17720       15.5994           0 -0.901000      0.181000    
     14583 MEMB     81       POPE     DO12     DRUD     -1.64720      0.400000           0   0.00000       0.00000    
     14584 MEMB     81       POPE     C1       CD32A     2.42220       11.6110           0  -1.64200      0.862000    
     14585 MEMB     81       POPE     DC1      DRUD     -2.22370      0.400000           0   0.00000       0.00000    
     14586 MEMB     81       POPE     HA       HDA2A    0.260000E-01   1.00800           0   0.00000       0.00000    
     14587 MEMB     81       POPE     HB       HDA2A    0.260000E-01   1.00800           0   0.00000       0.00000    
     14588 MEMB     81       POPE     C2       CD31C     2.52830       11.6110           0  -1.79700      0.410000    
     14589 MEMB     81       POPE     DC2      DRUD     -2.32630      0.400000           0   0.00000       0.00000    
     14590 MEMB     81       POPE     HS       HDA1A    0.116000       1.00800           0   0.00000       0.00000    
     14591 MEMB     81       POPE     O21      OD30CL    1.48470       15.5994           0 -0.732000      0.601000    
     14592 MEMB     81       POPE     DO21     DRUD     -1.48470      0.400000           0   0.00000       0.00000    
     14593 MEMB     81       POPE     C21      CD2O3B    2.72820       11.6110           0  -1.37000       1.74700    
     14594 MEMB     81       POPE     DC21     DRUD     -2.03120      0.400000           0   0.00000       0.00000    
     14595 MEMB     81       POPE     O22      OD2C3B    1.64990       15.5994           0 -0.904000      0.565000    
     14596 MEMB     81       POPE     DO22     DRUD     -1.64990      0.400000           0   0.00000       0.00000    
     14597 MEMB     81       POPE     C22      CD32C     2.24380       11.6110           0  -1.99300      0.410000    
     14598 MEMB     81       POPE     DC22     DRUD     -2.44980      0.400000           0   0.00000       0.00000    
     14599 MEMB     81       POPE     H2R      HDA2A    0.690000E-01   1.00800           0   0.00000       0.00000    
     14600 MEMB     81       POPE     H2S      HDA2A    0.690000E-01   1.00800           0   0.00000       0.00000    
     14601 MEMB     81       POPE     LP1A     LPD     -0.349000       0.00000          -1   0.00000       0.00000    
     14602 MEMB     81       POPE     LP1B     LPD     -0.258000       0.00000          -1   0.00000       0.00000    
     14603 MEMB     81       POPE     LPMA     LPD     -0.170000       0.00000          -1   0.00000       0.00000    
     14604 MEMB     81       POPE     LPMB     LPD     -0.170000       0.00000          -1   0.00000       0.00000    
     14605 MEMB     81       POPE     C3       CD32C     2.41230       11.6110           0  -1.79700      0.410000    
     14606 MEMB     81       POPE     DC3      DRUD     -2.32630      0.400000           0   0.00000       0.00000    
     14607 MEMB     81       POPE     HX       HDA2A    0.116000       1.00800           0   0.00000       0.00000    
     14608 MEMB     81       POPE     HY       HDA2A    0.116000       1.00800           0   0.00000       0.00000    
     14609 MEMB     81       POPE     O31      OD30CL    1.48470       15.5994           0 -0.732000      0.601000    
     14610 MEMB     81       POPE     DO31     DRUD     -1.48470      0.400000           0   0.00000       0.00000    
     14611 MEMB     81       POPE     C31      CD2O3B    2.72820       11.6110           0  -1.37000       1.74700    
     14612 MEMB     81       POPE     DC31     DRUD     -2.03120      0.400000           0   0.00000       0.00000    
     14613 MEMB     81       POPE     O32      OD2C3B    1.64990       15.5994           0 -0.904000      0.565000    
     14614 MEMB     81       POPE     DO32     DRUD     -1.64990      0.400000           0   0.00000       0.00000    
     14615 MEMB     81       POPE     C32      CD32C     2.24380       11.6110           0  -1.99300      0.410000    
     14616 MEMB     81       POPE     DC32     DRUD     -2.44980      0.400000           0   0.00000       0.00000    
     14617 MEMB     81       POPE     H2X      HDA2A    0.690000E-01   1.00800           0   0.00000       0.00000    
     14618 MEMB     81       POPE     H2Y      HDA2A    0.690000E-01   1.00800           0   0.00000       0.00000    
     14619 MEMB     81       POPE     LP1C     LPD     -0.349000       0.00000          -1   0.00000       0.00000    
     14620 MEMB     81       POPE     LP1D     LPD     -0.258000       0.00000          -1   0.00000       0.00000    
     14621 MEMB     81       POPE     LPMC     LPD     -0.170000       0.00000          -1   0.00000       0.00000    
     14622 MEMB     81       POPE     LPMD     LPD     -0.170000       0.00000          -1   0.00000       0.00000    
     14623 MEMB     81       POPE     C23      CD32A     2.07980       11.6110           0  -1.66000       1.30000    
     14624 MEMB     81       POPE     DC23     DRUD     -2.23580      0.400000           0   0.00000       0.00000    
     14625 MEMB     81       POPE     H3R      HDA2A    0.780000E-01   1.00800           0   0.00000       0.00000    
     14626 MEMB     81       POPE     H3S      HDA2A    0.780000E-01   1.00800           0   0.00000       0.00000    
     14627 MEMB     81       POPE     C24      CD32A     2.07980       11.6110           0  -1.66000       1.30000    
     14628 MEMB     81       POPE     DC24     DRUD     -2.23580      0.400000           0   0.00000       0.00000    
     14629 MEMB     81       POPE     H4R      HDA2A    0.780000E-01   1.00800           0   0.00000       0.00000    
     14630 MEMB     81       POPE     H4S      HDA2A    0.780000E-01   1.00800           0   0.00000       0.00000    
     14631 MEMB     81       POPE     C25      CD32A     2.07980       11.6110           0  -1.66000       1.30000    
     14632 MEMB     81       POPE     DC25     DRUD     -2.23580      0.400000           0   0.00000       0.00000    
     14633 MEMB     81       POPE     H5R      HDA2A    0.780000E-01   1.00800           0   0.00000       0.00000    
     14634 MEMB     81       POPE     H5S      HDA2A    0.780000E-01   1.00800           0   0.00000       0.00000    
     14635 MEMB     81       POPE     C26      CD32A     2.07980       11.6110           0  -1.66000       1.30000    
     14636 MEMB     81       POPE     DC26     DRUD     -2.23580      0.400000           0   0.00000       0.00000    
     14637 MEMB     81       POPE     H6R      HDA2A    0.780000E-01   1.00800           0   0.00000       0.00000    
     14638 MEMB     81       POPE     H6S      HDA2A    0.780000E-01   1.00800           0   0.00000       0.00000    
     14639 MEMB     81       POPE     C27      CD32A     2.07980       11.6110           0  -1.66000       1.30000    
     14640 MEMB     81       POPE     DC27     DRUD     -2.23580      0.400000           0   0.00000       0.00000    
     14641 MEMB     81       POPE     H7R      HDA2A    0.780000E-01   1.00800           0   0.00000       0.00000    
     14642 MEMB     81       POPE     H7S      HDA2A    0.780000E-01   1.00800           0   0.00000       0.00000    
     14643 MEMB     81       POPE     C28      CD32A     2.07980       11.6110           0  -1.66000       1.30000    
     14644 MEMB     81       POPE     DC28     DRUD     -2.23580      0.400000           0   0.00000       0.00000    
     14645 MEMB     81       POPE     H8R      HDA2A    0.780000E-01   1.00800           0   0.00000       0.00000    
     14646 MEMB     81       POPE     H8S      HDA2A    0.780000E-01   1.00800           0   0.00000       0.00000    
     14647 MEMB     81       POPE     C29      CD2C1A    2.33700       11.6110           0  -1.99000      0.750000    
     14648 MEMB     81       POPE     DC29     DRUD     -2.44800      0.400000           0   0.00000       0.00000    
     14649 MEMB     81       POPE     H91      HD2C1A   0.111000       1.00800           0   0.00000       0.00000    
     14650 MEMB     81       POPE     C210     CD2C1A    2.33700       11.6110           0  -1.99000      0.750000    
     14651 MEMB     81       POPE     DC210    DRUD     -2.44800      0.400000           0   0.00000       0.00000    
     14652 MEMB     81       POPE     H101     HD2C1A   0.111000       1.00800           0   0.00000       0.00000    
     14653 MEMB     81       POPE     C211     CD32A     2.07980       11.6110           0  -1.66000       1.30000    
     14654 MEMB     81       POPE     DC211    DRUD     -2.23580      0.400000           0   0.00000       0.00000    
     14655 MEMB     81       POPE     H11R     HDA2A    0.780000E-01   1.00800           0   0.00000       0.00000    
     14656 MEMB     81       POPE     H11S     HDA2A    0.780000E-01   1.00800           0   0.00000       0.00000    
     14657 MEMB     81       POPE     C212     CD32A     2.07980       11.6110           0  -1.66000       1.30000    
     14658 MEMB     81       POPE     DC212    DRUD     -2.23580      0.400000           0   0.00000       0.00000    
     14659 MEMB     81       POPE     H12R     HDA2A    0.780000E-01   1.00800           0   0.00000       0.00000    
     14660 MEMB     81       POPE     H12S     HDA2A    0.780000E-01   1.00800           0   0.00000       0.00000    
     14661 MEMB     81       POPE     C213     CD32A     2.07980       11.6110           0  -1.66000       1.30000    
     14662 MEMB     81       POPE     DC213    DRUD     -2.23580      0.400000           0   0.00000       0.00000    
     14663 MEMB     81       POPE     H13R     HDA2A    0.780000E-01   1.00800           0   0.00000       0.00000    
     14664 MEMB     81       POPE     H13S     HDA2A    0.780000E-01   1.00800           0   0.00000       0.00000    
     14665 MEMB     81       POPE     C214     CD32A     2.07980       11.6110           0  -1.66000       1.30000    
     14666 MEMB     81       POPE     DC214    DRUD     -2.23580      0.400000           0   0.00000       0.00000    
     14667 MEMB     81       POPE     H14R     HDA2A    0.780000E-01   1.00800           0   0.00000       0.00000    
     14668 MEMB     81       POPE     H14S     HDA2A    0.780000E-01   1.00800           0   0.00000       0.00000    
     14669 MEMB     81       POPE     C215     CD32A     2.07980       11.6110           0  -1.66000       1.30000    
     14670 MEMB     81       POPE     DC215    DRUD     -2.23580      0.400000           0   0.00000       0.00000    
     14671 MEMB     81       POPE     H15R     HDA2A    0.780000E-01   1.00800           0   0.00000       0.00000    
     14672 MEMB     81       POPE     H15S     HDA2A    0.780000E-01   1.00800           0   0.00000       0.00000    
     14673 MEMB     81       POPE     C216     CD32A     2.07980       11.6110           0  -1.66000       1.30000    
     14674 MEMB     81       POPE     DC216    DRUD     -2.23580      0.400000           0   0.00000       0.00000    
     14675 MEMB     81       POPE     H16R     HDA2A    0.780000E-01   1.00800           0   0.00000       0.00000    
     14676 MEMB     81       POPE     H16S     HDA2A    0.780000E-01   1.00800           0   0.00000       0.00000    
     14677 MEMB     81       POPE     C217     CD32A     2.07980       11.6110           0  -1.66000       1.30000    
     14678 MEMB     81       POPE     DC217    DRUD     -2.23580      0.400000           0   0.00000       0.00000    
     14679 MEMB     81       POPE     H17R     HDA2A    0.780000E-01   1.00800           0   0.00000       0.00000    
     14680 MEMB     81       POPE     H17S     HDA2A    0.780000E-01   1.00800           0   0.00000       0.00000    
     14681 MEMB     81       POPE     C218     CD33A     2.30820       11.6110           0  -2.05100       1.30000    
     14682 MEMB     81       POPE     DC218    DRUD     -2.48520      0.400000           0   0.00000       0.00000    
     14683 MEMB     81       POPE     H18R     HDA3A    0.590000E-01   1.00800           0   0.00000       0.00000    
     14684 MEMB     81       POPE     H18S     HDA3A    0.590000E-01   1.00800           0   0.00000       0.00000    
     14685 MEMB     81       POPE     H18T     HDA3A    0.590000E-01   1.00800           0   0.00000       0.00000    
     14686 MEMB     81       POPE     C33      CD32A     2.07980       11.6110           0  -1.66000       1.30000    
     14687 MEMB     81       POPE     DC33     DRUD     -2.23580      0.400000           0   0.00000       0.00000    
     14688 MEMB     81       POPE     H3X      HDA2A    0.780000E-01   1.00800           0   0.00000       0.00000    
     14689 MEMB     81       POPE     H3Y      HDA2A    0.780000E-01   1.00800           0   0.00000       0.00000    
     14690 MEMB     81       POPE     C34      CD32A     2.07980       11.6110           0  -1.66000       1.30000    
     14691 MEMB     81       POPE     DC34     DRUD     -2.23580      0.400000           0   0.00000       0.00000    
     14692 MEMB     81       POPE     H4X      HDA2A    0.780000E-01   1.00800           0   0.00000       0.00000    
     14693 MEMB     81       POPE     H4Y      HDA2A    0.780000E-01   1.00800           0   0.00000       0.00000    
     14694 MEMB     81       POPE     C35      CD32A     2.07980       11.6110           0  -1.66000       1.30000    
     14695 MEMB     81       POPE     DC35     DRUD     -2.23580      0.400000           0   0.00000       0.00000    
     14696 MEMB     81       POPE     H5X      HDA2A    0.780000E-01   1.00800           0   0.00000       0.00000    
     14697 MEMB     81       POPE     H5Y      HDA2A    0.780000E-01   1.00800           0   0.00000       0.00000    
     14698 MEMB     81       POPE     C36      CD32A     2.07980       11.6110           0  -1.66000       1.30000    
     14699 MEMB     81       POPE     DC36     DRUD     -2.23580      0.400000           0   0.00000       0.00000    
     14700 MEMB     81       POPE     H6X      HDA2A    0.780000E-01   1.00800           0   0.00000       0.00000    
     14701 MEMB     81       POPE     H6Y      HDA2A    0.780000E-01   1.00800           0   0.00000       0.00000    
     14702 MEMB     81       POPE     C37      CD32A     2.07980       11.6110           0  -1.66000       1.30000    
     14703 MEMB     81       POPE     DC37     DRUD     -2.23580      0.400000           0   0.00000       0.00000    
     14704 MEMB     81       POPE     H7X      HDA2A    0.780000E-01   1.00800           0   0.00000       0.00000    
     14705 MEMB     81       POPE     H7Y      HDA2A    0.780000E-01   1.00800           0   0.00000       0.00000    
     14706 MEMB     81       POPE     C38      CD32A     2.07980       11.6110           0  -1.66000       1.30000    
     14707 MEMB     81       POPE     DC38     DRUD     -2.23580      0.400000           0   0.00000       0.00000    
     14708 MEMB     81       POPE     H8X      HDA2A    0.780000E-01   1.00800           0   0.00000       0.00000    
     14709 MEMB     81       POPE     H8Y      HDA2A    0.780000E-01   1.00800           0   0.00000       0.00000    
     14710 MEMB     81       POPE     C39      CD32A     2.07980       11.6110           0  -1.66000       1.30000    
     14711 MEMB     81       POPE     DC39     DRUD     -2.23580      0.400000           0   0.00000       0.00000    
     14712 MEMB     81       POPE     H9X      HDA2A    0.780000E-01   1.00800           0   0.00000       0.00000    
     14713 MEMB     81       POPE     H9Y      HDA2A    0.780000E-01   1.00800           0   0.00000       0.00000    
     14714 MEMB     81       POPE     C310     CD32A     2.07980       11.6110           0  -1.66000       1.30000    
     14715 MEMB     81       POPE     DC310    DRUD     -2.23580      0.400000           0   0.00000       0.00000    
     14716 MEMB     81       POPE     H10X     HDA2A    0.780000E-01   1.00800           0   0.00000       0.00000    
     14717 MEMB     81       POPE     H10Y     HDA2A    0.780000E-01   1.00800           0   0.00000       0.00000    
     14718 MEMB     81       POPE     C311     CD32A     2.07980       11.6110           0  -1.66000       1.30000    
     14719 MEMB     81       POPE     DC311    DRUD     -2.23580      0.400000           0   0.00000       0.00000    
     14720 MEMB     81       POPE     H11X     HDA2A    0.780000E-01   1.00800           0   0.00000       0.00000    
     14721 MEMB     81       POPE     H11Y     HDA2A    0.780000E-01   1.00800           0   0.00000       0.00000    
     14722 MEMB     81       POPE     C312     CD32A     2.07980       11.6110           0  -1.66000       1.30000    
     14723 MEMB     81       POPE     DC312    DRUD     -2.23580      0.400000           0   0.00000       0.00000    
     14724 MEMB     81       POPE     H12X     HDA2A    0.780000E-01   1.00800           0   0.00000       0.00000    
     14725 MEMB     81       POPE     H12Y     HDA2A    0.780000E-01   1.00800           0   0.00000       0.00000    
     14726 MEMB     81       POPE     C313     CD32A     2.07980       11.6110           0  -1.66000       1.30000    
     14727 MEMB     81       POPE     DC313    DRUD     -2.23580      0.400000           0   0.00000       0.00000    
     14728 MEMB     81       POPE     H13X     HDA2A    0.780000E-01   1.00800           0   0.00000       0.00000    
     14729 MEMB     81       POPE     H13Y     HDA2A    0.780000E-01   1.00800           0   0.00000       0.00000    
     14730 MEMB     81       POPE     C314     CD32A     2.07980       11.6110           0  -1.66000       1.30000    
     14731 MEMB     81       POPE     DC314    DRUD     -2.23580      0.400000           0   0.00000       0.00000    
     14732 MEMB     81       POPE     H14X     HDA2A    0.780000E-01   1.00800           0   0.00000       0.00000    
     14733 MEMB     81       POPE     H14Y     HDA2A    0.780000E-01   1.00800           0   0.00000       0.00000    
     14734 MEMB     81       POPE     C315     CD32A     2.07980       11.6110           0  -1.66000       1.30000    
     14735 MEMB     81       POPE     DC315    DRUD     -2.23580      0.400000           0   0.00000       0.00000    
     14736 MEMB     81       POPE     H15X     HDA2A    0.780000E-01   1.00800           0   0.00000       0.00000    
     14737 MEMB     81       POPE     H15Y     HDA2A    0.780000E-01   1.00800           0   0.00000       0.00000    
     14738 MEMB     81       POPE     C316     CD33A     2.30820       11.6110           0  -2.05100       1.30000    
     14739 MEMB     81       POPE     DC316    DRUD     -2.48520      0.400000           0   0.00000       0.00000    
     14740 MEMB     81       POPE     H16X     HDA3A    0.590000E-01   1.00800           0   0.00000       0.00000    
     14741 MEMB     81       POPE     H16Y     HDA3A    0.590000E-01   1.00800           0   0.00000       0.00000    
     14742 MEMB     81       POPE     H16Z     HDA3A    0.590000E-01   1.00800           0   0.00000       0.00000    
     14743 MEMB     82       POPE     N        ND3P3A    1.62810       13.6070           0  -1.29800      0.895000    
     14744 MEMB     82       POPE     DN       DRUD     -1.97710      0.400000           0   0.00000       0.00000    
     14745 MEMB     82       POPE     HN1      HDP1B    0.340000       1.00800           0   0.00000       0.00000    
     14746 MEMB     82       POPE     HN2      HDP1B    0.340000       1.00800           0   0.00000       0.00000    
     14747 MEMB     82       POPE     HN3      HDP1B    0.340000       1.00800           0   0.00000       0.00000    
     14748 MEMB     82       POPE     C12      CD32A     2.27610       11.6110           0  -1.65600      0.895000    
     14749 MEMB     82       POPE     DC12     DRUD     -2.23310      0.400000           0   0.00000       0.00000    
     14750 MEMB     82       POPE     H12A     HDA2A    0.143000       1.00800           0   0.00000       0.00000    
     14751 MEMB     82       POPE     H12B     HDA2A    0.143000       1.00800           0   0.00000       0.00000    
     14752 MEMB     82       POPE     C11      CD32A     2.42220       11.6110           0  -1.64200      0.862000    
     14753 MEMB     82       POPE     DC11     DRUD     -2.22370      0.400000           0   0.00000       0.00000    
     14754 MEMB     82       POPE     H11A     HDA2A    0.260000E-01   1.00800           0   0.00000       0.00000    
     14755 MEMB     82       POPE     H11B     HDA2A    0.260000E-01   1.00800           0   0.00000       0.00000    
     14756 MEMB     82       POPE     P        PD1A      2.90360       30.5740           0 -0.974000       2.09800    
     14757 MEMB     82       POPE     DP       DRUD     -1.71260      0.400000           0   0.00000       0.00000    
     14758 MEMB     82       POPE     O13      OD2C2B   0.798400       15.5994           0 -0.931000       1.08300    
     14759 MEMB     82       POPE     DO13     DRUD     -1.67440      0.400000           0   0.00000       0.00000    
     14760 MEMB     82       POPE     O14      OD2C2B   0.798400       15.5994           0 -0.931000       1.08300    
     14761 MEMB     82       POPE     DO14     DRUD     -1.67440      0.400000           0   0.00000       0.00000    
     14762 MEMB     82       POPE     O11      OD30B     1.17720       15.5994           0 -0.901000      0.181000    
     14763 MEMB     82       POPE     DO11     DRUD     -1.64720      0.400000           0   0.00000       0.00000    
     14764 MEMB     82       POPE     O12      OD30B     1.17720       15.5994           0 -0.901000      0.181000    
     14765 MEMB     82       POPE     DO12     DRUD     -1.64720      0.400000           0   0.00000       0.00000    
     14766 MEMB     82       POPE     C1       CD32A     2.42220       11.6110           0  -1.64200      0.862000    
     14767 MEMB     82       POPE     DC1      DRUD     -2.22370      0.400000           0   0.00000       0.00000    
     14768 MEMB     82       POPE     HA       HDA2A    0.260000E-01   1.00800           0   0.00000       0.00000    
     14769 MEMB     82       POPE     HB       HDA2A    0.260000E-01   1.00800           0   0.00000       0.00000    
     14770 MEMB     82       POPE     C2       CD31C     2.52830       11.6110           0  -1.79700      0.410000    
     14771 MEMB     82       POPE     DC2      DRUD     -2.32630      0.400000           0   0.00000       0.00000    
     14772 MEMB     82       POPE     HS       HDA1A    0.116000       1.00800           0   0.00000       0.00000    
     14773 MEMB     82       POPE     O21      OD30CL    1.48470       15.5994           0 -0.732000      0.601000    
     14774 MEMB     82       POPE     DO21     DRUD     -1.48470      0.400000           0   0.00000       0.00000    
     14775 MEMB     82       POPE     C21      CD2O3B    2.72820       11.6110           0  -1.37000       1.74700    
     14776 MEMB     82       POPE     DC21     DRUD     -2.03120      0.400000           0   0.00000       0.00000    
     14777 MEMB     82       POPE     O22      OD2C3B    1.64990       15.5994           0 -0.904000      0.565000    
     14778 MEMB     82       POPE     DO22     DRUD     -1.64990      0.400000           0   0.00000       0.00000    
     14779 MEMB     82       POPE     C22      CD32C     2.24380       11.6110           0  -1.99300      0.410000    
     14780 MEMB     82       POPE     DC22     DRUD     -2.44980      0.400000           0   0.00000       0.00000    
     14781 MEMB     82       POPE     H2R      HDA2A    0.690000E-01   1.00800           0   0.00000       0.00000    
     14782 MEMB     82       POPE     H2S      HDA2A    0.690000E-01   1.00800           0   0.00000       0.00000    
     14783 MEMB     82       POPE     LP1A     LPD     -0.349000       0.00000          -1   0.00000       0.00000    
     14784 MEMB     82       POPE     LP1B     LPD     -0.258000       0.00000          -1   0.00000       0.00000    
     14785 MEMB     82       POPE     LPMA     LPD     -0.170000       0.00000          -1   0.00000       0.00000    
     14786 MEMB     82       POPE     LPMB     LPD     -0.170000       0.00000          -1   0.00000       0.00000    
     14787 MEMB     82       POPE     C3       CD32C     2.41230       11.6110           0  -1.79700      0.410000    
     14788 MEMB     82       POPE     DC3      DRUD     -2.32630      0.400000           0   0.00000       0.00000    
     14789 MEMB     82       POPE     HX       HDA2A    0.116000       1.00800           0   0.00000       0.00000    
     14790 MEMB     82       POPE     HY       HDA2A    0.116000       1.00800           0   0.00000       0.00000    
     14791 MEMB     82       POPE     O31      OD30CL    1.48470       15.5994           0 -0.732000      0.601000    
     14792 MEMB     82       POPE     DO31     DRUD     -1.48470      0.400000           0   0.00000       0.00000    
     14793 MEMB     82       POPE     C31      CD2O3B    2.72820       11.6110           0  -1.37000       1.74700    
     14794 MEMB     82       POPE     DC31     DRUD     -2.03120      0.400000           0   0.00000       0.00000    
     14795 MEMB     82       POPE     O32      OD2C3B    1.64990       15.5994           0 -0.904000      0.565000    
     14796 MEMB     82       POPE     DO32     DRUD     -1.64990      0.400000           0   0.00000       0.00000    
     14797 MEMB     82       POPE     C32      CD32C     2.24380       11.6110           0  -1.99300      0.410000    
     14798 MEMB     82       POPE     DC32     DRUD     -2.44980      0.400000           0   0.00000       0.00000    
     14799 MEMB     82       POPE     H2X      HDA2A    0.690000E-01   1.00800           0   0.00000       0.00000    
     14800 MEMB     82       POPE     H2Y      HDA2A    0.690000E-01   1.00800           0   0.00000       0.00000    
     14801 MEMB     82       POPE     LP1C     LPD     -0.349000       0.00000          -1   0.00000       0.00000    
     14802 MEMB     82       POPE     LP1D     LPD     -0.258000       0.00000          -1   0.00000       0.00000    
     14803 MEMB     82       POPE     LPMC     LPD     -0.170000       0.00000          -1   0.00000       0.00000    
     14804 MEMB     82       POPE     LPMD     LPD     -0.170000       0.00000          -1   0.00000       0.00000    
     14805 MEMB     82       POPE     C23      CD32A     2.07980       11.6110           0  -1.66000       1.30000    
     14806 MEMB     82       POPE     DC23     DRUD     -2.23580      0.400000           0   0.00000       0.00000    
     14807 MEMB     82       POPE     H3R      HDA2A    0.780000E-01   1.00800           0   0.00000       0.00000    
     14808 MEMB     82       POPE     H3S      HDA2A    0.780000E-01   1.00800           0   0.00000       0.00000    
     14809 MEMB     82       POPE     C24      CD32A     2.07980       11.6110           0  -1.66000       1.30000    
     14810 MEMB     82       POPE     DC24     DRUD     -2.23580      0.400000           0   0.00000       0.00000    
     14811 MEMB     82       POPE     H4R      HDA2A    0.780000E-01   1.00800           0   0.00000       0.00000    
     14812 MEMB     82       POPE     H4S      HDA2A    0.780000E-01   1.00800           0   0.00000       0.00000    
     14813 MEMB     82       POPE     C25      CD32A     2.07980       11.6110           0  -1.66000       1.30000    
     14814 MEMB     82       POPE     DC25     DRUD     -2.23580      0.400000           0   0.00000       0.00000    
     14815 MEMB     82       POPE     H5R      HDA2A    0.780000E-01   1.00800           0   0.00000       0.00000    
     14816 MEMB     82       POPE     H5S      HDA2A    0.780000E-01   1.00800           0   0.00000       0.00000    
     14817 MEMB     82       POPE     C26      CD32A     2.07980       11.6110           0  -1.66000       1.30000    
     14818 MEMB     82       POPE     DC26     DRUD     -2.23580      0.400000           0   0.00000       0.00000    
     14819 MEMB     82       POPE     H6R      HDA2A    0.780000E-01   1.00800           0   0.00000       0.00000    
     14820 MEMB     82       POPE     H6S      HDA2A    0.780000E-01   1.00800           0   0.00000       0.00000    
     14821 MEMB     82       POPE     C27      CD32A     2.07980       11.6110           0  -1.66000       1.30000    
     14822 MEMB     82       POPE     DC27     DRUD     -2.23580      0.400000           0   0.00000       0.00000    
     14823 MEMB     82       POPE     H7R      HDA2A    0.780000E-01   1.00800           0   0.00000       0.00000    
     14824 MEMB     82       POPE     H7S      HDA2A    0.780000E-01   1.00800           0   0.00000       0.00000    
     14825 MEMB     82       POPE     C28      CD32A     2.07980       11.6110           0  -1.66000       1.30000    
     14826 MEMB     82       POPE     DC28     DRUD     -2.23580      0.400000           0   0.00000       0.00000    
     14827 MEMB     82       POPE     H8R      HDA2A    0.780000E-01   1.00800           0   0.00000       0.00000    
     14828 MEMB     82       POPE     H8S      HDA2A    0.780000E-01   1.00800           0   0.00000       0.00000    
     14829 MEMB     82       POPE     C29      CD2C1A    2.33700       11.6110           0  -1.99000      0.750000    
     14830 MEMB     82       POPE     DC29     DRUD     -2.44800      0.400000           0   0.00000       0.00000    
     14831 MEMB     82       POPE     H91      HD2C1A   0.111000       1.00800           0   0.00000       0.00000    
     14832 MEMB     82       POPE     C210     CD2C1A    2.33700       11.6110           0  -1.99000      0.750000    
     14833 MEMB     82       POPE     DC210    DRUD     -2.44800      0.400000           0   0.00000       0.00000    
     14834 MEMB     82       POPE     H101     HD2C1A   0.111000       1.00800           0   0.00000       0.00000    
     14835 MEMB     82       POPE     C211     CD32A     2.07980       11.6110           0  -1.66000       1.30000    
     14836 MEMB     82       POPE     DC211    DRUD     -2.23580      0.400000           0   0.00000       0.00000    
     14837 MEMB     82       POPE     H11R     HDA2A    0.780000E-01   1.00800           0   0.00000       0.00000    
     14838 MEMB     82       POPE     H11S     HDA2A    0.780000E-01   1.00800           0   0.00000       0.00000    
     14839 MEMB     82       POPE     C212     CD32A     2.07980       11.6110           0  -1.66000       1.30000    
     14840 MEMB     82       POPE     DC212    DRUD     -2.23580      0.400000           0   0.00000       0.00000    
     14841 MEMB     82       POPE     H12R     HDA2A    0.780000E-01   1.00800           0   0.00000       0.00000    
     14842 MEMB     82       POPE     H12S     HDA2A    0.780000E-01   1.00800           0   0.00000       0.00000    
     14843 MEMB     82       POPE     C213     CD32A     2.07980       11.6110           0  -1.66000       1.30000    
     14844 MEMB     82       POPE     DC213    DRUD     -2.23580      0.400000           0   0.00000       0.00000    
     14845 MEMB     82       POPE     H13R     HDA2A    0.780000E-01   1.00800           0   0.00000       0.00000    
     14846 MEMB     82       POPE     H13S     HDA2A    0.780000E-01   1.00800           0   0.00000       0.00000    
     14847 MEMB     82       POPE     C214     CD32A     2.07980       11.6110           0  -1.66000       1.30000    
     14848 MEMB     82       POPE     DC214    DRUD     -2.23580      0.400000           0   0.00000       0.00000    
     14849 MEMB     82       POPE     H14R     HDA2A    0.780000E-01   1.00800           0   0.00000       0.00000    
     14850 MEMB     82       POPE     H14S     HDA2A    0.780000E-01   1.00800           0   0.00000       0.00000    
     14851 MEMB     82       POPE     C215     CD32A     2.07980       11.6110           0  -1.66000       1.30000    
     14852 MEMB     82       POPE     DC215    DRUD     -2.23580      0.400000           0   0.00000       0.00000    
     14853 MEMB     82       POPE     H15R     HDA2A    0.780000E-01   1.00800           0   0.00000       0.00000    
     14854 MEMB     82       POPE     H15S     HDA2A    0.780000E-01   1.00800           0   0.00000       0.00000    
     14855 MEMB     82       POPE     C216     CD32A     2.07980       11.6110           0  -1.66000       1.30000    
     14856 MEMB     82       POPE     DC216    DRUD     -2.23580      0.400000           0   0.00000       0.00000    
     14857 MEMB     82       POPE     H16R     HDA2A    0.780000E-01   1.00800           0   0.00000       0.00000    
     14858 MEMB     82       POPE     H16S     HDA2A    0.780000E-01   1.00800           0   0.00000       0.00000    
     14859 MEMB     82       POPE     C217     CD32A     2.07980       11.6110           0  -1.66000       1.30000    
     14860 MEMB     82       POPE     DC217    DRUD     -2.23580      0.400000           0   0.00000       0.00000    
     14861 MEMB     82       POPE     H17R     HDA2A    0.780000E-01   1.00800           0   0.00000       0.00000    
     14862 MEMB     82       POPE     H17S     HDA2A    0.780000E-01   1.00800           0   0.00000       0.00000    
     14863 MEMB     82       POPE     C218     CD33A     2.30820       11.6110           0  -2.05100       1.30000    
     14864 MEMB     82       POPE     DC218    DRUD     -2.48520      0.400000           0   0.00000       0.00000    
     14865 MEMB     82       POPE     H18R     HDA3A    0.590000E-01   1.00800           0   0.00000       0.00000    
     14866 MEMB     82       POPE     H18S     HDA3A    0.590000E-01   1.00800           0   0.00000       0.00000    
     14867 MEMB     82       POPE     H18T     HDA3A    0.590000E-01   1.00800           0   0.00000       0.00000    
     14868 MEMB     82       POPE     C33      CD32A     2.07980       11.6110           0  -1.66000       1.30000    
     14869 MEMB     82       POPE     DC33     DRUD     -2.23580      0.400000           0   0.00000       0.00000    
     14870 MEMB     82       POPE     H3X      HDA2A    0.780000E-01   1.00800           0   0.00000       0.00000    
     14871 MEMB     82       POPE     H3Y      HDA2A    0.780000E-01   1.00800           0   0.00000       0.00000    
     14872 MEMB     82       POPE     C34      CD32A     2.07980       11.6110           0  -1.66000       1.30000    
     14873 MEMB     82       POPE     DC34     DRUD     -2.23580      0.400000           0   0.00000       0.00000    
     14874 MEMB     82       POPE     H4X      HDA2A    0.780000E-01   1.00800           0   0.00000       0.00000    
     14875 MEMB     82       POPE     H4Y      HDA2A    0.780000E-01   1.00800           0   0.00000       0.00000    
     14876 MEMB     82       POPE     C35      CD32A     2.07980       11.6110           0  -1.66000       1.30000    
     14877 MEMB     82       POPE     DC35     DRUD     -2.23580      0.400000           0   0.00000       0.00000    
     14878 MEMB     82       POPE     H5X      HDA2A    0.780000E-01   1.00800           0   0.00000       0.00000    
     14879 MEMB     82       POPE     H5Y      HDA2A    0.780000E-01   1.00800           0   0.00000       0.00000    
     14880 MEMB     82       POPE     C36      CD32A     2.07980       11.6110           0  -1.66000       1.30000    
     14881 MEMB     82       POPE     DC36     DRUD     -2.23580      0.400000           0   0.00000       0.00000    
     14882 MEMB     82       POPE     H6X      HDA2A    0.780000E-01   1.00800           0   0.00000       0.00000    
     14883 MEMB     82       POPE     H6Y      HDA2A    0.780000E-01   1.00800           0   0.00000       0.00000    
     14884 MEMB     82       POPE     C37      CD32A     2.07980       11.6110           0  -1.66000       1.30000    
     14885 MEMB     82       POPE     DC37     DRUD     -2.23580      0.400000           0   0.00000       0.00000    
     14886 MEMB     82       POPE     H7X      HDA2A    0.780000E-01   1.00800           0   0.00000       0.00000    
     14887 MEMB     82       POPE     H7Y      HDA2A    0.780000E-01   1.00800           0   0.00000       0.00000    
     14888 MEMB     82       POPE     C38      CD32A     2.07980       11.6110           0  -1.66000       1.30000    
     14889 MEMB     82       POPE     DC38     DRUD     -2.23580      0.400000           0   0.00000       0.00000    
     14890 MEMB     82       POPE     H8X      HDA2A    0.780000E-01   1.00800           0   0.00000       0.00000    
     14891 MEMB     82       POPE     H8Y      HDA2A    0.780000E-01   1.00800           0   0.00000       0.00000    
     14892 MEMB     82       POPE     C39      CD32A     2.07980       11.6110           0  -1.66000       1.30000    
     14893 MEMB     82       POPE     DC39     DRUD     -2.23580      0.400000           0   0.00000       0.00000    
     14894 MEMB     82       POPE     H9X      HDA2A    0.780000E-01   1.00800           0   0.00000       0.00000    
     14895 MEMB     82       POPE     H9Y      HDA2A    0.780000E-01   1.00800           0   0.00000       0.00000    
     14896 MEMB     82       POPE     C310     CD32A     2.07980       11.6110           0  -1.66000       1.30000    
     14897 MEMB     82       POPE     DC310    DRUD     -2.23580      0.400000           0   0.00000       0.00000    
     14898 MEMB     82       POPE     H10X     HDA2A    0.780000E-01   1.00800           0   0.00000       0.00000    
     14899 MEMB     82       POPE     H10Y     HDA2A    0.780000E-01   1.00800           0   0.00000       0.00000    
     14900 MEMB     82       POPE     C311     CD32A     2.07980       11.6110           0  -1.66000       1.30000    
     14901 MEMB     82       POPE     DC311    DRUD     -2.23580      0.400000           0   0.00000       0.00000    
     14902 MEMB     82       POPE     H11X     HDA2A    0.780000E-01   1.00800           0   0.00000       0.00000    
     14903 MEMB     82       POPE     H11Y     HDA2A    0.780000E-01   1.00800           0   0.00000       0.00000    
     14904 MEMB     82       POPE     C312     CD32A     2.07980       11.6110           0  -1.66000       1.30000    
     14905 MEMB     82       POPE     DC312    DRUD     -2.23580      0.400000           0   0.00000       0.00000    
     14906 MEMB     82       POPE     H12X     HDA2A    0.780000E-01   1.00800           0   0.00000       0.00000    
     14907 MEMB     82       POPE     H12Y     HDA2A    0.780000E-01   1.00800           0   0.00000       0.00000    
     14908 MEMB     82       POPE     C313     CD32A     2.07980       11.6110           0  -1.66000       1.30000    
     14909 MEMB     82       POPE     DC313    DRUD     -2.23580      0.400000           0   0.00000       0.00000    
     14910 MEMB     82       POPE     H13X     HDA2A    0.780000E-01   1.00800           0   0.00000       0.00000    
     14911 MEMB     82       POPE     H13Y     HDA2A    0.780000E-01   1.00800           0   0.00000       0.00000    
     14912 MEMB     82       POPE     C314     CD32A     2.07980       11.6110           0  -1.66000       1.30000    
     14913 MEMB     82       POPE     DC314    DRUD     -2.23580      0.400000           0   0.00000       0.00000    
     14914 MEMB     82       POPE     H14X     HDA2A    0.780000E-01   1.00800           0   0.00000       0.00000    
     14915 MEMB     82       POPE     H14Y     HDA2A    0.780000E-01   1.00800           0   0.00000       0.00000    
     14916 MEMB     82       POPE     C315     CD32A     2.07980       11.6110           0  -1.66000       1.30000    
     14917 MEMB     82       POPE     DC315    DRUD     -2.23580      0.400000           0   0.00000       0.00000    
     14918 MEMB     82       POPE     H15X     HDA2A    0.780000E-01   1.00800           0   0.00000       0.00000    
     14919 MEMB     82       POPE     H15Y     HDA2A    0.780000E-01   1.00800           0   0.00000       0.00000    
     14920 MEMB     82       POPE     C316     CD33A     2.30820       11.6110           0  -2.05100       1.30000    
     14921 MEMB     82       POPE     DC316    DRUD     -2.48520      0.400000           0   0.00000       0.00000    
     14922 MEMB     82       POPE     H16X     HDA3A    0.590000E-01   1.00800           0   0.00000       0.00000    
     14923 MEMB     82       POPE     H16Y     HDA3A    0.590000E-01   1.00800           0   0.00000       0.00000    
     14924 MEMB     82       POPE     H16Z     HDA3A    0.590000E-01   1.00800           0   0.00000       0.00000    
     14925 MEMB     83       POPE     N        ND3P3A    1.62810       13.6070           0  -1.29800      0.895000    
     14926 MEMB     83       POPE     DN       DRUD     -1.97710      0.400000           0   0.00000       0.00000    
     14927 MEMB     83       POPE     HN1      HDP1B    0.340000       1.00800           0   0.00000       0.00000    
     14928 MEMB     83       POPE     HN2      HDP1B    0.340000       1.00800           0   0.00000       0.00000    
     14929 MEMB     83       POPE     HN3      HDP1B    0.340000       1.00800           0   0.00000       0.00000    
     14930 MEMB     83       POPE     C12      CD32A     2.27610       11.6110           0  -1.65600      0.895000    
     14931 MEMB     83       POPE     DC12     DRUD     -2.23310      0.400000           0   0.00000       0.00000    
     14932 MEMB     83       POPE     H12A     HDA2A    0.143000       1.00800           0   0.00000       0.00000    
     14933 MEMB     83       POPE     H12B     HDA2A    0.143000       1.00800           0   0.00000       0.00000    
     14934 MEMB     83       POPE     C11      CD32A     2.42220       11.6110           0  -1.64200      0.862000    
     14935 MEMB     83       POPE     DC11     DRUD     -2.22370      0.400000           0   0.00000       0.00000    
     14936 MEMB     83       POPE     H11A     HDA2A    0.260000E-01   1.00800           0   0.00000       0.00000    
     14937 MEMB     83       POPE     H11B     HDA2A    0.260000E-01   1.00800           0   0.00000       0.00000    
     14938 MEMB     83       POPE     P        PD1A      2.90360       30.5740           0 -0.974000       2.09800    
     14939 MEMB     83       POPE     DP       DRUD     -1.71260      0.400000           0   0.00000       0.00000    
     14940 MEMB     83       POPE     O13      OD2C2B   0.798400       15.5994           0 -0.931000       1.08300    
     14941 MEMB     83       POPE     DO13     DRUD     -1.67440      0.400000           0   0.00000       0.00000    
     14942 MEMB     83       POPE     O14      OD2C2B   0.798400       15.5994           0 -0.931000       1.08300    
     14943 MEMB     83       POPE     DO14     DRUD     -1.67440      0.400000           0   0.00000       0.00000    
     14944 MEMB     83       POPE     O11      OD30B     1.17720       15.5994           0 -0.901000      0.181000    
     14945 MEMB     83       POPE     DO11     DRUD     -1.64720      0.400000           0   0.00000       0.00000    
     14946 MEMB     83       POPE     O12      OD30B     1.17720       15.5994           0 -0.901000      0.181000    
     14947 MEMB     83       POPE     DO12     DRUD     -1.64720      0.400000           0   0.00000       0.00000    
     14948 MEMB     83       POPE     C1       CD32A     2.42220       11.6110           0  -1.64200      0.862000    
     14949 MEMB     83       POPE     DC1      DRUD     -2.22370      0.400000           0   0.00000       0.00000    
     14950 MEMB     83       POPE     HA       HDA2A    0.260000E-01   1.00800           0   0.00000       0.00000    
     14951 MEMB     83       POPE     HB       HDA2A    0.260000E-01   1.00800           0   0.00000       0.00000    
     14952 MEMB     83       POPE     C2       CD31C     2.52830       11.6110           0  -1.79700      0.410000    
     14953 MEMB     83       POPE     DC2      DRUD     -2.32630      0.400000           0   0.00000       0.00000    
     14954 MEMB     83       POPE     HS       HDA1A    0.116000       1.00800           0   0.00000       0.00000    
     14955 MEMB     83       POPE     O21      OD30CL    1.48470       15.5994           0 -0.732000      0.601000    
     14956 MEMB     83       POPE     DO21     DRUD     -1.48470      0.400000           0   0.00000       0.00000    
     14957 MEMB     83       POPE     C21      CD2O3B    2.72820       11.6110           0  -1.37000       1.74700    
     14958 MEMB     83       POPE     DC21     DRUD     -2.03120      0.400000           0   0.00000       0.00000    
     14959 MEMB     83       POPE     O22      OD2C3B    1.64990       15.5994           0 -0.904000      0.565000    
     14960 MEMB     83       POPE     DO22     DRUD     -1.64990      0.400000           0   0.00000       0.00000    
     14961 MEMB     83       POPE     C22      CD32C     2.24380       11.6110           0  -1.99300      0.410000    
     14962 MEMB     83       POPE     DC22     DRUD     -2.44980      0.400000           0   0.00000       0.00000    
     14963 MEMB     83       POPE     H2R      HDA2A    0.690000E-01   1.00800           0   0.00000       0.00000    
     14964 MEMB     83       POPE     H2S      HDA2A    0.690000E-01   1.00800           0   0.00000       0.00000    
     14965 MEMB     83       POPE     LP1A     LPD     -0.349000       0.00000          -1   0.00000       0.00000    
     14966 MEMB     83       POPE     LP1B     LPD     -0.258000       0.00000          -1   0.00000       0.00000    
     14967 MEMB     83       POPE     LPMA     LPD     -0.170000       0.00000          -1   0.00000       0.00000    
     14968 MEMB     83       POPE     LPMB     LPD     -0.170000       0.00000          -1   0.00000       0.00000    
     14969 MEMB     83       POPE     C3       CD32C     2.41230       11.6110           0  -1.79700      0.410000    
     14970 MEMB     83       POPE     DC3      DRUD     -2.32630      0.400000           0   0.00000       0.00000    
     14971 MEMB     83       POPE     HX       HDA2A    0.116000       1.00800           0   0.00000       0.00000    
     14972 MEMB     83       POPE     HY       HDA2A    0.116000       1.00800           0   0.00000       0.00000    
     14973 MEMB     83       POPE     O31      OD30CL    1.48470       15.5994           0 -0.732000      0.601000    
     14974 MEMB     83       POPE     DO31     DRUD     -1.48470      0.400000           0   0.00000       0.00000    
     14975 MEMB     83       POPE     C31      CD2O3B    2.72820       11.6110           0  -1.37000       1.74700    
     14976 MEMB     83       POPE     DC31     DRUD     -2.03120      0.400000           0   0.00000       0.00000    
     14977 MEMB     83       POPE     O32      OD2C3B    1.64990       15.5994           0 -0.904000      0.565000    
     14978 MEMB     83       POPE     DO32     DRUD     -1.64990      0.400000           0   0.00000       0.00000    
     14979 MEMB     83       POPE     C32      CD32C     2.24380       11.6110           0  -1.99300      0.410000    
     14980 MEMB     83       POPE     DC32     DRUD     -2.44980      0.400000           0   0.00000       0.00000    
     14981 MEMB     83       POPE     H2X      HDA2A    0.690000E-01   1.00800           0   0.00000       0.00000    
     14982 MEMB     83       POPE     H2Y      HDA2A    0.690000E-01   1.00800           0   0.00000       0.00000    
     14983 MEMB     83       POPE     LP1C     LPD     -0.349000       0.00000          -1   0.00000       0.00000    
     14984 MEMB     83       POPE     LP1D     LPD     -0.258000       0.00000          -1   0.00000       0.00000    
     14985 MEMB     83       POPE     LPMC     LPD     -0.170000       0.00000          -1   0.00000       0.00000    
     14986 MEMB     83       POPE     LPMD     LPD     -0.170000       0.00000          -1   0.00000       0.00000    
     14987 MEMB     83       POPE     C23      CD32A     2.07980       11.6110           0  -1.66000       1.30000    
     14988 MEMB     83       POPE     DC23     DRUD     -2.23580      0.400000           0   0.00000       0.00000    
     14989 MEMB     83       POPE     H3R      HDA2A    0.780000E-01   1.00800           0   0.00000       0.00000    
     14990 MEMB     83       POPE     H3S      HDA2A    0.780000E-01   1.00800           0   0.00000       0.00000    
     14991 MEMB     83       POPE     C24      CD32A     2.07980       11.6110           0  -1.66000       1.30000    
     14992 MEMB     83       POPE     DC24     DRUD     -2.23580      0.400000           0   0.00000       0.00000    
     14993 MEMB     83       POPE     H4R      HDA2A    0.780000E-01   1.00800           0   0.00000       0.00000    
     14994 MEMB     83       POPE     H4S      HDA2A    0.780000E-01   1.00800           0   0.00000       0.00000    
     14995 MEMB     83       POPE     C25      CD32A     2.07980       11.6110           0  -1.66000       1.30000    
     14996 MEMB     83       POPE     DC25     DRUD     -2.23580      0.400000           0   0.00000       0.00000    
     14997 MEMB     83       POPE     H5R      HDA2A    0.780000E-01   1.00800           0   0.00000       0.00000    
     14998 MEMB     83       POPE     H5S      HDA2A    0.780000E-01   1.00800           0   0.00000       0.00000    
     14999 MEMB     83       POPE     C26      CD32A     2.07980       11.6110           0  -1.66000       1.30000    
     15000 MEMB     83       POPE     DC26     DRUD     -2.23580      0.400000           0   0.00000       0.00000    
     15001 MEMB     83       POPE     H6R      HDA2A    0.780000E-01   1.00800           0   0.00000       0.00000    
     15002 MEMB     83       POPE     H6S      HDA2A    0.780000E-01   1.00800           0   0.00000       0.00000    
     15003 MEMB     83       POPE     C27      CD32A     2.07980       11.6110           0  -1.66000       1.30000    
     15004 MEMB     83       POPE     DC27     DRUD     -2.23580      0.400000           0   0.00000       0.00000    
     15005 MEMB     83       POPE     H7R      HDA2A    0.780000E-01   1.00800           0   0.00000       0.00000    
     15006 MEMB     83       POPE     H7S      HDA2A    0.780000E-01   1.00800           0   0.00000       0.00000    
     15007 MEMB     83       POPE     C28      CD32A     2.07980       11.6110           0  -1.66000       1.30000    
     15008 MEMB     83       POPE     DC28     DRUD     -2.23580      0.400000           0   0.00000       0.00000    
     15009 MEMB     83       POPE     H8R      HDA2A    0.780000E-01   1.00800           0   0.00000       0.00000    
     15010 MEMB     83       POPE     H8S      HDA2A    0.780000E-01   1.00800           0   0.00000       0.00000    
     15011 MEMB     83       POPE     C29      CD2C1A    2.33700       11.6110           0  -1.99000      0.750000    
     15012 MEMB     83       POPE     DC29     DRUD     -2.44800      0.400000           0   0.00000       0.00000    
     15013 MEMB     83       POPE     H91      HD2C1A   0.111000       1.00800           0   0.00000       0.00000    
     15014 MEMB     83       POPE     C210     CD2C1A    2.33700       11.6110           0  -1.99000      0.750000    
     15015 MEMB     83       POPE     DC210    DRUD     -2.44800      0.400000           0   0.00000       0.00000    
     15016 MEMB     83       POPE     H101     HD2C1A   0.111000       1.00800           0   0.00000       0.00000    
     15017 MEMB     83       POPE     C211     CD32A     2.07980       11.6110           0  -1.66000       1.30000    
     15018 MEMB     83       POPE     DC211    DRUD     -2.23580      0.400000           0   0.00000       0.00000    
     15019 MEMB     83       POPE     H11R     HDA2A    0.780000E-01   1.00800           0   0.00000       0.00000    
     15020 MEMB     83       POPE     H11S     HDA2A    0.780000E-01   1.00800           0   0.00000       0.00000    
     15021 MEMB     83       POPE     C212     CD32A     2.07980       11.6110           0  -1.66000       1.30000    
     15022 MEMB     83       POPE     DC212    DRUD     -2.23580      0.400000           0   0.00000       0.00000    
     15023 MEMB     83       POPE     H12R     HDA2A    0.780000E-01   1.00800           0   0.00000       0.00000    
     15024 MEMB     83       POPE     H12S     HDA2A    0.780000E-01   1.00800           0   0.00000       0.00000    
     15025 MEMB     83       POPE     C213     CD32A     2.07980       11.6110           0  -1.66000       1.30000    
     15026 MEMB     83       POPE     DC213    DRUD     -2.23580      0.400000           0   0.00000       0.00000    
     15027 MEMB     83       POPE     H13R     HDA2A    0.780000E-01   1.00800           0   0.00000       0.00000    
     15028 MEMB     83       POPE     H13S     HDA2A    0.780000E-01   1.00800           0   0.00000       0.00000    
     15029 MEMB     83       POPE     C214     CD32A     2.07980       11.6110           0  -1.66000       1.30000    
     15030 MEMB     83       POPE     DC214    DRUD     -2.23580      0.400000           0   0.00000       0.00000    
     15031 MEMB     83       POPE     H14R     HDA2A    0.780000E-01   1.00800           0   0.00000       0.00000    
     15032 MEMB     83       POPE     H14S     HDA2A    0.780000E-01   1.00800           0   0.00000       0.00000    
     15033 MEMB     83       POPE     C215     CD32A     2.07980       11.6110           0  -1.66000       1.30000    
     15034 MEMB     83       POPE     DC215    DRUD     -2.23580      0.400000           0   0.00000       0.00000    
     15035 MEMB     83       POPE     H15R     HDA2A    0.780000E-01   1.00800           0   0.00000       0.00000    
     15036 MEMB     83       POPE     H15S     HDA2A    0.780000E-01   1.00800           0   0.00000       0.00000    
     15037 MEMB     83       POPE     C216     CD32A     2.07980       11.6110           0  -1.66000       1.30000    
     15038 MEMB     83       POPE     DC216    DRUD     -2.23580      0.400000           0   0.00000       0.00000    
     15039 MEMB     83       POPE     H16R     HDA2A    0.780000E-01   1.00800           0   0.00000       0.00000    
     15040 MEMB     83       POPE     H16S     HDA2A    0.780000E-01   1.00800           0   0.00000       0.00000    
     15041 MEMB     83       POPE     C217     CD32A     2.07980       11.6110           0  -1.66000       1.30000    
     15042 MEMB     83       POPE     DC217    DRUD     -2.23580      0.400000           0   0.00000       0.00000    
     15043 MEMB     83       POPE     H17R     HDA2A    0.780000E-01   1.00800           0   0.00000       0.00000    
     15044 MEMB     83       POPE     H17S     HDA2A    0.780000E-01   1.00800           0   0.00000       0.00000    
     15045 MEMB     83       POPE     C218     CD33A     2.30820       11.6110           0  -2.05100       1.30000    
     15046 MEMB     83       POPE     DC218    DRUD     -2.48520      0.400000           0   0.00000       0.00000    
     15047 MEMB     83       POPE     H18R     HDA3A    0.590000E-01   1.00800           0   0.00000       0.00000    
     15048 MEMB     83       POPE     H18S     HDA3A    0.590000E-01   1.00800           0   0.00000       0.00000    
     15049 MEMB     83       POPE     H18T     HDA3A    0.590000E-01   1.00800           0   0.00000       0.00000    
     15050 MEMB     83       POPE     C33      CD32A     2.07980       11.6110           0  -1.66000       1.30000    
     15051 MEMB     83       POPE     DC33     DRUD     -2.23580      0.400000           0   0.00000       0.00000    
     15052 MEMB     83       POPE     H3X      HDA2A    0.780000E-01   1.00800           0   0.00000       0.00000    
     15053 MEMB     83       POPE     H3Y      HDA2A    0.780000E-01   1.00800           0   0.00000       0.00000    
     15054 MEMB     83       POPE     C34      CD32A     2.07980       11.6110           0  -1.66000       1.30000    
     15055 MEMB     83       POPE     DC34     DRUD     -2.23580      0.400000           0   0.00000       0.00000    
     15056 MEMB     83       POPE     H4X      HDA2A    0.780000E-01   1.00800           0   0.00000       0.00000    
     15057 MEMB     83       POPE     H4Y      HDA2A    0.780000E-01   1.00800           0   0.00000       0.00000    
     15058 MEMB     83       POPE     C35      CD32A     2.07980       11.6110           0  -1.66000       1.30000    
     15059 MEMB     83       POPE     DC35     DRUD     -2.23580      0.400000           0   0.00000       0.00000    
     15060 MEMB     83       POPE     H5X      HDA2A    0.780000E-01   1.00800           0   0.00000       0.00000    
     15061 MEMB     83       POPE     H5Y      HDA2A    0.780000E-01   1.00800           0   0.00000       0.00000    
     15062 MEMB     83       POPE     C36      CD32A     2.07980       11.6110           0  -1.66000       1.30000    
     15063 MEMB     83       POPE     DC36     DRUD     -2.23580      0.400000           0   0.00000       0.00000    
     15064 MEMB     83       POPE     H6X      HDA2A    0.780000E-01   1.00800           0   0.00000       0.00000    
     15065 MEMB     83       POPE     H6Y      HDA2A    0.780000E-01   1.00800           0   0.00000       0.00000    
     15066 MEMB     83       POPE     C37      CD32A     2.07980       11.6110           0  -1.66000       1.30000    
     15067 MEMB     83       POPE     DC37     DRUD     -2.23580      0.400000           0   0.00000       0.00000    
     15068 MEMB     83       POPE     H7X      HDA2A    0.780000E-01   1.00800           0   0.00000       0.00000    
     15069 MEMB     83       POPE     H7Y      HDA2A    0.780000E-01   1.00800           0   0.00000       0.00000    
     15070 MEMB     83       POPE     C38      CD32A     2.07980       11.6110           0  -1.66000       1.30000    
     15071 MEMB     83       POPE     DC38     DRUD     -2.23580      0.400000           0   0.00000       0.00000    
     15072 MEMB     83       POPE     H8X      HDA2A    0.780000E-01   1.00800           0   0.00000       0.00000    
     15073 MEMB     83       POPE     H8Y      HDA2A    0.780000E-01   1.00800           0   0.00000       0.00000    
     15074 MEMB     83       POPE     C39      CD32A     2.07980       11.6110           0  -1.66000       1.30000    
     15075 MEMB     83       POPE     DC39     DRUD     -2.23580      0.400000           0   0.00000       0.00000    
     15076 MEMB     83       POPE     H9X      HDA2A    0.780000E-01   1.00800           0   0.00000       0.00000    
     15077 MEMB     83       POPE     H9Y      HDA2A    0.780000E-01   1.00800           0   0.00000       0.00000    
     15078 MEMB     83       POPE     C310     CD32A     2.07980       11.6110           0  -1.66000       1.30000    
     15079 MEMB     83       POPE     DC310    DRUD     -2.23580      0.400000           0   0.00000       0.00000    
     15080 MEMB     83       POPE     H10X     HDA2A    0.780000E-01   1.00800           0   0.00000       0.00000    
     15081 MEMB     83       POPE     H10Y     HDA2A    0.780000E-01   1.00800           0   0.00000       0.00000    
     15082 MEMB     83       POPE     C311     CD32A     2.07980       11.6110           0  -1.66000       1.30000    
     15083 MEMB     83       POPE     DC311    DRUD     -2.23580      0.400000           0   0.00000       0.00000    
     15084 MEMB     83       POPE     H11X     HDA2A    0.780000E-01   1.00800           0   0.00000       0.00000    
     15085 MEMB     83       POPE     H11Y     HDA2A    0.780000E-01   1.00800           0   0.00000       0.00000    
     15086 MEMB     83       POPE     C312     CD32A     2.07980       11.6110           0  -1.66000       1.30000    
     15087 MEMB     83       POPE     DC312    DRUD     -2.23580      0.400000           0   0.00000       0.00000    
     15088 MEMB     83       POPE     H12X     HDA2A    0.780000E-01   1.00800           0   0.00000       0.00000    
     15089 MEMB     83       POPE     H12Y     HDA2A    0.780000E-01   1.00800           0   0.00000       0.00000    
     15090 MEMB     83       POPE     C313     CD32A     2.07980       11.6110           0  -1.66000       1.30000    
     15091 MEMB     83       POPE     DC313    DRUD     -2.23580      0.400000           0   0.00000       0.00000    
     15092 MEMB     83       POPE     H13X     HDA2A    0.780000E-01   1.00800           0   0.00000       0.00000    
     15093 MEMB     83       POPE     H13Y     HDA2A    0.780000E-01   1.00800           0   0.00000       0.00000    
     15094 MEMB     83       POPE     C314     CD32A     2.07980       11.6110           0  -1.66000       1.30000    
     15095 MEMB     83       POPE     DC314    DRUD     -2.23580      0.400000           0   0.00000       0.00000    
     15096 MEMB     83       POPE     H14X     HDA2A    0.780000E-01   1.00800           0   0.00000       0.00000    
     15097 MEMB     83       POPE     H14Y     HDA2A    0.780000E-01   1.00800           0   0.00000       0.00000    
     15098 MEMB     83       POPE     C315     CD32A     2.07980       11.6110           0  -1.66000       1.30000    
     15099 MEMB     83       POPE     DC315    DRUD     -2.23580      0.400000           0   0.00000       0.00000    
     15100 MEMB     83       POPE     H15X     HDA2A    0.780000E-01   1.00800           0   0.00000       0.00000    
     15101 MEMB     83       POPE     H15Y     HDA2A    0.780000E-01   1.00800           0   0.00000       0.00000    
     15102 MEMB     83       POPE     C316     CD33A     2.30820       11.6110           0  -2.05100       1.30000    
     15103 MEMB     83       POPE     DC316    DRUD     -2.48520      0.400000           0   0.00000       0.00000    
     15104 MEMB     83       POPE     H16X     HDA3A    0.590000E-01   1.00800           0   0.00000       0.00000    
     15105 MEMB     83       POPE     H16Y     HDA3A    0.590000E-01   1.00800           0   0.00000       0.00000    
     15106 MEMB     83       POPE     H16Z     HDA3A    0.590000E-01   1.00800           0   0.00000       0.00000    
     15107 MEMB     84       POPE     N        ND3P3A    1.62810       13.6070           0  -1.29800      0.895000    
     15108 MEMB     84       POPE     DN       DRUD     -1.97710      0.400000           0   0.00000       0.00000    
     15109 MEMB     84       POPE     HN1      HDP1B    0.340000       1.00800           0   0.00000       0.00000    
     15110 MEMB     84       POPE     HN2      HDP1B    0.340000       1.00800           0   0.00000       0.00000    
     15111 MEMB     84       POPE     HN3      HDP1B    0.340000       1.00800           0   0.00000       0.00000    
     15112 MEMB     84       POPE     C12      CD32A     2.27610       11.6110           0  -1.65600      0.895000    
     15113 MEMB     84       POPE     DC12     DRUD     -2.23310      0.400000           0   0.00000       0.00000    
     15114 MEMB     84       POPE     H12A     HDA2A    0.143000       1.00800           0   0.00000       0.00000    
     15115 MEMB     84       POPE     H12B     HDA2A    0.143000       1.00800           0   0.00000       0.00000    
     15116 MEMB     84       POPE     C11      CD32A     2.42220       11.6110           0  -1.64200      0.862000    
     15117 MEMB     84       POPE     DC11     DRUD     -2.22370      0.400000           0   0.00000       0.00000    
     15118 MEMB     84       POPE     H11A     HDA2A    0.260000E-01   1.00800           0   0.00000       0.00000    
     15119 MEMB     84       POPE     H11B     HDA2A    0.260000E-01   1.00800           0   0.00000       0.00000    
     15120 MEMB     84       POPE     P        PD1A      2.90360       30.5740           0 -0.974000       2.09800    
     15121 MEMB     84       POPE     DP       DRUD     -1.71260      0.400000           0   0.00000       0.00000    
     15122 MEMB     84       POPE     O13      OD2C2B   0.798400       15.5994           0 -0.931000       1.08300    
     15123 MEMB     84       POPE     DO13     DRUD     -1.67440      0.400000           0   0.00000       0.00000    
     15124 MEMB     84       POPE     O14      OD2C2B   0.798400       15.5994           0 -0.931000       1.08300    
     15125 MEMB     84       POPE     DO14     DRUD     -1.67440      0.400000           0   0.00000       0.00000    
     15126 MEMB     84       POPE     O11      OD30B     1.17720       15.5994           0 -0.901000      0.181000    
     15127 MEMB     84       POPE     DO11     DRUD     -1.64720      0.400000           0   0.00000       0.00000    
     15128 MEMB     84       POPE     O12      OD30B     1.17720       15.5994           0 -0.901000      0.181000    
     15129 MEMB     84       POPE     DO12     DRUD     -1.64720      0.400000           0   0.00000       0.00000    
     15130 MEMB     84       POPE     C1       CD32A     2.42220       11.6110           0  -1.64200      0.862000    
     15131 MEMB     84       POPE     DC1      DRUD     -2.22370      0.400000           0   0.00000       0.00000    
     15132 MEMB     84       POPE     HA       HDA2A    0.260000E-01   1.00800           0   0.00000       0.00000    
     15133 MEMB     84       POPE     HB       HDA2A    0.260000E-01   1.00800           0   0.00000       0.00000    
     15134 MEMB     84       POPE     C2       CD31C     2.52830       11.6110           0  -1.79700      0.410000    
     15135 MEMB     84       POPE     DC2      DRUD     -2.32630      0.400000           0   0.00000       0.00000    
     15136 MEMB     84       POPE     HS       HDA1A    0.116000       1.00800           0   0.00000       0.00000    
     15137 MEMB     84       POPE     O21      OD30CL    1.48470       15.5994           0 -0.732000      0.601000    
     15138 MEMB     84       POPE     DO21     DRUD     -1.48470      0.400000           0   0.00000       0.00000    
     15139 MEMB     84       POPE     C21      CD2O3B    2.72820       11.6110           0  -1.37000       1.74700    
     15140 MEMB     84       POPE     DC21     DRUD     -2.03120      0.400000           0   0.00000       0.00000    
     15141 MEMB     84       POPE     O22      OD2C3B    1.64990       15.5994           0 -0.904000      0.565000    
     15142 MEMB     84       POPE     DO22     DRUD     -1.64990      0.400000           0   0.00000       0.00000    
     15143 MEMB     84       POPE     C22      CD32C     2.24380       11.6110           0  -1.99300      0.410000    
     15144 MEMB     84       POPE     DC22     DRUD     -2.44980      0.400000           0   0.00000       0.00000    
     15145 MEMB     84       POPE     H2R      HDA2A    0.690000E-01   1.00800           0   0.00000       0.00000    
     15146 MEMB     84       POPE     H2S      HDA2A    0.690000E-01   1.00800           0   0.00000       0.00000    
     15147 MEMB     84       POPE     LP1A     LPD     -0.349000       0.00000          -1   0.00000       0.00000    
     15148 MEMB     84       POPE     LP1B     LPD     -0.258000       0.00000          -1   0.00000       0.00000    
     15149 MEMB     84       POPE     LPMA     LPD     -0.170000       0.00000          -1   0.00000       0.00000    
     15150 MEMB     84       POPE     LPMB     LPD     -0.170000       0.00000          -1   0.00000       0.00000    
     15151 MEMB     84       POPE     C3       CD32C     2.41230       11.6110           0  -1.79700      0.410000    
     15152 MEMB     84       POPE     DC3      DRUD     -2.32630      0.400000           0   0.00000       0.00000    
     15153 MEMB     84       POPE     HX       HDA2A    0.116000       1.00800           0   0.00000       0.00000    
     15154 MEMB     84       POPE     HY       HDA2A    0.116000       1.00800           0   0.00000       0.00000    
     15155 MEMB     84       POPE     O31      OD30CL    1.48470       15.5994           0 -0.732000      0.601000    
     15156 MEMB     84       POPE     DO31     DRUD     -1.48470      0.400000           0   0.00000       0.00000    
     15157 MEMB     84       POPE     C31      CD2O3B    2.72820       11.6110           0  -1.37000       1.74700    
     15158 MEMB     84       POPE     DC31     DRUD     -2.03120      0.400000           0   0.00000       0.00000    
     15159 MEMB     84       POPE     O32      OD2C3B    1.64990       15.5994           0 -0.904000      0.565000    
     15160 MEMB     84       POPE     DO32     DRUD     -1.64990      0.400000           0   0.00000       0.00000    
     15161 MEMB     84       POPE     C32      CD32C     2.24380       11.6110           0  -1.99300      0.410000    
     15162 MEMB     84       POPE     DC32     DRUD     -2.44980      0.400000           0   0.00000       0.00000    
     15163 MEMB     84       POPE     H2X      HDA2A    0.690000E-01   1.00800           0   0.00000       0.00000    
     15164 MEMB     84       POPE     H2Y      HDA2A    0.690000E-01   1.00800           0   0.00000       0.00000    
     15165 MEMB     84       POPE     LP1C     LPD     -0.349000       0.00000          -1   0.00000       0.00000    
     15166 MEMB     84       POPE     LP1D     LPD     -0.258000       0.00000          -1   0.00000       0.00000    
     15167 MEMB     84       POPE     LPMC     LPD     -0.170000       0.00000          -1   0.00000       0.00000    
     15168 MEMB     84       POPE     LPMD     LPD     -0.170000       0.00000          -1   0.00000       0.00000    
     15169 MEMB     84       POPE     C23      CD32A     2.07980       11.6110           0  -1.66000       1.30000    
     15170 MEMB     84       POPE     DC23     DRUD     -2.23580      0.400000           0   0.00000       0.00000    
     15171 MEMB     84       POPE     H3R      HDA2A    0.780000E-01   1.00800           0   0.00000       0.00000    
     15172 MEMB     84       POPE     H3S      HDA2A    0.780000E-01   1.00800           0   0.00000       0.00000    
     15173 MEMB     84       POPE     C24      CD32A     2.07980       11.6110           0  -1.66000       1.30000    
     15174 MEMB     84       POPE     DC24     DRUD     -2.23580      0.400000           0   0.00000       0.00000    
     15175 MEMB     84       POPE     H4R      HDA2A    0.780000E-01   1.00800           0   0.00000       0.00000    
     15176 MEMB     84       POPE     H4S      HDA2A    0.780000E-01   1.00800           0   0.00000       0.00000    
     15177 MEMB     84       POPE     C25      CD32A     2.07980       11.6110           0  -1.66000       1.30000    
     15178 MEMB     84       POPE     DC25     DRUD     -2.23580      0.400000           0   0.00000       0.00000    
     15179 MEMB     84       POPE     H5R      HDA2A    0.780000E-01   1.00800           0   0.00000       0.00000    
     15180 MEMB     84       POPE     H5S      HDA2A    0.780000E-01   1.00800           0   0.00000       0.00000    
     15181 MEMB     84       POPE     C26      CD32A     2.07980       11.6110           0  -1.66000       1.30000    
     15182 MEMB     84       POPE     DC26     DRUD     -2.23580      0.400000           0   0.00000       0.00000    
     15183 MEMB     84       POPE     H6R      HDA2A    0.780000E-01   1.00800           0   0.00000       0.00000    
     15184 MEMB     84       POPE     H6S      HDA2A    0.780000E-01   1.00800           0   0.00000       0.00000    
     15185 MEMB     84       POPE     C27      CD32A     2.07980       11.6110           0  -1.66000       1.30000    
     15186 MEMB     84       POPE     DC27     DRUD     -2.23580      0.400000           0   0.00000       0.00000    
     15187 MEMB     84       POPE     H7R      HDA2A    0.780000E-01   1.00800           0   0.00000       0.00000    
     15188 MEMB     84       POPE     H7S      HDA2A    0.780000E-01   1.00800           0   0.00000       0.00000    
     15189 MEMB     84       POPE     C28      CD32A     2.07980       11.6110           0  -1.66000       1.30000    
     15190 MEMB     84       POPE     DC28     DRUD     -2.23580      0.400000           0   0.00000       0.00000    
     15191 MEMB     84       POPE     H8R      HDA2A    0.780000E-01   1.00800           0   0.00000       0.00000    
     15192 MEMB     84       POPE     H8S      HDA2A    0.780000E-01   1.00800           0   0.00000       0.00000    
     15193 MEMB     84       POPE     C29      CD2C1A    2.33700       11.6110           0  -1.99000      0.750000    
     15194 MEMB     84       POPE     DC29     DRUD     -2.44800      0.400000           0   0.00000       0.00000    
     15195 MEMB     84       POPE     H91      HD2C1A   0.111000       1.00800           0   0.00000       0.00000    
     15196 MEMB     84       POPE     C210     CD2C1A    2.33700       11.6110           0  -1.99000      0.750000    
     15197 MEMB     84       POPE     DC210    DRUD     -2.44800      0.400000           0   0.00000       0.00000    
     15198 MEMB     84       POPE     H101     HD2C1A   0.111000       1.00800           0   0.00000       0.00000    
     15199 MEMB     84       POPE     C211     CD32A     2.07980       11.6110           0  -1.66000       1.30000    
     15200 MEMB     84       POPE     DC211    DRUD     -2.23580      0.400000           0   0.00000       0.00000    
     15201 MEMB     84       POPE     H11R     HDA2A    0.780000E-01   1.00800           0   0.00000       0.00000    
     15202 MEMB     84       POPE     H11S     HDA2A    0.780000E-01   1.00800           0   0.00000       0.00000    
     15203 MEMB     84       POPE     C212     CD32A     2.07980       11.6110           0  -1.66000       1.30000    
     15204 MEMB     84       POPE     DC212    DRUD     -2.23580      0.400000           0   0.00000       0.00000    
     15205 MEMB     84       POPE     H12R     HDA2A    0.780000E-01   1.00800           0   0.00000       0.00000    
     15206 MEMB     84       POPE     H12S     HDA2A    0.780000E-01   1.00800           0   0.00000       0.00000    
     15207 MEMB     84       POPE     C213     CD32A     2.07980       11.6110           0  -1.66000       1.30000    
     15208 MEMB     84       POPE     DC213    DRUD     -2.23580      0.400000           0   0.00000       0.00000    
     15209 MEMB     84       POPE     H13R     HDA2A    0.780000E-01   1.00800           0   0.00000       0.00000    
     15210 MEMB     84       POPE     H13S     HDA2A    0.780000E-01   1.00800           0   0.00000       0.00000    
     15211 MEMB     84       POPE     C214     CD32A     2.07980       11.6110           0  -1.66000       1.30000    
     15212 MEMB     84       POPE     DC214    DRUD     -2.23580      0.400000           0   0.00000       0.00000    
     15213 MEMB     84       POPE     H14R     HDA2A    0.780000E-01   1.00800           0   0.00000       0.00000    
     15214 MEMB     84       POPE     H14S     HDA2A    0.780000E-01   1.00800           0   0.00000       0.00000    
     15215 MEMB     84       POPE     C215     CD32A     2.07980       11.6110           0  -1.66000       1.30000    
     15216 MEMB     84       POPE     DC215    DRUD     -2.23580      0.400000           0   0.00000       0.00000    
     15217 MEMB     84       POPE     H15R     HDA2A    0.780000E-01   1.00800           0   0.00000       0.00000    
     15218 MEMB     84       POPE     H15S     HDA2A    0.780000E-01   1.00800           0   0.00000       0.00000    
     15219 MEMB     84       POPE     C216     CD32A     2.07980       11.6110           0  -1.66000       1.30000    
     15220 MEMB     84       POPE     DC216    DRUD     -2.23580      0.400000           0   0.00000       0.00000    
     15221 MEMB     84       POPE     H16R     HDA2A    0.780000E-01   1.00800           0   0.00000       0.00000    
     15222 MEMB     84       POPE     H16S     HDA2A    0.780000E-01   1.00800           0   0.00000       0.00000    
     15223 MEMB     84       POPE     C217     CD32A     2.07980       11.6110           0  -1.66000       1.30000    
     15224 MEMB     84       POPE     DC217    DRUD     -2.23580      0.400000           0   0.00000       0.00000    
     15225 MEMB     84       POPE     H17R     HDA2A    0.780000E-01   1.00800           0   0.00000       0.00000    
     15226 MEMB     84       POPE     H17S     HDA2A    0.780000E-01   1.00800           0   0.00000       0.00000    
     15227 MEMB     84       POPE     C218     CD33A     2.30820       11.6110           0  -2.05100       1.30000    
     15228 MEMB     84       POPE     DC218    DRUD     -2.48520      0.400000           0   0.00000       0.00000    
     15229 MEMB     84       POPE     H18R     HDA3A    0.590000E-01   1.00800           0   0.00000       0.00000    
     15230 MEMB     84       POPE     H18S     HDA3A    0.590000E-01   1.00800           0   0.00000       0.00000    
     15231 MEMB     84       POPE     H18T     HDA3A    0.590000E-01   1.00800           0   0.00000       0.00000    
     15232 MEMB     84       POPE     C33      CD32A     2.07980       11.6110           0  -1.66000       1.30000    
     15233 MEMB     84       POPE     DC33     DRUD     -2.23580      0.400000           0   0.00000       0.00000    
     15234 MEMB     84       POPE     H3X      HDA2A    0.780000E-01   1.00800           0   0.00000       0.00000    
     15235 MEMB     84       POPE     H3Y      HDA2A    0.780000E-01   1.00800           0   0.00000       0.00000    
     15236 MEMB     84       POPE     C34      CD32A     2.07980       11.6110           0  -1.66000       1.30000    
     15237 MEMB     84       POPE     DC34     DRUD     -2.23580      0.400000           0   0.00000       0.00000    
     15238 MEMB     84       POPE     H4X      HDA2A    0.780000E-01   1.00800           0   0.00000       0.00000    
     15239 MEMB     84       POPE     H4Y      HDA2A    0.780000E-01   1.00800           0   0.00000       0.00000    
     15240 MEMB     84       POPE     C35      CD32A     2.07980       11.6110           0  -1.66000       1.30000    
     15241 MEMB     84       POPE     DC35     DRUD     -2.23580      0.400000           0   0.00000       0.00000    
     15242 MEMB     84       POPE     H5X      HDA2A    0.780000E-01   1.00800           0   0.00000       0.00000    
     15243 MEMB     84       POPE     H5Y      HDA2A    0.780000E-01   1.00800           0   0.00000       0.00000    
     15244 MEMB     84       POPE     C36      CD32A     2.07980       11.6110           0  -1.66000       1.30000    
     15245 MEMB     84       POPE     DC36     DRUD     -2.23580      0.400000           0   0.00000       0.00000    
     15246 MEMB     84       POPE     H6X      HDA2A    0.780000E-01   1.00800           0   0.00000       0.00000    
     15247 MEMB     84       POPE     H6Y      HDA2A    0.780000E-01   1.00800           0   0.00000       0.00000    
     15248 MEMB     84       POPE     C37      CD32A     2.07980       11.6110           0  -1.66000       1.30000    
     15249 MEMB     84       POPE     DC37     DRUD     -2.23580      0.400000           0   0.00000       0.00000    
     15250 MEMB     84       POPE     H7X      HDA2A    0.780000E-01   1.00800           0   0.00000       0.00000    
     15251 MEMB     84       POPE     H7Y      HDA2A    0.780000E-01   1.00800           0   0.00000       0.00000    
     15252 MEMB     84       POPE     C38      CD32A     2.07980       11.6110           0  -1.66000       1.30000    
     15253 MEMB     84       POPE     DC38     DRUD     -2.23580      0.400000           0   0.00000       0.00000    
     15254 MEMB     84       POPE     H8X      HDA2A    0.780000E-01   1.00800           0   0.00000       0.00000    
     15255 MEMB     84       POPE     H8Y      HDA2A    0.780000E-01   1.00800           0   0.00000       0.00000    
     15256 MEMB     84       POPE     C39      CD32A     2.07980       11.6110           0  -1.66000       1.30000    
     15257 MEMB     84       POPE     DC39     DRUD     -2.23580      0.400000           0   0.00000       0.00000    
     15258 MEMB     84       POPE     H9X      HDA2A    0.780000E-01   1.00800           0   0.00000       0.00000    
     15259 MEMB     84       POPE     H9Y      HDA2A    0.780000E-01   1.00800           0   0.00000       0.00000    
     15260 MEMB     84       POPE     C310     CD32A     2.07980       11.6110           0  -1.66000       1.30000    
     15261 MEMB     84       POPE     DC310    DRUD     -2.23580      0.400000           0   0.00000       0.00000    
     15262 MEMB     84       POPE     H10X     HDA2A    0.780000E-01   1.00800           0   0.00000       0.00000    
     15263 MEMB     84       POPE     H10Y     HDA2A    0.780000E-01   1.00800           0   0.00000       0.00000    
     15264 MEMB     84       POPE     C311     CD32A     2.07980       11.6110           0  -1.66000       1.30000    
     15265 MEMB     84       POPE     DC311    DRUD     -2.23580      0.400000           0   0.00000       0.00000    
     15266 MEMB     84       POPE     H11X     HDA2A    0.780000E-01   1.00800           0   0.00000       0.00000    
     15267 MEMB     84       POPE     H11Y     HDA2A    0.780000E-01   1.00800           0   0.00000       0.00000    
     15268 MEMB     84       POPE     C312     CD32A     2.07980       11.6110           0  -1.66000       1.30000    
     15269 MEMB     84       POPE     DC312    DRUD     -2.23580      0.400000           0   0.00000       0.00000    
     15270 MEMB     84       POPE     H12X     HDA2A    0.780000E-01   1.00800           0   0.00000       0.00000    
     15271 MEMB     84       POPE     H12Y     HDA2A    0.780000E-01   1.00800           0   0.00000       0.00000    
     15272 MEMB     84       POPE     C313     CD32A     2.07980       11.6110           0  -1.66000       1.30000    
     15273 MEMB     84       POPE     DC313    DRUD     -2.23580      0.400000           0   0.00000       0.00000    
     15274 MEMB     84       POPE     H13X     HDA2A    0.780000E-01   1.00800           0   0.00000       0.00000    
     15275 MEMB     84       POPE     H13Y     HDA2A    0.780000E-01   1.00800           0   0.00000       0.00000    
     15276 MEMB     84       POPE     C314     CD32A     2.07980       11.6110           0  -1.66000       1.30000    
     15277 MEMB     84       POPE     DC314    DRUD     -2.23580      0.400000           0   0.00000       0.00000    
     15278 MEMB     84       POPE     H14X     HDA2A    0.780000E-01   1.00800           0   0.00000       0.00000    
     15279 MEMB     84       POPE     H14Y     HDA2A    0.780000E-01   1.00800           0   0.00000       0.00000    
     15280 MEMB     84       POPE     C315     CD32A     2.07980       11.6110           0  -1.66000       1.30000    
     15281 MEMB     84       POPE     DC315    DRUD     -2.23580      0.400000           0   0.00000       0.00000    
     15282 MEMB     84       POPE     H15X     HDA2A    0.780000E-01   1.00800           0   0.00000       0.00000    
     15283 MEMB     84       POPE     H15Y     HDA2A    0.780000E-01   1.00800           0   0.00000       0.00000    
     15284 MEMB     84       POPE     C316     CD33A     2.30820       11.6110           0  -2.05100       1.30000    
     15285 MEMB     84       POPE     DC316    DRUD     -2.48520      0.400000           0   0.00000       0.00000    
     15286 MEMB     84       POPE     H16X     HDA3A    0.590000E-01   1.00800           0   0.00000       0.00000    
     15287 MEMB     84       POPE     H16Y     HDA3A    0.590000E-01   1.00800           0   0.00000       0.00000    
     15288 MEMB     84       POPE     H16Z     HDA3A    0.590000E-01   1.00800           0   0.00000       0.00000    
     15289 MEMB     85       POPE     N        ND3P3A    1.62810       13.6070           0  -1.29800      0.895000    
     15290 MEMB     85       POPE     DN       DRUD     -1.97710      0.400000           0   0.00000       0.00000    
     15291 MEMB     85       POPE     HN1      HDP1B    0.340000       1.00800           0   0.00000       0.00000    
     15292 MEMB     85       POPE     HN2      HDP1B    0.340000       1.00800           0   0.00000       0.00000    
     15293 MEMB     85       POPE     HN3      HDP1B    0.340000       1.00800           0   0.00000       0.00000    
     15294 MEMB     85       POPE     C12      CD32A     2.27610       11.6110           0  -1.65600      0.895000    
     15295 MEMB     85       POPE     DC12     DRUD     -2.23310      0.400000           0   0.00000       0.00000    
     15296 MEMB     85       POPE     H12A     HDA2A    0.143000       1.00800           0   0.00000       0.00000    
     15297 MEMB     85       POPE     H12B     HDA2A    0.143000       1.00800           0   0.00000       0.00000    
     15298 MEMB     85       POPE     C11      CD32A     2.42220       11.6110           0  -1.64200      0.862000    
     15299 MEMB     85       POPE     DC11     DRUD     -2.22370      0.400000           0   0.00000       0.00000    
     15300 MEMB     85       POPE     H11A     HDA2A    0.260000E-01   1.00800           0   0.00000       0.00000    
     15301 MEMB     85       POPE     H11B     HDA2A    0.260000E-01   1.00800           0   0.00000       0.00000    
     15302 MEMB     85       POPE     P        PD1A      2.90360       30.5740           0 -0.974000       2.09800    
     15303 MEMB     85       POPE     DP       DRUD     -1.71260      0.400000           0   0.00000       0.00000    
     15304 MEMB     85       POPE     O13      OD2C2B   0.798400       15.5994           0 -0.931000       1.08300    
     15305 MEMB     85       POPE     DO13     DRUD     -1.67440      0.400000           0   0.00000       0.00000    
     15306 MEMB     85       POPE     O14      OD2C2B   0.798400       15.5994           0 -0.931000       1.08300    
     15307 MEMB     85       POPE     DO14     DRUD     -1.67440      0.400000           0   0.00000       0.00000    
     15308 MEMB     85       POPE     O11      OD30B     1.17720       15.5994           0 -0.901000      0.181000    
     15309 MEMB     85       POPE     DO11     DRUD     -1.64720      0.400000           0   0.00000       0.00000    
     15310 MEMB     85       POPE     O12      OD30B     1.17720       15.5994           0 -0.901000      0.181000    
     15311 MEMB     85       POPE     DO12     DRUD     -1.64720      0.400000           0   0.00000       0.00000    
     15312 MEMB     85       POPE     C1       CD32A     2.42220       11.6110           0  -1.64200      0.862000    
     15313 MEMB     85       POPE     DC1      DRUD     -2.22370      0.400000           0   0.00000       0.00000    
     15314 MEMB     85       POPE     HA       HDA2A    0.260000E-01   1.00800           0   0.00000       0.00000    
     15315 MEMB     85       POPE     HB       HDA2A    0.260000E-01   1.00800           0   0.00000       0.00000    
     15316 MEMB     85       POPE     C2       CD31C     2.52830       11.6110           0  -1.79700      0.410000    
     15317 MEMB     85       POPE     DC2      DRUD     -2.32630      0.400000           0   0.00000       0.00000    
     15318 MEMB     85       POPE     HS       HDA1A    0.116000       1.00800           0   0.00000       0.00000    
     15319 MEMB     85       POPE     O21      OD30CL    1.48470       15.5994           0 -0.732000      0.601000    
     15320 MEMB     85       POPE     DO21     DRUD     -1.48470      0.400000           0   0.00000       0.00000    
     15321 MEMB     85       POPE     C21      CD2O3B    2.72820       11.6110           0  -1.37000       1.74700    
     15322 MEMB     85       POPE     DC21     DRUD     -2.03120      0.400000           0   0.00000       0.00000    
     15323 MEMB     85       POPE     O22      OD2C3B    1.64990       15.5994           0 -0.904000      0.565000    
     15324 MEMB     85       POPE     DO22     DRUD     -1.64990      0.400000           0   0.00000       0.00000    
     15325 MEMB     85       POPE     C22      CD32C     2.24380       11.6110           0  -1.99300      0.410000    
     15326 MEMB     85       POPE     DC22     DRUD     -2.44980      0.400000           0   0.00000       0.00000    
     15327 MEMB     85       POPE     H2R      HDA2A    0.690000E-01   1.00800           0   0.00000       0.00000    
     15328 MEMB     85       POPE     H2S      HDA2A    0.690000E-01   1.00800           0   0.00000       0.00000    
     15329 MEMB     85       POPE     LP1A     LPD     -0.349000       0.00000          -1   0.00000       0.00000    
     15330 MEMB     85       POPE     LP1B     LPD     -0.258000       0.00000          -1   0.00000       0.00000    
     15331 MEMB     85       POPE     LPMA     LPD     -0.170000       0.00000          -1   0.00000       0.00000    
     15332 MEMB     85       POPE     LPMB     LPD     -0.170000       0.00000          -1   0.00000       0.00000    
     15333 MEMB     85       POPE     C3       CD32C     2.41230       11.6110           0  -1.79700      0.410000    
     15334 MEMB     85       POPE     DC3      DRUD     -2.32630      0.400000           0   0.00000       0.00000    
     15335 MEMB     85       POPE     HX       HDA2A    0.116000       1.00800           0   0.00000       0.00000    
     15336 MEMB     85       POPE     HY       HDA2A    0.116000       1.00800           0   0.00000       0.00000    
     15337 MEMB     85       POPE     O31      OD30CL    1.48470       15.5994           0 -0.732000      0.601000    
     15338 MEMB     85       POPE     DO31     DRUD     -1.48470      0.400000           0   0.00000       0.00000    
     15339 MEMB     85       POPE     C31      CD2O3B    2.72820       11.6110           0  -1.37000       1.74700    
     15340 MEMB     85       POPE     DC31     DRUD     -2.03120      0.400000           0   0.00000       0.00000    
     15341 MEMB     85       POPE     O32      OD2C3B    1.64990       15.5994           0 -0.904000      0.565000    
     15342 MEMB     85       POPE     DO32     DRUD     -1.64990      0.400000           0   0.00000       0.00000    
     15343 MEMB     85       POPE     C32      CD32C     2.24380       11.6110           0  -1.99300      0.410000    
     15344 MEMB     85       POPE     DC32     DRUD     -2.44980      0.400000           0   0.00000       0.00000    
     15345 MEMB     85       POPE     H2X      HDA2A    0.690000E-01   1.00800           0   0.00000       0.00000    
     15346 MEMB     85       POPE     H2Y      HDA2A    0.690000E-01   1.00800           0   0.00000       0.00000    
     15347 MEMB     85       POPE     LP1C     LPD     -0.349000       0.00000          -1   0.00000       0.00000    
     15348 MEMB     85       POPE     LP1D     LPD     -0.258000       0.00000          -1   0.00000       0.00000    
     15349 MEMB     85       POPE     LPMC     LPD     -0.170000       0.00000          -1   0.00000       0.00000    
     15350 MEMB     85       POPE     LPMD     LPD     -0.170000       0.00000          -1   0.00000       0.00000    
     15351 MEMB     85       POPE     C23      CD32A     2.07980       11.6110           0  -1.66000       1.30000    
     15352 MEMB     85       POPE     DC23     DRUD     -2.23580      0.400000           0   0.00000       0.00000    
     15353 MEMB     85       POPE     H3R      HDA2A    0.780000E-01   1.00800           0   0.00000       0.00000    
     15354 MEMB     85       POPE     H3S      HDA2A    0.780000E-01   1.00800           0   0.00000       0.00000    
     15355 MEMB     85       POPE     C24      CD32A     2.07980       11.6110           0  -1.66000       1.30000    
     15356 MEMB     85       POPE     DC24     DRUD     -2.23580      0.400000           0   0.00000       0.00000    
     15357 MEMB     85       POPE     H4R      HDA2A    0.780000E-01   1.00800           0   0.00000       0.00000    
     15358 MEMB     85       POPE     H4S      HDA2A    0.780000E-01   1.00800           0   0.00000       0.00000    
     15359 MEMB     85       POPE     C25      CD32A     2.07980       11.6110           0  -1.66000       1.30000    
     15360 MEMB     85       POPE     DC25     DRUD     -2.23580      0.400000           0   0.00000       0.00000    
     15361 MEMB     85       POPE     H5R      HDA2A    0.780000E-01   1.00800           0   0.00000       0.00000    
     15362 MEMB     85       POPE     H5S      HDA2A    0.780000E-01   1.00800           0   0.00000       0.00000    
     15363 MEMB     85       POPE     C26      CD32A     2.07980       11.6110           0  -1.66000       1.30000    
     15364 MEMB     85       POPE     DC26     DRUD     -2.23580      0.400000           0   0.00000       0.00000    
     15365 MEMB     85       POPE     H6R      HDA2A    0.780000E-01   1.00800           0   0.00000       0.00000    
     15366 MEMB     85       POPE     H6S      HDA2A    0.780000E-01   1.00800           0   0.00000       0.00000    
     15367 MEMB     85       POPE     C27      CD32A     2.07980       11.6110           0  -1.66000       1.30000    
     15368 MEMB     85       POPE     DC27     DRUD     -2.23580      0.400000           0   0.00000       0.00000    
     15369 MEMB     85       POPE     H7R      HDA2A    0.780000E-01   1.00800           0   0.00000       0.00000    
     15370 MEMB     85       POPE     H7S      HDA2A    0.780000E-01   1.00800           0   0.00000       0.00000    
     15371 MEMB     85       POPE     C28      CD32A     2.07980       11.6110           0  -1.66000       1.30000    
     15372 MEMB     85       POPE     DC28     DRUD     -2.23580      0.400000           0   0.00000       0.00000    
     15373 MEMB     85       POPE     H8R      HDA2A    0.780000E-01   1.00800           0   0.00000       0.00000    
     15374 MEMB     85       POPE     H8S      HDA2A    0.780000E-01   1.00800           0   0.00000       0.00000    
     15375 MEMB     85       POPE     C29      CD2C1A    2.33700       11.6110           0  -1.99000      0.750000    
     15376 MEMB     85       POPE     DC29     DRUD     -2.44800      0.400000           0   0.00000       0.00000    
     15377 MEMB     85       POPE     H91      HD2C1A   0.111000       1.00800           0   0.00000       0.00000    
     15378 MEMB     85       POPE     C210     CD2C1A    2.33700       11.6110           0  -1.99000      0.750000    
     15379 MEMB     85       POPE     DC210    DRUD     -2.44800      0.400000           0   0.00000       0.00000    
     15380 MEMB     85       POPE     H101     HD2C1A   0.111000       1.00800           0   0.00000       0.00000    
     15381 MEMB     85       POPE     C211     CD32A     2.07980       11.6110           0  -1.66000       1.30000    
     15382 MEMB     85       POPE     DC211    DRUD     -2.23580      0.400000           0   0.00000       0.00000    
     15383 MEMB     85       POPE     H11R     HDA2A    0.780000E-01   1.00800           0   0.00000       0.00000    
     15384 MEMB     85       POPE     H11S     HDA2A    0.780000E-01   1.00800           0   0.00000       0.00000    
     15385 MEMB     85       POPE     C212     CD32A     2.07980       11.6110           0  -1.66000       1.30000    
     15386 MEMB     85       POPE     DC212    DRUD     -2.23580      0.400000           0   0.00000       0.00000    
     15387 MEMB     85       POPE     H12R     HDA2A    0.780000E-01   1.00800           0   0.00000       0.00000    
     15388 MEMB     85       POPE     H12S     HDA2A    0.780000E-01   1.00800           0   0.00000       0.00000    
     15389 MEMB     85       POPE     C213     CD32A     2.07980       11.6110           0  -1.66000       1.30000    
     15390 MEMB     85       POPE     DC213    DRUD     -2.23580      0.400000           0   0.00000       0.00000    
     15391 MEMB     85       POPE     H13R     HDA2A    0.780000E-01   1.00800           0   0.00000       0.00000    
     15392 MEMB     85       POPE     H13S     HDA2A    0.780000E-01   1.00800           0   0.00000       0.00000    
     15393 MEMB     85       POPE     C214     CD32A     2.07980       11.6110           0  -1.66000       1.30000    
     15394 MEMB     85       POPE     DC214    DRUD     -2.23580      0.400000           0   0.00000       0.00000    
     15395 MEMB     85       POPE     H14R     HDA2A    0.780000E-01   1.00800           0   0.00000       0.00000    
     15396 MEMB     85       POPE     H14S     HDA2A    0.780000E-01   1.00800           0   0.00000       0.00000    
     15397 MEMB     85       POPE     C215     CD32A     2.07980       11.6110           0  -1.66000       1.30000    
     15398 MEMB     85       POPE     DC215    DRUD     -2.23580      0.400000           0   0.00000       0.00000    
     15399 MEMB     85       POPE     H15R     HDA2A    0.780000E-01   1.00800           0   0.00000       0.00000    
     15400 MEMB     85       POPE     H15S     HDA2A    0.780000E-01   1.00800           0   0.00000       0.00000    
     15401 MEMB     85       POPE     C216     CD32A     2.07980       11.6110           0  -1.66000       1.30000    
     15402 MEMB     85       POPE     DC216    DRUD     -2.23580      0.400000           0   0.00000       0.00000    
     15403 MEMB     85       POPE     H16R     HDA2A    0.780000E-01   1.00800           0   0.00000       0.00000    
     15404 MEMB     85       POPE     H16S     HDA2A    0.780000E-01   1.00800           0   0.00000       0.00000    
     15405 MEMB     85       POPE     C217     CD32A     2.07980       11.6110           0  -1.66000       1.30000    
     15406 MEMB     85       POPE     DC217    DRUD     -2.23580      0.400000           0   0.00000       0.00000    
     15407 MEMB     85       POPE     H17R     HDA2A    0.780000E-01   1.00800           0   0.00000       0.00000    
     15408 MEMB     85       POPE     H17S     HDA2A    0.780000E-01   1.00800           0   0.00000       0.00000    
     15409 MEMB     85       POPE     C218     CD33A     2.30820       11.6110           0  -2.05100       1.30000    
     15410 MEMB     85       POPE     DC218    DRUD     -2.48520      0.400000           0   0.00000       0.00000    
     15411 MEMB     85       POPE     H18R     HDA3A    0.590000E-01   1.00800           0   0.00000       0.00000    
     15412 MEMB     85       POPE     H18S     HDA3A    0.590000E-01   1.00800           0   0.00000       0.00000    
     15413 MEMB     85       POPE     H18T     HDA3A    0.590000E-01   1.00800           0   0.00000       0.00000    
     15414 MEMB     85       POPE     C33      CD32A     2.07980       11.6110           0  -1.66000       1.30000    
     15415 MEMB     85       POPE     DC33     DRUD     -2.23580      0.400000           0   0.00000       0.00000    
     15416 MEMB     85       POPE     H3X      HDA2A    0.780000E-01   1.00800           0   0.00000       0.00000    
     15417 MEMB     85       POPE     H3Y      HDA2A    0.780000E-01   1.00800           0   0.00000       0.00000    
     15418 MEMB     85       POPE     C34      CD32A     2.07980       11.6110           0  -1.66000       1.30000    
     15419 MEMB     85       POPE     DC34     DRUD     -2.23580      0.400000           0   0.00000       0.00000    
     15420 MEMB     85       POPE     H4X      HDA2A    0.780000E-01   1.00800           0   0.00000       0.00000    
     15421 MEMB     85       POPE     H4Y      HDA2A    0.780000E-01   1.00800           0   0.00000       0.00000    
     15422 MEMB     85       POPE     C35      CD32A     2.07980       11.6110           0  -1.66000       1.30000    
     15423 MEMB     85       POPE     DC35     DRUD     -2.23580      0.400000           0   0.00000       0.00000    
     15424 MEMB     85       POPE     H5X      HDA2A    0.780000E-01   1.00800           0   0.00000       0.00000    
     15425 MEMB     85       POPE     H5Y      HDA2A    0.780000E-01   1.00800           0   0.00000       0.00000    
     15426 MEMB     85       POPE     C36      CD32A     2.07980       11.6110           0  -1.66000       1.30000    
     15427 MEMB     85       POPE     DC36     DRUD     -2.23580      0.400000           0   0.00000       0.00000    
     15428 MEMB     85       POPE     H6X      HDA2A    0.780000E-01   1.00800           0   0.00000       0.00000    
     15429 MEMB     85       POPE     H6Y      HDA2A    0.780000E-01   1.00800           0   0.00000       0.00000    
     15430 MEMB     85       POPE     C37      CD32A     2.07980       11.6110           0  -1.66000       1.30000    
     15431 MEMB     85       POPE     DC37     DRUD     -2.23580      0.400000           0   0.00000       0.00000    
     15432 MEMB     85       POPE     H7X      HDA2A    0.780000E-01   1.00800           0   0.00000       0.00000    
     15433 MEMB     85       POPE     H7Y      HDA2A    0.780000E-01   1.00800           0   0.00000       0.00000    
     15434 MEMB     85       POPE     C38      CD32A     2.07980       11.6110           0  -1.66000       1.30000    
     15435 MEMB     85       POPE     DC38     DRUD     -2.23580      0.400000           0   0.00000       0.00000    
     15436 MEMB     85       POPE     H8X      HDA2A    0.780000E-01   1.00800           0   0.00000       0.00000    
     15437 MEMB     85       POPE     H8Y      HDA2A    0.780000E-01   1.00800           0   0.00000       0.00000    
     15438 MEMB     85       POPE     C39      CD32A     2.07980       11.6110           0  -1.66000       1.30000    
     15439 MEMB     85       POPE     DC39     DRUD     -2.23580      0.400000           0   0.00000       0.00000    
     15440 MEMB     85       POPE     H9X      HDA2A    0.780000E-01   1.00800           0   0.00000       0.00000    
     15441 MEMB     85       POPE     H9Y      HDA2A    0.780000E-01   1.00800           0   0.00000       0.00000    
     15442 MEMB     85       POPE     C310     CD32A     2.07980       11.6110           0  -1.66000       1.30000    
     15443 MEMB     85       POPE     DC310    DRUD     -2.23580      0.400000           0   0.00000       0.00000    
     15444 MEMB     85       POPE     H10X     HDA2A    0.780000E-01   1.00800           0   0.00000       0.00000    
     15445 MEMB     85       POPE     H10Y     HDA2A    0.780000E-01   1.00800           0   0.00000       0.00000    
     15446 MEMB     85       POPE     C311     CD32A     2.07980       11.6110           0  -1.66000       1.30000    
     15447 MEMB     85       POPE     DC311    DRUD     -2.23580      0.400000           0   0.00000       0.00000    
     15448 MEMB     85       POPE     H11X     HDA2A    0.780000E-01   1.00800           0   0.00000       0.00000    
     15449 MEMB     85       POPE     H11Y     HDA2A    0.780000E-01   1.00800           0   0.00000       0.00000    
     15450 MEMB     85       POPE     C312     CD32A     2.07980       11.6110           0  -1.66000       1.30000    
     15451 MEMB     85       POPE     DC312    DRUD     -2.23580      0.400000           0   0.00000       0.00000    
     15452 MEMB     85       POPE     H12X     HDA2A    0.780000E-01   1.00800           0   0.00000       0.00000    
     15453 MEMB     85       POPE     H12Y     HDA2A    0.780000E-01   1.00800           0   0.00000       0.00000    
     15454 MEMB     85       POPE     C313     CD32A     2.07980       11.6110           0  -1.66000       1.30000    
     15455 MEMB     85       POPE     DC313    DRUD     -2.23580      0.400000           0   0.00000       0.00000    
     15456 MEMB     85       POPE     H13X     HDA2A    0.780000E-01   1.00800           0   0.00000       0.00000    
     15457 MEMB     85       POPE     H13Y     HDA2A    0.780000E-01   1.00800           0   0.00000       0.00000    
     15458 MEMB     85       POPE     C314     CD32A     2.07980       11.6110           0  -1.66000       1.30000    
     15459 MEMB     85       POPE     DC314    DRUD     -2.23580      0.400000           0   0.00000       0.00000    
     15460 MEMB     85       POPE     H14X     HDA2A    0.780000E-01   1.00800           0   0.00000       0.00000    
     15461 MEMB     85       POPE     H14Y     HDA2A    0.780000E-01   1.00800           0   0.00000       0.00000    
     15462 MEMB     85       POPE     C315     CD32A     2.07980       11.6110           0  -1.66000       1.30000    
     15463 MEMB     85       POPE     DC315    DRUD     -2.23580      0.400000           0   0.00000       0.00000    
     15464 MEMB     85       POPE     H15X     HDA2A    0.780000E-01   1.00800           0   0.00000       0.00000    
     15465 MEMB     85       POPE     H15Y     HDA2A    0.780000E-01   1.00800           0   0.00000       0.00000    
     15466 MEMB     85       POPE     C316     CD33A     2.30820       11.6110           0  -2.05100       1.30000    
     15467 MEMB     85       POPE     DC316    DRUD     -2.48520      0.400000           0   0.00000       0.00000    
     15468 MEMB     85       POPE     H16X     HDA3A    0.590000E-01   1.00800           0   0.00000       0.00000    
     15469 MEMB     85       POPE     H16Y     HDA3A    0.590000E-01   1.00800           0   0.00000       0.00000    
     15470 MEMB     85       POPE     H16Z     HDA3A    0.590000E-01   1.00800           0   0.00000       0.00000    
     15471 MEMB     86       POPE     N        ND3P3A    1.62810       13.6070           0  -1.29800      0.895000    
     15472 MEMB     86       POPE     DN       DRUD     -1.97710      0.400000           0   0.00000       0.00000    
     15473 MEMB     86       POPE     HN1      HDP1B    0.340000       1.00800           0   0.00000       0.00000    
     15474 MEMB     86       POPE     HN2      HDP1B    0.340000       1.00800           0   0.00000       0.00000    
     15475 MEMB     86       POPE     HN3      HDP1B    0.340000       1.00800           0   0.00000       0.00000    
     15476 MEMB     86       POPE     C12      CD32A     2.27610       11.6110           0  -1.65600      0.895000    
     15477 MEMB     86       POPE     DC12     DRUD     -2.23310      0.400000           0   0.00000       0.00000    
     15478 MEMB     86       POPE     H12A     HDA2A    0.143000       1.00800           0   0.00000       0.00000    
     15479 MEMB     86       POPE     H12B     HDA2A    0.143000       1.00800           0   0.00000       0.00000    
     15480 MEMB     86       POPE     C11      CD32A     2.42220       11.6110           0  -1.64200      0.862000    
     15481 MEMB     86       POPE     DC11     DRUD     -2.22370      0.400000           0   0.00000       0.00000    
     15482 MEMB     86       POPE     H11A     HDA2A    0.260000E-01   1.00800           0   0.00000       0.00000    
     15483 MEMB     86       POPE     H11B     HDA2A    0.260000E-01   1.00800           0   0.00000       0.00000    
     15484 MEMB     86       POPE     P        PD1A      2.90360       30.5740           0 -0.974000       2.09800    
     15485 MEMB     86       POPE     DP       DRUD     -1.71260      0.400000           0   0.00000       0.00000    
     15486 MEMB     86       POPE     O13      OD2C2B   0.798400       15.5994           0 -0.931000       1.08300    
     15487 MEMB     86       POPE     DO13     DRUD     -1.67440      0.400000           0   0.00000       0.00000    
     15488 MEMB     86       POPE     O14      OD2C2B   0.798400       15.5994           0 -0.931000       1.08300    
     15489 MEMB     86       POPE     DO14     DRUD     -1.67440      0.400000           0   0.00000       0.00000    
     15490 MEMB     86       POPE     O11      OD30B     1.17720       15.5994           0 -0.901000      0.181000    
     15491 MEMB     86       POPE     DO11     DRUD     -1.64720      0.400000           0   0.00000       0.00000    
     15492 MEMB     86       POPE     O12      OD30B     1.17720       15.5994           0 -0.901000      0.181000    
     15493 MEMB     86       POPE     DO12     DRUD     -1.64720      0.400000           0   0.00000       0.00000    
     15494 MEMB     86       POPE     C1       CD32A     2.42220       11.6110           0  -1.64200      0.862000    
     15495 MEMB     86       POPE     DC1      DRUD     -2.22370      0.400000           0   0.00000       0.00000    
     15496 MEMB     86       POPE     HA       HDA2A    0.260000E-01   1.00800           0   0.00000       0.00000    
     15497 MEMB     86       POPE     HB       HDA2A    0.260000E-01   1.00800           0   0.00000       0.00000    
     15498 MEMB     86       POPE     C2       CD31C     2.52830       11.6110           0  -1.79700      0.410000    
     15499 MEMB     86       POPE     DC2      DRUD     -2.32630      0.400000           0   0.00000       0.00000    
     15500 MEMB     86       POPE     HS       HDA1A    0.116000       1.00800           0   0.00000       0.00000    
     15501 MEMB     86       POPE     O21      OD30CL    1.48470       15.5994           0 -0.732000      0.601000    
     15502 MEMB     86       POPE     DO21     DRUD     -1.48470      0.400000           0   0.00000       0.00000    
     15503 MEMB     86       POPE     C21      CD2O3B    2.72820       11.6110           0  -1.37000       1.74700    
     15504 MEMB     86       POPE     DC21     DRUD     -2.03120      0.400000           0   0.00000       0.00000    
     15505 MEMB     86       POPE     O22      OD2C3B    1.64990       15.5994           0 -0.904000      0.565000    
     15506 MEMB     86       POPE     DO22     DRUD     -1.64990      0.400000           0   0.00000       0.00000    
     15507 MEMB     86       POPE     C22      CD32C     2.24380       11.6110           0  -1.99300      0.410000    
     15508 MEMB     86       POPE     DC22     DRUD     -2.44980      0.400000           0   0.00000       0.00000    
     15509 MEMB     86       POPE     H2R      HDA2A    0.690000E-01   1.00800           0   0.00000       0.00000    
     15510 MEMB     86       POPE     H2S      HDA2A    0.690000E-01   1.00800           0   0.00000       0.00000    
     15511 MEMB     86       POPE     LP1A     LPD     -0.349000       0.00000          -1   0.00000       0.00000    
     15512 MEMB     86       POPE     LP1B     LPD     -0.258000       0.00000          -1   0.00000       0.00000    
     15513 MEMB     86       POPE     LPMA     LPD     -0.170000       0.00000          -1   0.00000       0.00000    
     15514 MEMB     86       POPE     LPMB     LPD     -0.170000       0.00000          -1   0.00000       0.00000    
     15515 MEMB     86       POPE     C3       CD32C     2.41230       11.6110           0  -1.79700      0.410000    
     15516 MEMB     86       POPE     DC3      DRUD     -2.32630      0.400000           0   0.00000       0.00000    
     15517 MEMB     86       POPE     HX       HDA2A    0.116000       1.00800           0   0.00000       0.00000    
     15518 MEMB     86       POPE     HY       HDA2A    0.116000       1.00800           0   0.00000       0.00000    
     15519 MEMB     86       POPE     O31      OD30CL    1.48470       15.5994           0 -0.732000      0.601000    
     15520 MEMB     86       POPE     DO31     DRUD     -1.48470      0.400000           0   0.00000       0.00000    
     15521 MEMB     86       POPE     C31      CD2O3B    2.72820       11.6110           0  -1.37000       1.74700    
     15522 MEMB     86       POPE     DC31     DRUD     -2.03120      0.400000           0   0.00000       0.00000    
     15523 MEMB     86       POPE     O32      OD2C3B    1.64990       15.5994           0 -0.904000      0.565000    
     15524 MEMB     86       POPE     DO32     DRUD     -1.64990      0.400000           0   0.00000       0.00000    
     15525 MEMB     86       POPE     C32      CD32C     2.24380       11.6110           0  -1.99300      0.410000    
     15526 MEMB     86       POPE     DC32     DRUD     -2.44980      0.400000           0   0.00000       0.00000    
     15527 MEMB     86       POPE     H2X      HDA2A    0.690000E-01   1.00800           0   0.00000       0.00000    
     15528 MEMB     86       POPE     H2Y      HDA2A    0.690000E-01   1.00800           0   0.00000       0.00000    
     15529 MEMB     86       POPE     LP1C     LPD     -0.349000       0.00000          -1   0.00000       0.00000    
     15530 MEMB     86       POPE     LP1D     LPD     -0.258000       0.00000          -1   0.00000       0.00000    
     15531 MEMB     86       POPE     LPMC     LPD     -0.170000       0.00000          -1   0.00000       0.00000    
     15532 MEMB     86       POPE     LPMD     LPD     -0.170000       0.00000          -1   0.00000       0.00000    
     15533 MEMB     86       POPE     C23      CD32A     2.07980       11.6110           0  -1.66000       1.30000    
     15534 MEMB     86       POPE     DC23     DRUD     -2.23580      0.400000           0   0.00000       0.00000    
     15535 MEMB     86       POPE     H3R      HDA2A    0.780000E-01   1.00800           0   0.00000       0.00000    
     15536 MEMB     86       POPE     H3S      HDA2A    0.780000E-01   1.00800           0   0.00000       0.00000    
     15537 MEMB     86       POPE     C24      CD32A     2.07980       11.6110           0  -1.66000       1.30000    
     15538 MEMB     86       POPE     DC24     DRUD     -2.23580      0.400000           0   0.00000       0.00000    
     15539 MEMB     86       POPE     H4R      HDA2A    0.780000E-01   1.00800           0   0.00000       0.00000    
     15540 MEMB     86       POPE     H4S      HDA2A    0.780000E-01   1.00800           0   0.00000       0.00000    
     15541 MEMB     86       POPE     C25      CD32A     2.07980       11.6110           0  -1.66000       1.30000    
     15542 MEMB     86       POPE     DC25     DRUD     -2.23580      0.400000           0   0.00000       0.00000    
     15543 MEMB     86       POPE     H5R      HDA2A    0.780000E-01   1.00800           0   0.00000       0.00000    
     15544 MEMB     86       POPE     H5S      HDA2A    0.780000E-01   1.00800           0   0.00000       0.00000    
     15545 MEMB     86       POPE     C26      CD32A     2.07980       11.6110           0  -1.66000       1.30000    
     15546 MEMB     86       POPE     DC26     DRUD     -2.23580      0.400000           0   0.00000       0.00000    
     15547 MEMB     86       POPE     H6R      HDA2A    0.780000E-01   1.00800           0   0.00000       0.00000    
     15548 MEMB     86       POPE     H6S      HDA2A    0.780000E-01   1.00800           0   0.00000       0.00000    
     15549 MEMB     86       POPE     C27      CD32A     2.07980       11.6110           0  -1.66000       1.30000    
     15550 MEMB     86       POPE     DC27     DRUD     -2.23580      0.400000           0   0.00000       0.00000    
     15551 MEMB     86       POPE     H7R      HDA2A    0.780000E-01   1.00800           0   0.00000       0.00000    
     15552 MEMB     86       POPE     H7S      HDA2A    0.780000E-01   1.00800           0   0.00000       0.00000    
     15553 MEMB     86       POPE     C28      CD32A     2.07980       11.6110           0  -1.66000       1.30000    
     15554 MEMB     86       POPE     DC28     DRUD     -2.23580      0.400000           0   0.00000       0.00000    
     15555 MEMB     86       POPE     H8R      HDA2A    0.780000E-01   1.00800           0   0.00000       0.00000    
     15556 MEMB     86       POPE     H8S      HDA2A    0.780000E-01   1.00800           0   0.00000       0.00000    
     15557 MEMB     86       POPE     C29      CD2C1A    2.33700       11.6110           0  -1.99000      0.750000    
     15558 MEMB     86       POPE     DC29     DRUD     -2.44800      0.400000           0   0.00000       0.00000    
     15559 MEMB     86       POPE     H91      HD2C1A   0.111000       1.00800           0   0.00000       0.00000    
     15560 MEMB     86       POPE     C210     CD2C1A    2.33700       11.6110           0  -1.99000      0.750000    
     15561 MEMB     86       POPE     DC210    DRUD     -2.44800      0.400000           0   0.00000       0.00000    
     15562 MEMB     86       POPE     H101     HD2C1A   0.111000       1.00800           0   0.00000       0.00000    
     15563 MEMB     86       POPE     C211     CD32A     2.07980       11.6110           0  -1.66000       1.30000    
     15564 MEMB     86       POPE     DC211    DRUD     -2.23580      0.400000           0   0.00000       0.00000    
     15565 MEMB     86       POPE     H11R     HDA2A    0.780000E-01   1.00800           0   0.00000       0.00000    
     15566 MEMB     86       POPE     H11S     HDA2A    0.780000E-01   1.00800           0   0.00000       0.00000    
     15567 MEMB     86       POPE     C212     CD32A     2.07980       11.6110           0  -1.66000       1.30000    
     15568 MEMB     86       POPE     DC212    DRUD     -2.23580      0.400000           0   0.00000       0.00000    
     15569 MEMB     86       POPE     H12R     HDA2A    0.780000E-01   1.00800           0   0.00000       0.00000    
     15570 MEMB     86       POPE     H12S     HDA2A    0.780000E-01   1.00800           0   0.00000       0.00000    
     15571 MEMB     86       POPE     C213     CD32A     2.07980       11.6110           0  -1.66000       1.30000    
     15572 MEMB     86       POPE     DC213    DRUD     -2.23580      0.400000           0   0.00000       0.00000    
     15573 MEMB     86       POPE     H13R     HDA2A    0.780000E-01   1.00800           0   0.00000       0.00000    
     15574 MEMB     86       POPE     H13S     HDA2A    0.780000E-01   1.00800           0   0.00000       0.00000    
     15575 MEMB     86       POPE     C214     CD32A     2.07980       11.6110           0  -1.66000       1.30000    
     15576 MEMB     86       POPE     DC214    DRUD     -2.23580      0.400000           0   0.00000       0.00000    
     15577 MEMB     86       POPE     H14R     HDA2A    0.780000E-01   1.00800           0   0.00000       0.00000    
     15578 MEMB     86       POPE     H14S     HDA2A    0.780000E-01   1.00800           0   0.00000       0.00000    
     15579 MEMB     86       POPE     C215     CD32A     2.07980       11.6110           0  -1.66000       1.30000    
     15580 MEMB     86       POPE     DC215    DRUD     -2.23580      0.400000           0   0.00000       0.00000    
     15581 MEMB     86       POPE     H15R     HDA2A    0.780000E-01   1.00800           0   0.00000       0.00000    
     15582 MEMB     86       POPE     H15S     HDA2A    0.780000E-01   1.00800           0   0.00000       0.00000    
     15583 MEMB     86       POPE     C216     CD32A     2.07980       11.6110           0  -1.66000       1.30000    
     15584 MEMB     86       POPE     DC216    DRUD     -2.23580      0.400000           0   0.00000       0.00000    
     15585 MEMB     86       POPE     H16R     HDA2A    0.780000E-01   1.00800           0   0.00000       0.00000    
     15586 MEMB     86       POPE     H16S     HDA2A    0.780000E-01   1.00800           0   0.00000       0.00000    
     15587 MEMB     86       POPE     C217     CD32A     2.07980       11.6110           0  -1.66000       1.30000    
     15588 MEMB     86       POPE     DC217    DRUD     -2.23580      0.400000           0   0.00000       0.00000    
     15589 MEMB     86       POPE     H17R     HDA2A    0.780000E-01   1.00800           0   0.00000       0.00000    
     15590 MEMB     86       POPE     H17S     HDA2A    0.780000E-01   1.00800           0   0.00000       0.00000    
     15591 MEMB     86       POPE     C218     CD33A     2.30820       11.6110           0  -2.05100       1.30000    
     15592 MEMB     86       POPE     DC218    DRUD     -2.48520      0.400000           0   0.00000       0.00000    
     15593 MEMB     86       POPE     H18R     HDA3A    0.590000E-01   1.00800           0   0.00000       0.00000    
     15594 MEMB     86       POPE     H18S     HDA3A    0.590000E-01   1.00800           0   0.00000       0.00000    
     15595 MEMB     86       POPE     H18T     HDA3A    0.590000E-01   1.00800           0   0.00000       0.00000    
     15596 MEMB     86       POPE     C33      CD32A     2.07980       11.6110           0  -1.66000       1.30000    
     15597 MEMB     86       POPE     DC33     DRUD     -2.23580      0.400000           0   0.00000       0.00000    
     15598 MEMB     86       POPE     H3X      HDA2A    0.780000E-01   1.00800           0   0.00000       0.00000    
     15599 MEMB     86       POPE     H3Y      HDA2A    0.780000E-01   1.00800           0   0.00000       0.00000    
     15600 MEMB     86       POPE     C34      CD32A     2.07980       11.6110           0  -1.66000       1.30000    
     15601 MEMB     86       POPE     DC34     DRUD     -2.23580      0.400000           0   0.00000       0.00000    
     15602 MEMB     86       POPE     H4X      HDA2A    0.780000E-01   1.00800           0   0.00000       0.00000    
     15603 MEMB     86       POPE     H4Y      HDA2A    0.780000E-01   1.00800           0   0.00000       0.00000    
     15604 MEMB     86       POPE     C35      CD32A     2.07980       11.6110           0  -1.66000       1.30000    
     15605 MEMB     86       POPE     DC35     DRUD     -2.23580      0.400000           0   0.00000       0.00000    
     15606 MEMB     86       POPE     H5X      HDA2A    0.780000E-01   1.00800           0   0.00000       0.00000    
     15607 MEMB     86       POPE     H5Y      HDA2A    0.780000E-01   1.00800           0   0.00000       0.00000    
     15608 MEMB     86       POPE     C36      CD32A     2.07980       11.6110           0  -1.66000       1.30000    
     15609 MEMB     86       POPE     DC36     DRUD     -2.23580      0.400000           0   0.00000       0.00000    
     15610 MEMB     86       POPE     H6X      HDA2A    0.780000E-01   1.00800           0   0.00000       0.00000    
     15611 MEMB     86       POPE     H6Y      HDA2A    0.780000E-01   1.00800           0   0.00000       0.00000    
     15612 MEMB     86       POPE     C37      CD32A     2.07980       11.6110           0  -1.66000       1.30000    
     15613 MEMB     86       POPE     DC37     DRUD     -2.23580      0.400000           0   0.00000       0.00000    
     15614 MEMB     86       POPE     H7X      HDA2A    0.780000E-01   1.00800           0   0.00000       0.00000    
     15615 MEMB     86       POPE     H7Y      HDA2A    0.780000E-01   1.00800           0   0.00000       0.00000    
     15616 MEMB     86       POPE     C38      CD32A     2.07980       11.6110           0  -1.66000       1.30000    
     15617 MEMB     86       POPE     DC38     DRUD     -2.23580      0.400000           0   0.00000       0.00000    
     15618 MEMB     86       POPE     H8X      HDA2A    0.780000E-01   1.00800           0   0.00000       0.00000    
     15619 MEMB     86       POPE     H8Y      HDA2A    0.780000E-01   1.00800           0   0.00000       0.00000    
     15620 MEMB     86       POPE     C39      CD32A     2.07980       11.6110           0  -1.66000       1.30000    
     15621 MEMB     86       POPE     DC39     DRUD     -2.23580      0.400000           0   0.00000       0.00000    
     15622 MEMB     86       POPE     H9X      HDA2A    0.780000E-01   1.00800           0   0.00000       0.00000    
     15623 MEMB     86       POPE     H9Y      HDA2A    0.780000E-01   1.00800           0   0.00000       0.00000    
     15624 MEMB     86       POPE     C310     CD32A     2.07980       11.6110           0  -1.66000       1.30000    
     15625 MEMB     86       POPE     DC310    DRUD     -2.23580      0.400000           0   0.00000       0.00000    
     15626 MEMB     86       POPE     H10X     HDA2A    0.780000E-01   1.00800           0   0.00000       0.00000    
     15627 MEMB     86       POPE     H10Y     HDA2A    0.780000E-01   1.00800           0   0.00000       0.00000    
     15628 MEMB     86       POPE     C311     CD32A     2.07980       11.6110           0  -1.66000       1.30000    
     15629 MEMB     86       POPE     DC311    DRUD     -2.23580      0.400000           0   0.00000       0.00000    
     15630 MEMB     86       POPE     H11X     HDA2A    0.780000E-01   1.00800           0   0.00000       0.00000    
     15631 MEMB     86       POPE     H11Y     HDA2A    0.780000E-01   1.00800           0   0.00000       0.00000    
     15632 MEMB     86       POPE     C312     CD32A     2.07980       11.6110           0  -1.66000       1.30000    
     15633 MEMB     86       POPE     DC312    DRUD     -2.23580      0.400000           0   0.00000       0.00000    
     15634 MEMB     86       POPE     H12X     HDA2A    0.780000E-01   1.00800           0   0.00000       0.00000    
     15635 MEMB     86       POPE     H12Y     HDA2A    0.780000E-01   1.00800           0   0.00000       0.00000    
     15636 MEMB     86       POPE     C313     CD32A     2.07980       11.6110           0  -1.66000       1.30000    
     15637 MEMB     86       POPE     DC313    DRUD     -2.23580      0.400000           0   0.00000       0.00000    
     15638 MEMB     86       POPE     H13X     HDA2A    0.780000E-01   1.00800           0   0.00000       0.00000    
     15639 MEMB     86       POPE     H13Y     HDA2A    0.780000E-01   1.00800           0   0.00000       0.00000    
     15640 MEMB     86       POPE     C314     CD32A     2.07980       11.6110           0  -1.66000       1.30000    
     15641 MEMB     86       POPE     DC314    DRUD     -2.23580      0.400000           0   0.00000       0.00000    
     15642 MEMB     86       POPE     H14X     HDA2A    0.780000E-01   1.00800           0   0.00000       0.00000    
     15643 MEMB     86       POPE     H14Y     HDA2A    0.780000E-01   1.00800           0   0.00000       0.00000    
     15644 MEMB     86       POPE     C315     CD32A     2.07980       11.6110           0  -1.66000       1.30000    
     15645 MEMB     86       POPE     DC315    DRUD     -2.23580      0.400000           0   0.00000       0.00000    
     15646 MEMB     86       POPE     H15X     HDA2A    0.780000E-01   1.00800           0   0.00000       0.00000    
     15647 MEMB     86       POPE     H15Y     HDA2A    0.780000E-01   1.00800           0   0.00000       0.00000    
     15648 MEMB     86       POPE     C316     CD33A     2.30820       11.6110           0  -2.05100       1.30000    
     15649 MEMB     86       POPE     DC316    DRUD     -2.48520      0.400000           0   0.00000       0.00000    
     15650 MEMB     86       POPE     H16X     HDA3A    0.590000E-01   1.00800           0   0.00000       0.00000    
     15651 MEMB     86       POPE     H16Y     HDA3A    0.590000E-01   1.00800           0   0.00000       0.00000    
     15652 MEMB     86       POPE     H16Z     HDA3A    0.590000E-01   1.00800           0   0.00000       0.00000    
     15653 MEMB     87       POPE     N        ND3P3A    1.62810       13.6070           0  -1.29800      0.895000    
     15654 MEMB     87       POPE     DN       DRUD     -1.97710      0.400000           0   0.00000       0.00000    
     15655 MEMB     87       POPE     HN1      HDP1B    0.340000       1.00800           0   0.00000       0.00000    
     15656 MEMB     87       POPE     HN2      HDP1B    0.340000       1.00800           0   0.00000       0.00000    
     15657 MEMB     87       POPE     HN3      HDP1B    0.340000       1.00800           0   0.00000       0.00000    
     15658 MEMB     87       POPE     C12      CD32A     2.27610       11.6110           0  -1.65600      0.895000    
     15659 MEMB     87       POPE     DC12     DRUD     -2.23310      0.400000           0   0.00000       0.00000    
     15660 MEMB     87       POPE     H12A     HDA2A    0.143000       1.00800           0   0.00000       0.00000    
     15661 MEMB     87       POPE     H12B     HDA2A    0.143000       1.00800           0   0.00000       0.00000    
     15662 MEMB     87       POPE     C11      CD32A     2.42220       11.6110           0  -1.64200      0.862000    
     15663 MEMB     87       POPE     DC11     DRUD     -2.22370      0.400000           0   0.00000       0.00000    
     15664 MEMB     87       POPE     H11A     HDA2A    0.260000E-01   1.00800           0   0.00000       0.00000    
     15665 MEMB     87       POPE     H11B     HDA2A    0.260000E-01   1.00800           0   0.00000       0.00000    
     15666 MEMB     87       POPE     P        PD1A      2.90360       30.5740           0 -0.974000       2.09800    
     15667 MEMB     87       POPE     DP       DRUD     -1.71260      0.400000           0   0.00000       0.00000    
     15668 MEMB     87       POPE     O13      OD2C2B   0.798400       15.5994           0 -0.931000       1.08300    
     15669 MEMB     87       POPE     DO13     DRUD     -1.67440      0.400000           0   0.00000       0.00000    
     15670 MEMB     87       POPE     O14      OD2C2B   0.798400       15.5994           0 -0.931000       1.08300    
     15671 MEMB     87       POPE     DO14     DRUD     -1.67440      0.400000           0   0.00000       0.00000    
     15672 MEMB     87       POPE     O11      OD30B     1.17720       15.5994           0 -0.901000      0.181000    
     15673 MEMB     87       POPE     DO11     DRUD     -1.64720      0.400000           0   0.00000       0.00000    
     15674 MEMB     87       POPE     O12      OD30B     1.17720       15.5994           0 -0.901000      0.181000    
     15675 MEMB     87       POPE     DO12     DRUD     -1.64720      0.400000           0   0.00000       0.00000    
     15676 MEMB     87       POPE     C1       CD32A     2.42220       11.6110           0  -1.64200      0.862000    
     15677 MEMB     87       POPE     DC1      DRUD     -2.22370      0.400000           0   0.00000       0.00000    
     15678 MEMB     87       POPE     HA       HDA2A    0.260000E-01   1.00800           0   0.00000       0.00000    
     15679 MEMB     87       POPE     HB       HDA2A    0.260000E-01   1.00800           0   0.00000       0.00000    
     15680 MEMB     87       POPE     C2       CD31C     2.52830       11.6110           0  -1.79700      0.410000    
     15681 MEMB     87       POPE     DC2      DRUD     -2.32630      0.400000           0   0.00000       0.00000    
     15682 MEMB     87       POPE     HS       HDA1A    0.116000       1.00800           0   0.00000       0.00000    
     15683 MEMB     87       POPE     O21      OD30CL    1.48470       15.5994           0 -0.732000      0.601000    
     15684 MEMB     87       POPE     DO21     DRUD     -1.48470      0.400000           0   0.00000       0.00000    
     15685 MEMB     87       POPE     C21      CD2O3B    2.72820       11.6110           0  -1.37000       1.74700    
     15686 MEMB     87       POPE     DC21     DRUD     -2.03120      0.400000           0   0.00000       0.00000    
     15687 MEMB     87       POPE     O22      OD2C3B    1.64990       15.5994           0 -0.904000      0.565000    
     15688 MEMB     87       POPE     DO22     DRUD     -1.64990      0.400000           0   0.00000       0.00000    
     15689 MEMB     87       POPE     C22      CD32C     2.24380       11.6110           0  -1.99300      0.410000    
     15690 MEMB     87       POPE     DC22     DRUD     -2.44980      0.400000           0   0.00000       0.00000    
     15691 MEMB     87       POPE     H2R      HDA2A    0.690000E-01   1.00800           0   0.00000       0.00000    
     15692 MEMB     87       POPE     H2S      HDA2A    0.690000E-01   1.00800           0   0.00000       0.00000    
     15693 MEMB     87       POPE     LP1A     LPD     -0.349000       0.00000          -1   0.00000       0.00000    
     15694 MEMB     87       POPE     LP1B     LPD     -0.258000       0.00000          -1   0.00000       0.00000    
     15695 MEMB     87       POPE     LPMA     LPD     -0.170000       0.00000          -1   0.00000       0.00000    
     15696 MEMB     87       POPE     LPMB     LPD     -0.170000       0.00000          -1   0.00000       0.00000    
     15697 MEMB     87       POPE     C3       CD32C     2.41230       11.6110           0  -1.79700      0.410000    
     15698 MEMB     87       POPE     DC3      DRUD     -2.32630      0.400000           0   0.00000       0.00000    
     15699 MEMB     87       POPE     HX       HDA2A    0.116000       1.00800           0   0.00000       0.00000    
     15700 MEMB     87       POPE     HY       HDA2A    0.116000       1.00800           0   0.00000       0.00000    
     15701 MEMB     87       POPE     O31      OD30CL    1.48470       15.5994           0 -0.732000      0.601000    
     15702 MEMB     87       POPE     DO31     DRUD     -1.48470      0.400000           0   0.00000       0.00000    
     15703 MEMB     87       POPE     C31      CD2O3B    2.72820       11.6110           0  -1.37000       1.74700    
     15704 MEMB     87       POPE     DC31     DRUD     -2.03120      0.400000           0   0.00000       0.00000    
     15705 MEMB     87       POPE     O32      OD2C3B    1.64990       15.5994           0 -0.904000      0.565000    
     15706 MEMB     87       POPE     DO32     DRUD     -1.64990      0.400000           0   0.00000       0.00000    
     15707 MEMB     87       POPE     C32      CD32C     2.24380       11.6110           0  -1.99300      0.410000    
     15708 MEMB     87       POPE     DC32     DRUD     -2.44980      0.400000           0   0.00000       0.00000    
     15709 MEMB     87       POPE     H2X      HDA2A    0.690000E-01   1.00800           0   0.00000       0.00000    
     15710 MEMB     87       POPE     H2Y      HDA2A    0.690000E-01   1.00800           0   0.00000       0.00000    
     15711 MEMB     87       POPE     LP1C     LPD     -0.349000       0.00000          -1   0.00000       0.00000    
     15712 MEMB     87       POPE     LP1D     LPD     -0.258000       0.00000          -1   0.00000       0.00000    
     15713 MEMB     87       POPE     LPMC     LPD     -0.170000       0.00000          -1   0.00000       0.00000    
     15714 MEMB     87       POPE     LPMD     LPD     -0.170000       0.00000          -1   0.00000       0.00000    
     15715 MEMB     87       POPE     C23      CD32A     2.07980       11.6110           0  -1.66000       1.30000    
     15716 MEMB     87       POPE     DC23     DRUD     -2.23580      0.400000           0   0.00000       0.00000    
     15717 MEMB     87       POPE     H3R      HDA2A    0.780000E-01   1.00800           0   0.00000       0.00000    
     15718 MEMB     87       POPE     H3S      HDA2A    0.780000E-01   1.00800           0   0.00000       0.00000    
     15719 MEMB     87       POPE     C24      CD32A     2.07980       11.6110           0  -1.66000       1.30000    
     15720 MEMB     87       POPE     DC24     DRUD     -2.23580      0.400000           0   0.00000       0.00000    
     15721 MEMB     87       POPE     H4R      HDA2A    0.780000E-01   1.00800           0   0.00000       0.00000    
     15722 MEMB     87       POPE     H4S      HDA2A    0.780000E-01   1.00800           0   0.00000       0.00000    
     15723 MEMB     87       POPE     C25      CD32A     2.07980       11.6110           0  -1.66000       1.30000    
     15724 MEMB     87       POPE     DC25     DRUD     -2.23580      0.400000           0   0.00000       0.00000    
     15725 MEMB     87       POPE     H5R      HDA2A    0.780000E-01   1.00800           0   0.00000       0.00000    
     15726 MEMB     87       POPE     H5S      HDA2A    0.780000E-01   1.00800           0   0.00000       0.00000    
     15727 MEMB     87       POPE     C26      CD32A     2.07980       11.6110           0  -1.66000       1.30000    
     15728 MEMB     87       POPE     DC26     DRUD     -2.23580      0.400000           0   0.00000       0.00000    
     15729 MEMB     87       POPE     H6R      HDA2A    0.780000E-01   1.00800           0   0.00000       0.00000    
     15730 MEMB     87       POPE     H6S      HDA2A    0.780000E-01   1.00800           0   0.00000       0.00000    
     15731 MEMB     87       POPE     C27      CD32A     2.07980       11.6110           0  -1.66000       1.30000    
     15732 MEMB     87       POPE     DC27     DRUD     -2.23580      0.400000           0   0.00000       0.00000    
     15733 MEMB     87       POPE     H7R      HDA2A    0.780000E-01   1.00800           0   0.00000       0.00000    
     15734 MEMB     87       POPE     H7S      HDA2A    0.780000E-01   1.00800           0   0.00000       0.00000    
     15735 MEMB     87       POPE     C28      CD32A     2.07980       11.6110           0  -1.66000       1.30000    
     15736 MEMB     87       POPE     DC28     DRUD     -2.23580      0.400000           0   0.00000       0.00000    
     15737 MEMB     87       POPE     H8R      HDA2A    0.780000E-01   1.00800           0   0.00000       0.00000    
     15738 MEMB     87       POPE     H8S      HDA2A    0.780000E-01   1.00800           0   0.00000       0.00000    
     15739 MEMB     87       POPE     C29      CD2C1A    2.33700       11.6110           0  -1.99000      0.750000    
     15740 MEMB     87       POPE     DC29     DRUD     -2.44800      0.400000           0   0.00000       0.00000    
     15741 MEMB     87       POPE     H91      HD2C1A   0.111000       1.00800           0   0.00000       0.00000    
     15742 MEMB     87       POPE     C210     CD2C1A    2.33700       11.6110           0  -1.99000      0.750000    
     15743 MEMB     87       POPE     DC210    DRUD     -2.44800      0.400000           0   0.00000       0.00000    
     15744 MEMB     87       POPE     H101     HD2C1A   0.111000       1.00800           0   0.00000       0.00000    
     15745 MEMB     87       POPE     C211     CD32A     2.07980       11.6110           0  -1.66000       1.30000    
     15746 MEMB     87       POPE     DC211    DRUD     -2.23580      0.400000           0   0.00000       0.00000    
     15747 MEMB     87       POPE     H11R     HDA2A    0.780000E-01   1.00800           0   0.00000       0.00000    
     15748 MEMB     87       POPE     H11S     HDA2A    0.780000E-01   1.00800           0   0.00000       0.00000    
     15749 MEMB     87       POPE     C212     CD32A     2.07980       11.6110           0  -1.66000       1.30000    
     15750 MEMB     87       POPE     DC212    DRUD     -2.23580      0.400000           0   0.00000       0.00000    
     15751 MEMB     87       POPE     H12R     HDA2A    0.780000E-01   1.00800           0   0.00000       0.00000    
     15752 MEMB     87       POPE     H12S     HDA2A    0.780000E-01   1.00800           0   0.00000       0.00000    
     15753 MEMB     87       POPE     C213     CD32A     2.07980       11.6110           0  -1.66000       1.30000    
     15754 MEMB     87       POPE     DC213    DRUD     -2.23580      0.400000           0   0.00000       0.00000    
     15755 MEMB     87       POPE     H13R     HDA2A    0.780000E-01   1.00800           0   0.00000       0.00000    
     15756 MEMB     87       POPE     H13S     HDA2A    0.780000E-01   1.00800           0   0.00000       0.00000    
     15757 MEMB     87       POPE     C214     CD32A     2.07980       11.6110           0  -1.66000       1.30000    
     15758 MEMB     87       POPE     DC214    DRUD     -2.23580      0.400000           0   0.00000       0.00000    
     15759 MEMB     87       POPE     H14R     HDA2A    0.780000E-01   1.00800           0   0.00000       0.00000    
     15760 MEMB     87       POPE     H14S     HDA2A    0.780000E-01   1.00800           0   0.00000       0.00000    
     15761 MEMB     87       POPE     C215     CD32A     2.07980       11.6110           0  -1.66000       1.30000    
     15762 MEMB     87       POPE     DC215    DRUD     -2.23580      0.400000           0   0.00000       0.00000    
     15763 MEMB     87       POPE     H15R     HDA2A    0.780000E-01   1.00800           0   0.00000       0.00000    
     15764 MEMB     87       POPE     H15S     HDA2A    0.780000E-01   1.00800           0   0.00000       0.00000    
     15765 MEMB     87       POPE     C216     CD32A     2.07980       11.6110           0  -1.66000       1.30000    
     15766 MEMB     87       POPE     DC216    DRUD     -2.23580      0.400000           0   0.00000       0.00000    
     15767 MEMB     87       POPE     H16R     HDA2A    0.780000E-01   1.00800           0   0.00000       0.00000    
     15768 MEMB     87       POPE     H16S     HDA2A    0.780000E-01   1.00800           0   0.00000       0.00000    
     15769 MEMB     87       POPE     C217     CD32A     2.07980       11.6110           0  -1.66000       1.30000    
     15770 MEMB     87       POPE     DC217    DRUD     -2.23580      0.400000           0   0.00000       0.00000    
     15771 MEMB     87       POPE     H17R     HDA2A    0.780000E-01   1.00800           0   0.00000       0.00000    
     15772 MEMB     87       POPE     H17S     HDA2A    0.780000E-01   1.00800           0   0.00000       0.00000    
     15773 MEMB     87       POPE     C218     CD33A     2.30820       11.6110           0  -2.05100       1.30000    
     15774 MEMB     87       POPE     DC218    DRUD     -2.48520      0.400000           0   0.00000       0.00000    
     15775 MEMB     87       POPE     H18R     HDA3A    0.590000E-01   1.00800           0   0.00000       0.00000    
     15776 MEMB     87       POPE     H18S     HDA3A    0.590000E-01   1.00800           0   0.00000       0.00000    
     15777 MEMB     87       POPE     H18T     HDA3A    0.590000E-01   1.00800           0   0.00000       0.00000    
     15778 MEMB     87       POPE     C33      CD32A     2.07980       11.6110           0  -1.66000       1.30000    
     15779 MEMB     87       POPE     DC33     DRUD     -2.23580      0.400000           0   0.00000       0.00000    
     15780 MEMB     87       POPE     H3X      HDA2A    0.780000E-01   1.00800           0   0.00000       0.00000    
     15781 MEMB     87       POPE     H3Y      HDA2A    0.780000E-01   1.00800           0   0.00000       0.00000    
     15782 MEMB     87       POPE     C34      CD32A     2.07980       11.6110           0  -1.66000       1.30000    
     15783 MEMB     87       POPE     DC34     DRUD     -2.23580      0.400000           0   0.00000       0.00000    
     15784 MEMB     87       POPE     H4X      HDA2A    0.780000E-01   1.00800           0   0.00000       0.00000    
     15785 MEMB     87       POPE     H4Y      HDA2A    0.780000E-01   1.00800           0   0.00000       0.00000    
     15786 MEMB     87       POPE     C35      CD32A     2.07980       11.6110           0  -1.66000       1.30000    
     15787 MEMB     87       POPE     DC35     DRUD     -2.23580      0.400000           0   0.00000       0.00000    
     15788 MEMB     87       POPE     H5X      HDA2A    0.780000E-01   1.00800           0   0.00000       0.00000    
     15789 MEMB     87       POPE     H5Y      HDA2A    0.780000E-01   1.00800           0   0.00000       0.00000    
     15790 MEMB     87       POPE     C36      CD32A     2.07980       11.6110           0  -1.66000       1.30000    
     15791 MEMB     87       POPE     DC36     DRUD     -2.23580      0.400000           0   0.00000       0.00000    
     15792 MEMB     87       POPE     H6X      HDA2A    0.780000E-01   1.00800           0   0.00000       0.00000    
     15793 MEMB     87       POPE     H6Y      HDA2A    0.780000E-01   1.00800           0   0.00000       0.00000    
     15794 MEMB     87       POPE     C37      CD32A     2.07980       11.6110           0  -1.66000       1.30000    
     15795 MEMB     87       POPE     DC37     DRUD     -2.23580      0.400000           0   0.00000       0.00000    
     15796 MEMB     87       POPE     H7X      HDA2A    0.780000E-01   1.00800           0   0.00000       0.00000    
     15797 MEMB     87       POPE     H7Y      HDA2A    0.780000E-01   1.00800           0   0.00000       0.00000    
     15798 MEMB     87       POPE     C38      CD32A     2.07980       11.6110           0  -1.66000       1.30000    
     15799 MEMB     87       POPE     DC38     DRUD     -2.23580      0.400000           0   0.00000       0.00000    
     15800 MEMB     87       POPE     H8X      HDA2A    0.780000E-01   1.00800           0   0.00000       0.00000    
     15801 MEMB     87       POPE     H8Y      HDA2A    0.780000E-01   1.00800           0   0.00000       0.00000    
     15802 MEMB     87       POPE     C39      CD32A     2.07980       11.6110           0  -1.66000       1.30000    
     15803 MEMB     87       POPE     DC39     DRUD     -2.23580      0.400000           0   0.00000       0.00000    
     15804 MEMB     87       POPE     H9X      HDA2A    0.780000E-01   1.00800           0   0.00000       0.00000    
     15805 MEMB     87       POPE     H9Y      HDA2A    0.780000E-01   1.00800           0   0.00000       0.00000    
     15806 MEMB     87       POPE     C310     CD32A     2.07980       11.6110           0  -1.66000       1.30000    
     15807 MEMB     87       POPE     DC310    DRUD     -2.23580      0.400000           0   0.00000       0.00000    
     15808 MEMB     87       POPE     H10X     HDA2A    0.780000E-01   1.00800           0   0.00000       0.00000    
     15809 MEMB     87       POPE     H10Y     HDA2A    0.780000E-01   1.00800           0   0.00000       0.00000    
     15810 MEMB     87       POPE     C311     CD32A     2.07980       11.6110           0  -1.66000       1.30000    
     15811 MEMB     87       POPE     DC311    DRUD     -2.23580      0.400000           0   0.00000       0.00000    
     15812 MEMB     87       POPE     H11X     HDA2A    0.780000E-01   1.00800           0   0.00000       0.00000    
     15813 MEMB     87       POPE     H11Y     HDA2A    0.780000E-01   1.00800           0   0.00000       0.00000    
     15814 MEMB     87       POPE     C312     CD32A     2.07980       11.6110           0  -1.66000       1.30000    
     15815 MEMB     87       POPE     DC312    DRUD     -2.23580      0.400000           0   0.00000       0.00000    
     15816 MEMB     87       POPE     H12X     HDA2A    0.780000E-01   1.00800           0   0.00000       0.00000    
     15817 MEMB     87       POPE     H12Y     HDA2A    0.780000E-01   1.00800           0   0.00000       0.00000    
     15818 MEMB     87       POPE     C313     CD32A     2.07980       11.6110           0  -1.66000       1.30000    
     15819 MEMB     87       POPE     DC313    DRUD     -2.23580      0.400000           0   0.00000       0.00000    
     15820 MEMB     87       POPE     H13X     HDA2A    0.780000E-01   1.00800           0   0.00000       0.00000    
     15821 MEMB     87       POPE     H13Y     HDA2A    0.780000E-01   1.00800           0   0.00000       0.00000    
     15822 MEMB     87       POPE     C314     CD32A     2.07980       11.6110           0  -1.66000       1.30000    
     15823 MEMB     87       POPE     DC314    DRUD     -2.23580      0.400000           0   0.00000       0.00000    
     15824 MEMB     87       POPE     H14X     HDA2A    0.780000E-01   1.00800           0   0.00000       0.00000    
     15825 MEMB     87       POPE     H14Y     HDA2A    0.780000E-01   1.00800           0   0.00000       0.00000    
     15826 MEMB     87       POPE     C315     CD32A     2.07980       11.6110           0  -1.66000       1.30000    
     15827 MEMB     87       POPE     DC315    DRUD     -2.23580      0.400000           0   0.00000       0.00000    
     15828 MEMB     87       POPE     H15X     HDA2A    0.780000E-01   1.00800           0   0.00000       0.00000    
     15829 MEMB     87       POPE     H15Y     HDA2A    0.780000E-01   1.00800           0   0.00000       0.00000    
     15830 MEMB     87       POPE     C316     CD33A     2.30820       11.6110           0  -2.05100       1.30000    
     15831 MEMB     87       POPE     DC316    DRUD     -2.48520      0.400000           0   0.00000       0.00000    
     15832 MEMB     87       POPE     H16X     HDA3A    0.590000E-01   1.00800           0   0.00000       0.00000    
     15833 MEMB     87       POPE     H16Y     HDA3A    0.590000E-01   1.00800           0   0.00000       0.00000    
     15834 MEMB     87       POPE     H16Z     HDA3A    0.590000E-01   1.00800           0   0.00000       0.00000    
     15835 MEMB     88       POPE     N        ND3P3A    1.62810       13.6070           0  -1.29800      0.895000    
     15836 MEMB     88       POPE     DN       DRUD     -1.97710      0.400000           0   0.00000       0.00000    
     15837 MEMB     88       POPE     HN1      HDP1B    0.340000       1.00800           0   0.00000       0.00000    
     15838 MEMB     88       POPE     HN2      HDP1B    0.340000       1.00800           0   0.00000       0.00000    
     15839 MEMB     88       POPE     HN3      HDP1B    0.340000       1.00800           0   0.00000       0.00000    
     15840 MEMB     88       POPE     C12      CD32A     2.27610       11.6110           0  -1.65600      0.895000    
     15841 MEMB     88       POPE     DC12     DRUD     -2.23310      0.400000           0   0.00000       0.00000    
     15842 MEMB     88       POPE     H12A     HDA2A    0.143000       1.00800           0   0.00000       0.00000    
     15843 MEMB     88       POPE     H12B     HDA2A    0.143000       1.00800           0   0.00000       0.00000    
     15844 MEMB     88       POPE     C11      CD32A     2.42220       11.6110           0  -1.64200      0.862000    
     15845 MEMB     88       POPE     DC11     DRUD     -2.22370      0.400000           0   0.00000       0.00000    
     15846 MEMB     88       POPE     H11A     HDA2A    0.260000E-01   1.00800           0   0.00000       0.00000    
     15847 MEMB     88       POPE     H11B     HDA2A    0.260000E-01   1.00800           0   0.00000       0.00000    
     15848 MEMB     88       POPE     P        PD1A      2.90360       30.5740           0 -0.974000       2.09800    
     15849 MEMB     88       POPE     DP       DRUD     -1.71260      0.400000           0   0.00000       0.00000    
     15850 MEMB     88       POPE     O13      OD2C2B   0.798400       15.5994           0 -0.931000       1.08300    
     15851 MEMB     88       POPE     DO13     DRUD     -1.67440      0.400000           0   0.00000       0.00000    
     15852 MEMB     88       POPE     O14      OD2C2B   0.798400       15.5994           0 -0.931000       1.08300    
     15853 MEMB     88       POPE     DO14     DRUD     -1.67440      0.400000           0   0.00000       0.00000    
     15854 MEMB     88       POPE     O11      OD30B     1.17720       15.5994           0 -0.901000      0.181000    
     15855 MEMB     88       POPE     DO11     DRUD     -1.64720      0.400000           0   0.00000       0.00000    
     15856 MEMB     88       POPE     O12      OD30B     1.17720       15.5994           0 -0.901000      0.181000    
     15857 MEMB     88       POPE     DO12     DRUD     -1.64720      0.400000           0   0.00000       0.00000    
     15858 MEMB     88       POPE     C1       CD32A     2.42220       11.6110           0  -1.64200      0.862000    
     15859 MEMB     88       POPE     DC1      DRUD     -2.22370      0.400000           0   0.00000       0.00000    
     15860 MEMB     88       POPE     HA       HDA2A    0.260000E-01   1.00800           0   0.00000       0.00000    
     15861 MEMB     88       POPE     HB       HDA2A    0.260000E-01   1.00800           0   0.00000       0.00000    
     15862 MEMB     88       POPE     C2       CD31C     2.52830       11.6110           0  -1.79700      0.410000    
     15863 MEMB     88       POPE     DC2      DRUD     -2.32630      0.400000           0   0.00000       0.00000    
     15864 MEMB     88       POPE     HS       HDA1A    0.116000       1.00800           0   0.00000       0.00000    
     15865 MEMB     88       POPE     O21      OD30CL    1.48470       15.5994           0 -0.732000      0.601000    
     15866 MEMB     88       POPE     DO21     DRUD     -1.48470      0.400000           0   0.00000       0.00000    
     15867 MEMB     88       POPE     C21      CD2O3B    2.72820       11.6110           0  -1.37000       1.74700    
     15868 MEMB     88       POPE     DC21     DRUD     -2.03120      0.400000           0   0.00000       0.00000    
     15869 MEMB     88       POPE     O22      OD2C3B    1.64990       15.5994           0 -0.904000      0.565000    
     15870 MEMB     88       POPE     DO22     DRUD     -1.64990      0.400000           0   0.00000       0.00000    
     15871 MEMB     88       POPE     C22      CD32C     2.24380       11.6110           0  -1.99300      0.410000    
     15872 MEMB     88       POPE     DC22     DRUD     -2.44980      0.400000           0   0.00000       0.00000    
     15873 MEMB     88       POPE     H2R      HDA2A    0.690000E-01   1.00800           0   0.00000       0.00000    
     15874 MEMB     88       POPE     H2S      HDA2A    0.690000E-01   1.00800           0   0.00000       0.00000    
     15875 MEMB     88       POPE     LP1A     LPD     -0.349000       0.00000          -1   0.00000       0.00000    
     15876 MEMB     88       POPE     LP1B     LPD     -0.258000       0.00000          -1   0.00000       0.00000    
     15877 MEMB     88       POPE     LPMA     LPD     -0.170000       0.00000          -1   0.00000       0.00000    
     15878 MEMB     88       POPE     LPMB     LPD     -0.170000       0.00000          -1   0.00000       0.00000    
     15879 MEMB     88       POPE     C3       CD32C     2.41230       11.6110           0  -1.79700      0.410000    
     15880 MEMB     88       POPE     DC3      DRUD     -2.32630      0.400000           0   0.00000       0.00000    
     15881 MEMB     88       POPE     HX       HDA2A    0.116000       1.00800           0   0.00000       0.00000    
     15882 MEMB     88       POPE     HY       HDA2A    0.116000       1.00800           0   0.00000       0.00000    
     15883 MEMB     88       POPE     O31      OD30CL    1.48470       15.5994           0 -0.732000      0.601000    
     15884 MEMB     88       POPE     DO31     DRUD     -1.48470      0.400000           0   0.00000       0.00000    
     15885 MEMB     88       POPE     C31      CD2O3B    2.72820       11.6110           0  -1.37000       1.74700    
     15886 MEMB     88       POPE     DC31     DRUD     -2.03120      0.400000           0   0.00000       0.00000    
     15887 MEMB     88       POPE     O32      OD2C3B    1.64990       15.5994           0 -0.904000      0.565000    
     15888 MEMB     88       POPE     DO32     DRUD     -1.64990      0.400000           0   0.00000       0.00000    
     15889 MEMB     88       POPE     C32      CD32C     2.24380       11.6110           0  -1.99300      0.410000    
     15890 MEMB     88       POPE     DC32     DRUD     -2.44980      0.400000           0   0.00000       0.00000    
     15891 MEMB     88       POPE     H2X      HDA2A    0.690000E-01   1.00800           0   0.00000       0.00000    
     15892 MEMB     88       POPE     H2Y      HDA2A    0.690000E-01   1.00800           0   0.00000       0.00000    
     15893 MEMB     88       POPE     LP1C     LPD     -0.349000       0.00000          -1   0.00000       0.00000    
     15894 MEMB     88       POPE     LP1D     LPD     -0.258000       0.00000          -1   0.00000       0.00000    
     15895 MEMB     88       POPE     LPMC     LPD     -0.170000       0.00000          -1   0.00000       0.00000    
     15896 MEMB     88       POPE     LPMD     LPD     -0.170000       0.00000          -1   0.00000       0.00000    
     15897 MEMB     88       POPE     C23      CD32A     2.07980       11.6110           0  -1.66000       1.30000    
     15898 MEMB     88       POPE     DC23     DRUD     -2.23580      0.400000           0   0.00000       0.00000    
     15899 MEMB     88       POPE     H3R      HDA2A    0.780000E-01   1.00800           0   0.00000       0.00000    
     15900 MEMB     88       POPE     H3S      HDA2A    0.780000E-01   1.00800           0   0.00000       0.00000    
     15901 MEMB     88       POPE     C24      CD32A     2.07980       11.6110           0  -1.66000       1.30000    
     15902 MEMB     88       POPE     DC24     DRUD     -2.23580      0.400000           0   0.00000       0.00000    
     15903 MEMB     88       POPE     H4R      HDA2A    0.780000E-01   1.00800           0   0.00000       0.00000    
     15904 MEMB     88       POPE     H4S      HDA2A    0.780000E-01   1.00800           0   0.00000       0.00000    
     15905 MEMB     88       POPE     C25      CD32A     2.07980       11.6110           0  -1.66000       1.30000    
     15906 MEMB     88       POPE     DC25     DRUD     -2.23580      0.400000           0   0.00000       0.00000    
     15907 MEMB     88       POPE     H5R      HDA2A    0.780000E-01   1.00800           0   0.00000       0.00000    
     15908 MEMB     88       POPE     H5S      HDA2A    0.780000E-01   1.00800           0   0.00000       0.00000    
     15909 MEMB     88       POPE     C26      CD32A     2.07980       11.6110           0  -1.66000       1.30000    
     15910 MEMB     88       POPE     DC26     DRUD     -2.23580      0.400000           0   0.00000       0.00000    
     15911 MEMB     88       POPE     H6R      HDA2A    0.780000E-01   1.00800           0   0.00000       0.00000    
     15912 MEMB     88       POPE     H6S      HDA2A    0.780000E-01   1.00800           0   0.00000       0.00000    
     15913 MEMB     88       POPE     C27      CD32A     2.07980       11.6110           0  -1.66000       1.30000    
     15914 MEMB     88       POPE     DC27     DRUD     -2.23580      0.400000           0   0.00000       0.00000    
     15915 MEMB     88       POPE     H7R      HDA2A    0.780000E-01   1.00800           0   0.00000       0.00000    
     15916 MEMB     88       POPE     H7S      HDA2A    0.780000E-01   1.00800           0   0.00000       0.00000    
     15917 MEMB     88       POPE     C28      CD32A     2.07980       11.6110           0  -1.66000       1.30000    
     15918 MEMB     88       POPE     DC28     DRUD     -2.23580      0.400000           0   0.00000       0.00000    
     15919 MEMB     88       POPE     H8R      HDA2A    0.780000E-01   1.00800           0   0.00000       0.00000    
     15920 MEMB     88       POPE     H8S      HDA2A    0.780000E-01   1.00800           0   0.00000       0.00000    
     15921 MEMB     88       POPE     C29      CD2C1A    2.33700       11.6110           0  -1.99000      0.750000    
     15922 MEMB     88       POPE     DC29     DRUD     -2.44800      0.400000           0   0.00000       0.00000    
     15923 MEMB     88       POPE     H91      HD2C1A   0.111000       1.00800           0   0.00000       0.00000    
     15924 MEMB     88       POPE     C210     CD2C1A    2.33700       11.6110           0  -1.99000      0.750000    
     15925 MEMB     88       POPE     DC210    DRUD     -2.44800      0.400000           0   0.00000       0.00000    
     15926 MEMB     88       POPE     H101     HD2C1A   0.111000       1.00800           0   0.00000       0.00000    
     15927 MEMB     88       POPE     C211     CD32A     2.07980       11.6110           0  -1.66000       1.30000    
     15928 MEMB     88       POPE     DC211    DRUD     -2.23580      0.400000           0   0.00000       0.00000    
     15929 MEMB     88       POPE     H11R     HDA2A    0.780000E-01   1.00800           0   0.00000       0.00000    
     15930 MEMB     88       POPE     H11S     HDA2A    0.780000E-01   1.00800           0   0.00000       0.00000    
     15931 MEMB     88       POPE     C212     CD32A     2.07980       11.6110           0  -1.66000       1.30000    
     15932 MEMB     88       POPE     DC212    DRUD     -2.23580      0.400000           0   0.00000       0.00000    
     15933 MEMB     88       POPE     H12R     HDA2A    0.780000E-01   1.00800           0   0.00000       0.00000    
     15934 MEMB     88       POPE     H12S     HDA2A    0.780000E-01   1.00800           0   0.00000       0.00000    
     15935 MEMB     88       POPE     C213     CD32A     2.07980       11.6110           0  -1.66000       1.30000    
     15936 MEMB     88       POPE     DC213    DRUD     -2.23580      0.400000           0   0.00000       0.00000    
     15937 MEMB     88       POPE     H13R     HDA2A    0.780000E-01   1.00800           0   0.00000       0.00000    
     15938 MEMB     88       POPE     H13S     HDA2A    0.780000E-01   1.00800           0   0.00000       0.00000    
     15939 MEMB     88       POPE     C214     CD32A     2.07980       11.6110           0  -1.66000       1.30000    
     15940 MEMB     88       POPE     DC214    DRUD     -2.23580      0.400000           0   0.00000       0.00000    
     15941 MEMB     88       POPE     H14R     HDA2A    0.780000E-01   1.00800           0   0.00000       0.00000    
     15942 MEMB     88       POPE     H14S     HDA2A    0.780000E-01   1.00800           0   0.00000       0.00000    
     15943 MEMB     88       POPE     C215     CD32A     2.07980       11.6110           0  -1.66000       1.30000    
     15944 MEMB     88       POPE     DC215    DRUD     -2.23580      0.400000           0   0.00000       0.00000    
     15945 MEMB     88       POPE     H15R     HDA2A    0.780000E-01   1.00800           0   0.00000       0.00000    
     15946 MEMB     88       POPE     H15S     HDA2A    0.780000E-01   1.00800           0   0.00000       0.00000    
     15947 MEMB     88       POPE     C216     CD32A     2.07980       11.6110           0  -1.66000       1.30000    
     15948 MEMB     88       POPE     DC216    DRUD     -2.23580      0.400000           0   0.00000       0.00000    
     15949 MEMB     88       POPE     H16R     HDA2A    0.780000E-01   1.00800           0   0.00000       0.00000    
     15950 MEMB     88       POPE     H16S     HDA2A    0.780000E-01   1.00800           0   0.00000       0.00000    
     15951 MEMB     88       POPE     C217     CD32A     2.07980       11.6110           0  -1.66000       1.30000    
     15952 MEMB     88       POPE     DC217    DRUD     -2.23580      0.400000           0   0.00000       0.00000    
     15953 MEMB     88       POPE     H17R     HDA2A    0.780000E-01   1.00800           0   0.00000       0.00000    
     15954 MEMB     88       POPE     H17S     HDA2A    0.780000E-01   1.00800           0   0.00000       0.00000    
     15955 MEMB     88       POPE     C218     CD33A     2.30820       11.6110           0  -2.05100       1.30000    
     15956 MEMB     88       POPE     DC218    DRUD     -2.48520      0.400000           0   0.00000       0.00000    
     15957 MEMB     88       POPE     H18R     HDA3A    0.590000E-01   1.00800           0   0.00000       0.00000    
     15958 MEMB     88       POPE     H18S     HDA3A    0.590000E-01   1.00800           0   0.00000       0.00000    
     15959 MEMB     88       POPE     H18T     HDA3A    0.590000E-01   1.00800           0   0.00000       0.00000    
     15960 MEMB     88       POPE     C33      CD32A     2.07980       11.6110           0  -1.66000       1.30000    
     15961 MEMB     88       POPE     DC33     DRUD     -2.23580      0.400000           0   0.00000       0.00000    
     15962 MEMB     88       POPE     H3X      HDA2A    0.780000E-01   1.00800           0   0.00000       0.00000    
     15963 MEMB     88       POPE     H3Y      HDA2A    0.780000E-01   1.00800           0   0.00000       0.00000    
     15964 MEMB     88       POPE     C34      CD32A     2.07980       11.6110           0  -1.66000       1.30000    
     15965 MEMB     88       POPE     DC34     DRUD     -2.23580      0.400000           0   0.00000       0.00000    
     15966 MEMB     88       POPE     H4X      HDA2A    0.780000E-01   1.00800           0   0.00000       0.00000    
     15967 MEMB     88       POPE     H4Y      HDA2A    0.780000E-01   1.00800           0   0.00000       0.00000    
     15968 MEMB     88       POPE     C35      CD32A     2.07980       11.6110           0  -1.66000       1.30000    
     15969 MEMB     88       POPE     DC35     DRUD     -2.23580      0.400000           0   0.00000       0.00000    
     15970 MEMB     88       POPE     H5X      HDA2A    0.780000E-01   1.00800           0   0.00000       0.00000    
     15971 MEMB     88       POPE     H5Y      HDA2A    0.780000E-01   1.00800           0   0.00000       0.00000    
     15972 MEMB     88       POPE     C36      CD32A     2.07980       11.6110           0  -1.66000       1.30000    
     15973 MEMB     88       POPE     DC36     DRUD     -2.23580      0.400000           0   0.00000       0.00000    
     15974 MEMB     88       POPE     H6X      HDA2A    0.780000E-01   1.00800           0   0.00000       0.00000    
     15975 MEMB     88       POPE     H6Y      HDA2A    0.780000E-01   1.00800           0   0.00000       0.00000    
     15976 MEMB     88       POPE     C37      CD32A     2.07980       11.6110           0  -1.66000       1.30000    
     15977 MEMB     88       POPE     DC37     DRUD     -2.23580      0.400000           0   0.00000       0.00000    
     15978 MEMB     88       POPE     H7X      HDA2A    0.780000E-01   1.00800           0   0.00000       0.00000    
     15979 MEMB     88       POPE     H7Y      HDA2A    0.780000E-01   1.00800           0   0.00000       0.00000    
     15980 MEMB     88       POPE     C38      CD32A     2.07980       11.6110           0  -1.66000       1.30000    
     15981 MEMB     88       POPE     DC38     DRUD     -2.23580      0.400000           0   0.00000       0.00000    
     15982 MEMB     88       POPE     H8X      HDA2A    0.780000E-01   1.00800           0   0.00000       0.00000    
     15983 MEMB     88       POPE     H8Y      HDA2A    0.780000E-01   1.00800           0   0.00000       0.00000    
     15984 MEMB     88       POPE     C39      CD32A     2.07980       11.6110           0  -1.66000       1.30000    
     15985 MEMB     88       POPE     DC39     DRUD     -2.23580      0.400000           0   0.00000       0.00000    
     15986 MEMB     88       POPE     H9X      HDA2A    0.780000E-01   1.00800           0   0.00000       0.00000    
     15987 MEMB     88       POPE     H9Y      HDA2A    0.780000E-01   1.00800           0   0.00000       0.00000    
     15988 MEMB     88       POPE     C310     CD32A     2.07980       11.6110           0  -1.66000       1.30000    
     15989 MEMB     88       POPE     DC310    DRUD     -2.23580      0.400000           0   0.00000       0.00000    
     15990 MEMB     88       POPE     H10X     HDA2A    0.780000E-01   1.00800           0   0.00000       0.00000    
     15991 MEMB     88       POPE     H10Y     HDA2A    0.780000E-01   1.00800           0   0.00000       0.00000    
     15992 MEMB     88       POPE     C311     CD32A     2.07980       11.6110           0  -1.66000       1.30000    
     15993 MEMB     88       POPE     DC311    DRUD     -2.23580      0.400000           0   0.00000       0.00000    
     15994 MEMB     88       POPE     H11X     HDA2A    0.780000E-01   1.00800           0   0.00000       0.00000    
     15995 MEMB     88       POPE     H11Y     HDA2A    0.780000E-01   1.00800           0   0.00000       0.00000    
     15996 MEMB     88       POPE     C312     CD32A     2.07980       11.6110           0  -1.66000       1.30000    
     15997 MEMB     88       POPE     DC312    DRUD     -2.23580      0.400000           0   0.00000       0.00000    
     15998 MEMB     88       POPE     H12X     HDA2A    0.780000E-01   1.00800           0   0.00000       0.00000    
     15999 MEMB     88       POPE     H12Y     HDA2A    0.780000E-01   1.00800           0   0.00000       0.00000    
     16000 MEMB     88       POPE     C313     CD32A     2.07980       11.6110           0  -1.66000       1.30000    
     16001 MEMB     88       POPE     DC313    DRUD     -2.23580      0.400000           0   0.00000       0.00000    
     16002 MEMB     88       POPE     H13X     HDA2A    0.780000E-01   1.00800           0   0.00000       0.00000    
     16003 MEMB     88       POPE     H13Y     HDA2A    0.780000E-01   1.00800           0   0.00000       0.00000    
     16004 MEMB     88       POPE     C314     CD32A     2.07980       11.6110           0  -1.66000       1.30000    
     16005 MEMB     88       POPE     DC314    DRUD     -2.23580      0.400000           0   0.00000       0.00000    
     16006 MEMB     88       POPE     H14X     HDA2A    0.780000E-01   1.00800           0   0.00000       0.00000    
     16007 MEMB     88       POPE     H14Y     HDA2A    0.780000E-01   1.00800           0   0.00000       0.00000    
     16008 MEMB     88       POPE     C315     CD32A     2.07980       11.6110           0  -1.66000       1.30000    
     16009 MEMB     88       POPE     DC315    DRUD     -2.23580      0.400000           0   0.00000       0.00000    
     16010 MEMB     88       POPE     H15X     HDA2A    0.780000E-01   1.00800           0   0.00000       0.00000    
     16011 MEMB     88       POPE     H15Y     HDA2A    0.780000E-01   1.00800           0   0.00000       0.00000    
     16012 MEMB     88       POPE     C316     CD33A     2.30820       11.6110           0  -2.05100       1.30000    
     16013 MEMB     88       POPE     DC316    DRUD     -2.48520      0.400000           0   0.00000       0.00000    
     16014 MEMB     88       POPE     H16X     HDA3A    0.590000E-01   1.00800           0   0.00000       0.00000    
     16015 MEMB     88       POPE     H16Y     HDA3A    0.590000E-01   1.00800           0   0.00000       0.00000    
     16016 MEMB     88       POPE     H16Z     HDA3A    0.590000E-01   1.00800           0   0.00000       0.00000    
     16017 MEMB     89       POPE     N        ND3P3A    1.62810       13.6070           0  -1.29800      0.895000    
     16018 MEMB     89       POPE     DN       DRUD     -1.97710      0.400000           0   0.00000       0.00000    
     16019 MEMB     89       POPE     HN1      HDP1B    0.340000       1.00800           0   0.00000       0.00000    
     16020 MEMB     89       POPE     HN2      HDP1B    0.340000       1.00800           0   0.00000       0.00000    
     16021 MEMB     89       POPE     HN3      HDP1B    0.340000       1.00800           0   0.00000       0.00000    
     16022 MEMB     89       POPE     C12      CD32A     2.27610       11.6110           0  -1.65600      0.895000    
     16023 MEMB     89       POPE     DC12     DRUD     -2.23310      0.400000           0   0.00000       0.00000    
     16024 MEMB     89       POPE     H12A     HDA2A    0.143000       1.00800           0   0.00000       0.00000    
     16025 MEMB     89       POPE     H12B     HDA2A    0.143000       1.00800           0   0.00000       0.00000    
     16026 MEMB     89       POPE     C11      CD32A     2.42220       11.6110           0  -1.64200      0.862000    
     16027 MEMB     89       POPE     DC11     DRUD     -2.22370      0.400000           0   0.00000       0.00000    
     16028 MEMB     89       POPE     H11A     HDA2A    0.260000E-01   1.00800           0   0.00000       0.00000    
     16029 MEMB     89       POPE     H11B     HDA2A    0.260000E-01   1.00800           0   0.00000       0.00000    
     16030 MEMB     89       POPE     P        PD1A      2.90360       30.5740           0 -0.974000       2.09800    
     16031 MEMB     89       POPE     DP       DRUD     -1.71260      0.400000           0   0.00000       0.00000    
     16032 MEMB     89       POPE     O13      OD2C2B   0.798400       15.5994           0 -0.931000       1.08300    
     16033 MEMB     89       POPE     DO13     DRUD     -1.67440      0.400000           0   0.00000       0.00000    
     16034 MEMB     89       POPE     O14      OD2C2B   0.798400       15.5994           0 -0.931000       1.08300    
     16035 MEMB     89       POPE     DO14     DRUD     -1.67440      0.400000           0   0.00000       0.00000    
     16036 MEMB     89       POPE     O11      OD30B     1.17720       15.5994           0 -0.901000      0.181000    
     16037 MEMB     89       POPE     DO11     DRUD     -1.64720      0.400000           0   0.00000       0.00000    
     16038 MEMB     89       POPE     O12      OD30B     1.17720       15.5994           0 -0.901000      0.181000    
     16039 MEMB     89       POPE     DO12     DRUD     -1.64720      0.400000           0   0.00000       0.00000    
     16040 MEMB     89       POPE     C1       CD32A     2.42220       11.6110           0  -1.64200      0.862000    
     16041 MEMB     89       POPE     DC1      DRUD     -2.22370      0.400000           0   0.00000       0.00000    
     16042 MEMB     89       POPE     HA       HDA2A    0.260000E-01   1.00800           0   0.00000       0.00000    
     16043 MEMB     89       POPE     HB       HDA2A    0.260000E-01   1.00800           0   0.00000       0.00000    
     16044 MEMB     89       POPE     C2       CD31C     2.52830       11.6110           0  -1.79700      0.410000    
     16045 MEMB     89       POPE     DC2      DRUD     -2.32630      0.400000           0   0.00000       0.00000    
     16046 MEMB     89       POPE     HS       HDA1A    0.116000       1.00800           0   0.00000       0.00000    
     16047 MEMB     89       POPE     O21      OD30CL    1.48470       15.5994           0 -0.732000      0.601000    
     16048 MEMB     89       POPE     DO21     DRUD     -1.48470      0.400000           0   0.00000       0.00000    
     16049 MEMB     89       POPE     C21      CD2O3B    2.72820       11.6110           0  -1.37000       1.74700    
     16050 MEMB     89       POPE     DC21     DRUD     -2.03120      0.400000           0   0.00000       0.00000    
     16051 MEMB     89       POPE     O22      OD2C3B    1.64990       15.5994           0 -0.904000      0.565000    
     16052 MEMB     89       POPE     DO22     DRUD     -1.64990      0.400000           0   0.00000       0.00000    
     16053 MEMB     89       POPE     C22      CD32C     2.24380       11.6110           0  -1.99300      0.410000    
     16054 MEMB     89       POPE     DC22     DRUD     -2.44980      0.400000           0   0.00000       0.00000    
     16055 MEMB     89       POPE     H2R      HDA2A    0.690000E-01   1.00800           0   0.00000       0.00000    
     16056 MEMB     89       POPE     H2S      HDA2A    0.690000E-01   1.00800           0   0.00000       0.00000    
     16057 MEMB     89       POPE     LP1A     LPD     -0.349000       0.00000          -1   0.00000       0.00000    
     16058 MEMB     89       POPE     LP1B     LPD     -0.258000       0.00000          -1   0.00000       0.00000    
     16059 MEMB     89       POPE     LPMA     LPD     -0.170000       0.00000          -1   0.00000       0.00000    
     16060 MEMB     89       POPE     LPMB     LPD     -0.170000       0.00000          -1   0.00000       0.00000    
     16061 MEMB     89       POPE     C3       CD32C     2.41230       11.6110           0  -1.79700      0.410000    
     16062 MEMB     89       POPE     DC3      DRUD     -2.32630      0.400000           0   0.00000       0.00000    
     16063 MEMB     89       POPE     HX       HDA2A    0.116000       1.00800           0   0.00000       0.00000    
     16064 MEMB     89       POPE     HY       HDA2A    0.116000       1.00800           0   0.00000       0.00000    
     16065 MEMB     89       POPE     O31      OD30CL    1.48470       15.5994           0 -0.732000      0.601000    
     16066 MEMB     89       POPE     DO31     DRUD     -1.48470      0.400000           0   0.00000       0.00000    
     16067 MEMB     89       POPE     C31      CD2O3B    2.72820       11.6110           0  -1.37000       1.74700    
     16068 MEMB     89       POPE     DC31     DRUD     -2.03120      0.400000           0   0.00000       0.00000    
     16069 MEMB     89       POPE     O32      OD2C3B    1.64990       15.5994           0 -0.904000      0.565000    
     16070 MEMB     89       POPE     DO32     DRUD     -1.64990      0.400000           0   0.00000       0.00000    
     16071 MEMB     89       POPE     C32      CD32C     2.24380       11.6110           0  -1.99300      0.410000    
     16072 MEMB     89       POPE     DC32     DRUD     -2.44980      0.400000           0   0.00000       0.00000    
     16073 MEMB     89       POPE     H2X      HDA2A    0.690000E-01   1.00800           0   0.00000       0.00000    
     16074 MEMB     89       POPE     H2Y      HDA2A    0.690000E-01   1.00800           0   0.00000       0.00000    
     16075 MEMB     89       POPE     LP1C     LPD     -0.349000       0.00000          -1   0.00000       0.00000    
     16076 MEMB     89       POPE     LP1D     LPD     -0.258000       0.00000          -1   0.00000       0.00000    
     16077 MEMB     89       POPE     LPMC     LPD     -0.170000       0.00000          -1   0.00000       0.00000    
     16078 MEMB     89       POPE     LPMD     LPD     -0.170000       0.00000          -1   0.00000       0.00000    
     16079 MEMB     89       POPE     C23      CD32A     2.07980       11.6110           0  -1.66000       1.30000    
     16080 MEMB     89       POPE     DC23     DRUD     -2.23580      0.400000           0   0.00000       0.00000    
     16081 MEMB     89       POPE     H3R      HDA2A    0.780000E-01   1.00800           0   0.00000       0.00000    
     16082 MEMB     89       POPE     H3S      HDA2A    0.780000E-01   1.00800           0   0.00000       0.00000    
     16083 MEMB     89       POPE     C24      CD32A     2.07980       11.6110           0  -1.66000       1.30000    
     16084 MEMB     89       POPE     DC24     DRUD     -2.23580      0.400000           0   0.00000       0.00000    
     16085 MEMB     89       POPE     H4R      HDA2A    0.780000E-01   1.00800           0   0.00000       0.00000    
     16086 MEMB     89       POPE     H4S      HDA2A    0.780000E-01   1.00800           0   0.00000       0.00000    
     16087 MEMB     89       POPE     C25      CD32A     2.07980       11.6110           0  -1.66000       1.30000    
     16088 MEMB     89       POPE     DC25     DRUD     -2.23580      0.400000           0   0.00000       0.00000    
     16089 MEMB     89       POPE     H5R      HDA2A    0.780000E-01   1.00800           0   0.00000       0.00000    
     16090 MEMB     89       POPE     H5S      HDA2A    0.780000E-01   1.00800           0   0.00000       0.00000    
     16091 MEMB     89       POPE     C26      CD32A     2.07980       11.6110           0  -1.66000       1.30000    
     16092 MEMB     89       POPE     DC26     DRUD     -2.23580      0.400000           0   0.00000       0.00000    
     16093 MEMB     89       POPE     H6R      HDA2A    0.780000E-01   1.00800           0   0.00000       0.00000    
     16094 MEMB     89       POPE     H6S      HDA2A    0.780000E-01   1.00800           0   0.00000       0.00000    
     16095 MEMB     89       POPE     C27      CD32A     2.07980       11.6110           0  -1.66000       1.30000    
     16096 MEMB     89       POPE     DC27     DRUD     -2.23580      0.400000           0   0.00000       0.00000    
     16097 MEMB     89       POPE     H7R      HDA2A    0.780000E-01   1.00800           0   0.00000       0.00000    
     16098 MEMB     89       POPE     H7S      HDA2A    0.780000E-01   1.00800           0   0.00000       0.00000    
     16099 MEMB     89       POPE     C28      CD32A     2.07980       11.6110           0  -1.66000       1.30000    
     16100 MEMB     89       POPE     DC28     DRUD     -2.23580      0.400000           0   0.00000       0.00000    
     16101 MEMB     89       POPE     H8R      HDA2A    0.780000E-01   1.00800           0   0.00000       0.00000    
     16102 MEMB     89       POPE     H8S      HDA2A    0.780000E-01   1.00800           0   0.00000       0.00000    
     16103 MEMB     89       POPE     C29      CD2C1A    2.33700       11.6110           0  -1.99000      0.750000    
     16104 MEMB     89       POPE     DC29     DRUD     -2.44800      0.400000           0   0.00000       0.00000    
     16105 MEMB     89       POPE     H91      HD2C1A   0.111000       1.00800           0   0.00000       0.00000    
     16106 MEMB     89       POPE     C210     CD2C1A    2.33700       11.6110           0  -1.99000      0.750000    
     16107 MEMB     89       POPE     DC210    DRUD     -2.44800      0.400000           0   0.00000       0.00000    
     16108 MEMB     89       POPE     H101     HD2C1A   0.111000       1.00800           0   0.00000       0.00000    
     16109 MEMB     89       POPE     C211     CD32A     2.07980       11.6110           0  -1.66000       1.30000    
     16110 MEMB     89       POPE     DC211    DRUD     -2.23580      0.400000           0   0.00000       0.00000    
     16111 MEMB     89       POPE     H11R     HDA2A    0.780000E-01   1.00800           0   0.00000       0.00000    
     16112 MEMB     89       POPE     H11S     HDA2A    0.780000E-01   1.00800           0   0.00000       0.00000    
     16113 MEMB     89       POPE     C212     CD32A     2.07980       11.6110           0  -1.66000       1.30000    
     16114 MEMB     89       POPE     DC212    DRUD     -2.23580      0.400000           0   0.00000       0.00000    
     16115 MEMB     89       POPE     H12R     HDA2A    0.780000E-01   1.00800           0   0.00000       0.00000    
     16116 MEMB     89       POPE     H12S     HDA2A    0.780000E-01   1.00800           0   0.00000       0.00000    
     16117 MEMB     89       POPE     C213     CD32A     2.07980       11.6110           0  -1.66000       1.30000    
     16118 MEMB     89       POPE     DC213    DRUD     -2.23580      0.400000           0   0.00000       0.00000    
     16119 MEMB     89       POPE     H13R     HDA2A    0.780000E-01   1.00800           0   0.00000       0.00000    
     16120 MEMB     89       POPE     H13S     HDA2A    0.780000E-01   1.00800           0   0.00000       0.00000    
     16121 MEMB     89       POPE     C214     CD32A     2.07980       11.6110           0  -1.66000       1.30000    
     16122 MEMB     89       POPE     DC214    DRUD     -2.23580      0.400000           0   0.00000       0.00000    
     16123 MEMB     89       POPE     H14R     HDA2A    0.780000E-01   1.00800           0   0.00000       0.00000    
     16124 MEMB     89       POPE     H14S     HDA2A    0.780000E-01   1.00800           0   0.00000       0.00000    
     16125 MEMB     89       POPE     C215     CD32A     2.07980       11.6110           0  -1.66000       1.30000    
     16126 MEMB     89       POPE     DC215    DRUD     -2.23580      0.400000           0   0.00000       0.00000    
     16127 MEMB     89       POPE     H15R     HDA2A    0.780000E-01   1.00800           0   0.00000       0.00000    
     16128 MEMB     89       POPE     H15S     HDA2A    0.780000E-01   1.00800           0   0.00000       0.00000    
     16129 MEMB     89       POPE     C216     CD32A     2.07980       11.6110           0  -1.66000       1.30000    
     16130 MEMB     89       POPE     DC216    DRUD     -2.23580      0.400000           0   0.00000       0.00000    
     16131 MEMB     89       POPE     H16R     HDA2A    0.780000E-01   1.00800           0   0.00000       0.00000    
     16132 MEMB     89       POPE     H16S     HDA2A    0.780000E-01   1.00800           0   0.00000       0.00000    
     16133 MEMB     89       POPE     C217     CD32A     2.07980       11.6110           0  -1.66000       1.30000    
     16134 MEMB     89       POPE     DC217    DRUD     -2.23580      0.400000           0   0.00000       0.00000    
     16135 MEMB     89       POPE     H17R     HDA2A    0.780000E-01   1.00800           0   0.00000       0.00000    
     16136 MEMB     89       POPE     H17S     HDA2A    0.780000E-01   1.00800           0   0.00000       0.00000    
     16137 MEMB     89       POPE     C218     CD33A     2.30820       11.6110           0  -2.05100       1.30000    
     16138 MEMB     89       POPE     DC218    DRUD     -2.48520      0.400000           0   0.00000       0.00000    
     16139 MEMB     89       POPE     H18R     HDA3A    0.590000E-01   1.00800           0   0.00000       0.00000    
     16140 MEMB     89       POPE     H18S     HDA3A    0.590000E-01   1.00800           0   0.00000       0.00000    
     16141 MEMB     89       POPE     H18T     HDA3A    0.590000E-01   1.00800           0   0.00000       0.00000    
     16142 MEMB     89       POPE     C33      CD32A     2.07980       11.6110           0  -1.66000       1.30000    
     16143 MEMB     89       POPE     DC33     DRUD     -2.23580      0.400000           0   0.00000       0.00000    
     16144 MEMB     89       POPE     H3X      HDA2A    0.780000E-01   1.00800           0   0.00000       0.00000    
     16145 MEMB     89       POPE     H3Y      HDA2A    0.780000E-01   1.00800           0   0.00000       0.00000    
     16146 MEMB     89       POPE     C34      CD32A     2.07980       11.6110           0  -1.66000       1.30000    
     16147 MEMB     89       POPE     DC34     DRUD     -2.23580      0.400000           0   0.00000       0.00000    
     16148 MEMB     89       POPE     H4X      HDA2A    0.780000E-01   1.00800           0   0.00000       0.00000    
     16149 MEMB     89       POPE     H4Y      HDA2A    0.780000E-01   1.00800           0   0.00000       0.00000    
     16150 MEMB     89       POPE     C35      CD32A     2.07980       11.6110           0  -1.66000       1.30000    
     16151 MEMB     89       POPE     DC35     DRUD     -2.23580      0.400000           0   0.00000       0.00000    
     16152 MEMB     89       POPE     H5X      HDA2A    0.780000E-01   1.00800           0   0.00000       0.00000    
     16153 MEMB     89       POPE     H5Y      HDA2A    0.780000E-01   1.00800           0   0.00000       0.00000    
     16154 MEMB     89       POPE     C36      CD32A     2.07980       11.6110           0  -1.66000       1.30000    
     16155 MEMB     89       POPE     DC36     DRUD     -2.23580      0.400000           0   0.00000       0.00000    
     16156 MEMB     89       POPE     H6X      HDA2A    0.780000E-01   1.00800           0   0.00000       0.00000    
     16157 MEMB     89       POPE     H6Y      HDA2A    0.780000E-01   1.00800           0   0.00000       0.00000    
     16158 MEMB     89       POPE     C37      CD32A     2.07980       11.6110           0  -1.66000       1.30000    
     16159 MEMB     89       POPE     DC37     DRUD     -2.23580      0.400000           0   0.00000       0.00000    
     16160 MEMB     89       POPE     H7X      HDA2A    0.780000E-01   1.00800           0   0.00000       0.00000    
     16161 MEMB     89       POPE     H7Y      HDA2A    0.780000E-01   1.00800           0   0.00000       0.00000    
     16162 MEMB     89       POPE     C38      CD32A     2.07980       11.6110           0  -1.66000       1.30000    
     16163 MEMB     89       POPE     DC38     DRUD     -2.23580      0.400000           0   0.00000       0.00000    
     16164 MEMB     89       POPE     H8X      HDA2A    0.780000E-01   1.00800           0   0.00000       0.00000    
     16165 MEMB     89       POPE     H8Y      HDA2A    0.780000E-01   1.00800           0   0.00000       0.00000    
     16166 MEMB     89       POPE     C39      CD32A     2.07980       11.6110           0  -1.66000       1.30000    
     16167 MEMB     89       POPE     DC39     DRUD     -2.23580      0.400000           0   0.00000       0.00000    
     16168 MEMB     89       POPE     H9X      HDA2A    0.780000E-01   1.00800           0   0.00000       0.00000    
     16169 MEMB     89       POPE     H9Y      HDA2A    0.780000E-01   1.00800           0   0.00000       0.00000    
     16170 MEMB     89       POPE     C310     CD32A     2.07980       11.6110           0  -1.66000       1.30000    
     16171 MEMB     89       POPE     DC310    DRUD     -2.23580      0.400000           0   0.00000       0.00000    
     16172 MEMB     89       POPE     H10X     HDA2A    0.780000E-01   1.00800           0   0.00000       0.00000    
     16173 MEMB     89       POPE     H10Y     HDA2A    0.780000E-01   1.00800           0   0.00000       0.00000    
     16174 MEMB     89       POPE     C311     CD32A     2.07980       11.6110           0  -1.66000       1.30000    
     16175 MEMB     89       POPE     DC311    DRUD     -2.23580      0.400000           0   0.00000       0.00000    
     16176 MEMB     89       POPE     H11X     HDA2A    0.780000E-01   1.00800           0   0.00000       0.00000    
     16177 MEMB     89       POPE     H11Y     HDA2A    0.780000E-01   1.00800           0   0.00000       0.00000    
     16178 MEMB     89       POPE     C312     CD32A     2.07980       11.6110           0  -1.66000       1.30000    
     16179 MEMB     89       POPE     DC312    DRUD     -2.23580      0.400000           0   0.00000       0.00000    
     16180 MEMB     89       POPE     H12X     HDA2A    0.780000E-01   1.00800           0   0.00000       0.00000    
     16181 MEMB     89       POPE     H12Y     HDA2A    0.780000E-01   1.00800           0   0.00000       0.00000    
     16182 MEMB     89       POPE     C313     CD32A     2.07980       11.6110           0  -1.66000       1.30000    
     16183 MEMB     89       POPE     DC313    DRUD     -2.23580      0.400000           0   0.00000       0.00000    
     16184 MEMB     89       POPE     H13X     HDA2A    0.780000E-01   1.00800           0   0.00000       0.00000    
     16185 MEMB     89       POPE     H13Y     HDA2A    0.780000E-01   1.00800           0   0.00000       0.00000    
     16186 MEMB     89       POPE     C314     CD32A     2.07980       11.6110           0  -1.66000       1.30000    
     16187 MEMB     89       POPE     DC314    DRUD     -2.23580      0.400000           0   0.00000       0.00000    
     16188 MEMB     89       POPE     H14X     HDA2A    0.780000E-01   1.00800           0   0.00000       0.00000    
     16189 MEMB     89       POPE     H14Y     HDA2A    0.780000E-01   1.00800           0   0.00000       0.00000    
     16190 MEMB     89       POPE     C315     CD32A     2.07980       11.6110           0  -1.66000       1.30000    
     16191 MEMB     89       POPE     DC315    DRUD     -2.23580      0.400000           0   0.00000       0.00000    
     16192 MEMB     89       POPE     H15X     HDA2A    0.780000E-01   1.00800           0   0.00000       0.00000    
     16193 MEMB     89       POPE     H15Y     HDA2A    0.780000E-01   1.00800           0   0.00000       0.00000    
     16194 MEMB     89       POPE     C316     CD33A     2.30820       11.6110           0  -2.05100       1.30000    
     16195 MEMB     89       POPE     DC316    DRUD     -2.48520      0.400000           0   0.00000       0.00000    
     16196 MEMB     89       POPE     H16X     HDA3A    0.590000E-01   1.00800           0   0.00000       0.00000    
     16197 MEMB     89       POPE     H16Y     HDA3A    0.590000E-01   1.00800           0   0.00000       0.00000    
     16198 MEMB     89       POPE     H16Z     HDA3A    0.590000E-01   1.00800           0   0.00000       0.00000    
     16199 MEMB     90       POPE     N        ND3P3A    1.62810       13.6070           0  -1.29800      0.895000    
     16200 MEMB     90       POPE     DN       DRUD     -1.97710      0.400000           0   0.00000       0.00000    
     16201 MEMB     90       POPE     HN1      HDP1B    0.340000       1.00800           0   0.00000       0.00000    
     16202 MEMB     90       POPE     HN2      HDP1B    0.340000       1.00800           0   0.00000       0.00000    
     16203 MEMB     90       POPE     HN3      HDP1B    0.340000       1.00800           0   0.00000       0.00000    
     16204 MEMB     90       POPE     C12      CD32A     2.27610       11.6110           0  -1.65600      0.895000    
     16205 MEMB     90       POPE     DC12     DRUD     -2.23310      0.400000           0   0.00000       0.00000    
     16206 MEMB     90       POPE     H12A     HDA2A    0.143000       1.00800           0   0.00000       0.00000    
     16207 MEMB     90       POPE     H12B     HDA2A    0.143000       1.00800           0   0.00000       0.00000    
     16208 MEMB     90       POPE     C11      CD32A     2.42220       11.6110           0  -1.64200      0.862000    
     16209 MEMB     90       POPE     DC11     DRUD     -2.22370      0.400000           0   0.00000       0.00000    
     16210 MEMB     90       POPE     H11A     HDA2A    0.260000E-01   1.00800           0   0.00000       0.00000    
     16211 MEMB     90       POPE     H11B     HDA2A    0.260000E-01   1.00800           0   0.00000       0.00000    
     16212 MEMB     90       POPE     P        PD1A      2.90360       30.5740           0 -0.974000       2.09800    
     16213 MEMB     90       POPE     DP       DRUD     -1.71260      0.400000           0   0.00000       0.00000    
     16214 MEMB     90       POPE     O13      OD2C2B   0.798400       15.5994           0 -0.931000       1.08300    
     16215 MEMB     90       POPE     DO13     DRUD     -1.67440      0.400000           0   0.00000       0.00000    
     16216 MEMB     90       POPE     O14      OD2C2B   0.798400       15.5994           0 -0.931000       1.08300    
     16217 MEMB     90       POPE     DO14     DRUD     -1.67440      0.400000           0   0.00000       0.00000    
     16218 MEMB     90       POPE     O11      OD30B     1.17720       15.5994           0 -0.901000      0.181000    
     16219 MEMB     90       POPE     DO11     DRUD     -1.64720      0.400000           0   0.00000       0.00000    
     16220 MEMB     90       POPE     O12      OD30B     1.17720       15.5994           0 -0.901000      0.181000    
     16221 MEMB     90       POPE     DO12     DRUD     -1.64720      0.400000           0   0.00000       0.00000    
     16222 MEMB     90       POPE     C1       CD32A     2.42220       11.6110           0  -1.64200      0.862000    
     16223 MEMB     90       POPE     DC1      DRUD     -2.22370      0.400000           0   0.00000       0.00000    
     16224 MEMB     90       POPE     HA       HDA2A    0.260000E-01   1.00800           0   0.00000       0.00000    
     16225 MEMB     90       POPE     HB       HDA2A    0.260000E-01   1.00800           0   0.00000       0.00000    
     16226 MEMB     90       POPE     C2       CD31C     2.52830       11.6110           0  -1.79700      0.410000    
     16227 MEMB     90       POPE     DC2      DRUD     -2.32630      0.400000           0   0.00000       0.00000    
     16228 MEMB     90       POPE     HS       HDA1A    0.116000       1.00800           0   0.00000       0.00000    
     16229 MEMB     90       POPE     O21      OD30CL    1.48470       15.5994           0 -0.732000      0.601000    
     16230 MEMB     90       POPE     DO21     DRUD     -1.48470      0.400000           0   0.00000       0.00000    
     16231 MEMB     90       POPE     C21      CD2O3B    2.72820       11.6110           0  -1.37000       1.74700    
     16232 MEMB     90       POPE     DC21     DRUD     -2.03120      0.400000           0   0.00000       0.00000    
     16233 MEMB     90       POPE     O22      OD2C3B    1.64990       15.5994           0 -0.904000      0.565000    
     16234 MEMB     90       POPE     DO22     DRUD     -1.64990      0.400000           0   0.00000       0.00000    
     16235 MEMB     90       POPE     C22      CD32C     2.24380       11.6110           0  -1.99300      0.410000    
     16236 MEMB     90       POPE     DC22     DRUD     -2.44980      0.400000           0   0.00000       0.00000    
     16237 MEMB     90       POPE     H2R      HDA2A    0.690000E-01   1.00800           0   0.00000       0.00000    
     16238 MEMB     90       POPE     H2S      HDA2A    0.690000E-01   1.00800           0   0.00000       0.00000    
     16239 MEMB     90       POPE     LP1A     LPD     -0.349000       0.00000          -1   0.00000       0.00000    
     16240 MEMB     90       POPE     LP1B     LPD     -0.258000       0.00000          -1   0.00000       0.00000    
     16241 MEMB     90       POPE     LPMA     LPD     -0.170000       0.00000          -1   0.00000       0.00000    
     16242 MEMB     90       POPE     LPMB     LPD     -0.170000       0.00000          -1   0.00000       0.00000    
     16243 MEMB     90       POPE     C3       CD32C     2.41230       11.6110           0  -1.79700      0.410000    
     16244 MEMB     90       POPE     DC3      DRUD     -2.32630      0.400000           0   0.00000       0.00000    
     16245 MEMB     90       POPE     HX       HDA2A    0.116000       1.00800           0   0.00000       0.00000    
     16246 MEMB     90       POPE     HY       HDA2A    0.116000       1.00800           0   0.00000       0.00000    
     16247 MEMB     90       POPE     O31      OD30CL    1.48470       15.5994           0 -0.732000      0.601000    
     16248 MEMB     90       POPE     DO31     DRUD     -1.48470      0.400000           0   0.00000       0.00000    
     16249 MEMB     90       POPE     C31      CD2O3B    2.72820       11.6110           0  -1.37000       1.74700    
     16250 MEMB     90       POPE     DC31     DRUD     -2.03120      0.400000           0   0.00000       0.00000    
     16251 MEMB     90       POPE     O32      OD2C3B    1.64990       15.5994           0 -0.904000      0.565000    
     16252 MEMB     90       POPE     DO32     DRUD     -1.64990      0.400000           0   0.00000       0.00000    
     16253 MEMB     90       POPE     C32      CD32C     2.24380       11.6110           0  -1.99300      0.410000    
     16254 MEMB     90       POPE     DC32     DRUD     -2.44980      0.400000           0   0.00000       0.00000    
     16255 MEMB     90       POPE     H2X      HDA2A    0.690000E-01   1.00800           0   0.00000       0.00000    
     16256 MEMB     90       POPE     H2Y      HDA2A    0.690000E-01   1.00800           0   0.00000       0.00000    
     16257 MEMB     90       POPE     LP1C     LPD     -0.349000       0.00000          -1   0.00000       0.00000    
     16258 MEMB     90       POPE     LP1D     LPD     -0.258000       0.00000          -1   0.00000       0.00000    
     16259 MEMB     90       POPE     LPMC     LPD     -0.170000       0.00000          -1   0.00000       0.00000    
     16260 MEMB     90       POPE     LPMD     LPD     -0.170000       0.00000          -1   0.00000       0.00000    
     16261 MEMB     90       POPE     C23      CD32A     2.07980       11.6110           0  -1.66000       1.30000    
     16262 MEMB     90       POPE     DC23     DRUD     -2.23580      0.400000           0   0.00000       0.00000    
     16263 MEMB     90       POPE     H3R      HDA2A    0.780000E-01   1.00800           0   0.00000       0.00000    
     16264 MEMB     90       POPE     H3S      HDA2A    0.780000E-01   1.00800           0   0.00000       0.00000    
     16265 MEMB     90       POPE     C24      CD32A     2.07980       11.6110           0  -1.66000       1.30000    
     16266 MEMB     90       POPE     DC24     DRUD     -2.23580      0.400000           0   0.00000       0.00000    
     16267 MEMB     90       POPE     H4R      HDA2A    0.780000E-01   1.00800           0   0.00000       0.00000    
     16268 MEMB     90       POPE     H4S      HDA2A    0.780000E-01   1.00800           0   0.00000       0.00000    
     16269 MEMB     90       POPE     C25      CD32A     2.07980       11.6110           0  -1.66000       1.30000    
     16270 MEMB     90       POPE     DC25     DRUD     -2.23580      0.400000           0   0.00000       0.00000    
     16271 MEMB     90       POPE     H5R      HDA2A    0.780000E-01   1.00800           0   0.00000       0.00000    
     16272 MEMB     90       POPE     H5S      HDA2A    0.780000E-01   1.00800           0   0.00000       0.00000    
     16273 MEMB     90       POPE     C26      CD32A     2.07980       11.6110           0  -1.66000       1.30000    
     16274 MEMB     90       POPE     DC26     DRUD     -2.23580      0.400000           0   0.00000       0.00000    
     16275 MEMB     90       POPE     H6R      HDA2A    0.780000E-01   1.00800           0   0.00000       0.00000    
     16276 MEMB     90       POPE     H6S      HDA2A    0.780000E-01   1.00800           0   0.00000       0.00000    
     16277 MEMB     90       POPE     C27      CD32A     2.07980       11.6110           0  -1.66000       1.30000    
     16278 MEMB     90       POPE     DC27     DRUD     -2.23580      0.400000           0   0.00000       0.00000    
     16279 MEMB     90       POPE     H7R      HDA2A    0.780000E-01   1.00800           0   0.00000       0.00000    
     16280 MEMB     90       POPE     H7S      HDA2A    0.780000E-01   1.00800           0   0.00000       0.00000    
     16281 MEMB     90       POPE     C28      CD32A     2.07980       11.6110           0  -1.66000       1.30000    
     16282 MEMB     90       POPE     DC28     DRUD     -2.23580      0.400000           0   0.00000       0.00000    
     16283 MEMB     90       POPE     H8R      HDA2A    0.780000E-01   1.00800           0   0.00000       0.00000    
     16284 MEMB     90       POPE     H8S      HDA2A    0.780000E-01   1.00800           0   0.00000       0.00000    
     16285 MEMB     90       POPE     C29      CD2C1A    2.33700       11.6110           0  -1.99000      0.750000    
     16286 MEMB     90       POPE     DC29     DRUD     -2.44800      0.400000           0   0.00000       0.00000    
     16287 MEMB     90       POPE     H91      HD2C1A   0.111000       1.00800           0   0.00000       0.00000    
     16288 MEMB     90       POPE     C210     CD2C1A    2.33700       11.6110           0  -1.99000      0.750000    
     16289 MEMB     90       POPE     DC210    DRUD     -2.44800      0.400000           0   0.00000       0.00000    
     16290 MEMB     90       POPE     H101     HD2C1A   0.111000       1.00800           0   0.00000       0.00000    
     16291 MEMB     90       POPE     C211     CD32A     2.07980       11.6110           0  -1.66000       1.30000    
     16292 MEMB     90       POPE     DC211    DRUD     -2.23580      0.400000           0   0.00000       0.00000    
     16293 MEMB     90       POPE     H11R     HDA2A    0.780000E-01   1.00800           0   0.00000       0.00000    
     16294 MEMB     90       POPE     H11S     HDA2A    0.780000E-01   1.00800           0   0.00000       0.00000    
     16295 MEMB     90       POPE     C212     CD32A     2.07980       11.6110           0  -1.66000       1.30000    
     16296 MEMB     90       POPE     DC212    DRUD     -2.23580      0.400000           0   0.00000       0.00000    
     16297 MEMB     90       POPE     H12R     HDA2A    0.780000E-01   1.00800           0   0.00000       0.00000    
     16298 MEMB     90       POPE     H12S     HDA2A    0.780000E-01   1.00800           0   0.00000       0.00000    
     16299 MEMB     90       POPE     C213     CD32A     2.07980       11.6110           0  -1.66000       1.30000    
     16300 MEMB     90       POPE     DC213    DRUD     -2.23580      0.400000           0   0.00000       0.00000    
     16301 MEMB     90       POPE     H13R     HDA2A    0.780000E-01   1.00800           0   0.00000       0.00000    
     16302 MEMB     90       POPE     H13S     HDA2A    0.780000E-01   1.00800           0   0.00000       0.00000    
     16303 MEMB     90       POPE     C214     CD32A     2.07980       11.6110           0  -1.66000       1.30000    
     16304 MEMB     90       POPE     DC214    DRUD     -2.23580      0.400000           0   0.00000       0.00000    
     16305 MEMB     90       POPE     H14R     HDA2A    0.780000E-01   1.00800           0   0.00000       0.00000    
     16306 MEMB     90       POPE     H14S     HDA2A    0.780000E-01   1.00800           0   0.00000       0.00000    
     16307 MEMB     90       POPE     C215     CD32A     2.07980       11.6110           0  -1.66000       1.30000    
     16308 MEMB     90       POPE     DC215    DRUD     -2.23580      0.400000           0   0.00000       0.00000    
     16309 MEMB     90       POPE     H15R     HDA2A    0.780000E-01   1.00800           0   0.00000       0.00000    
     16310 MEMB     90       POPE     H15S     HDA2A    0.780000E-01   1.00800           0   0.00000       0.00000    
     16311 MEMB     90       POPE     C216     CD32A     2.07980       11.6110           0  -1.66000       1.30000    
     16312 MEMB     90       POPE     DC216    DRUD     -2.23580      0.400000           0   0.00000       0.00000    
     16313 MEMB     90       POPE     H16R     HDA2A    0.780000E-01   1.00800           0   0.00000       0.00000    
     16314 MEMB     90       POPE     H16S     HDA2A    0.780000E-01   1.00800           0   0.00000       0.00000    
     16315 MEMB     90       POPE     C217     CD32A     2.07980       11.6110           0  -1.66000       1.30000    
     16316 MEMB     90       POPE     DC217    DRUD     -2.23580      0.400000           0   0.00000       0.00000    
     16317 MEMB     90       POPE     H17R     HDA2A    0.780000E-01   1.00800           0   0.00000       0.00000    
     16318 MEMB     90       POPE     H17S     HDA2A    0.780000E-01   1.00800           0   0.00000       0.00000    
     16319 MEMB     90       POPE     C218     CD33A     2.30820       11.6110           0  -2.05100       1.30000    
     16320 MEMB     90       POPE     DC218    DRUD     -2.48520      0.400000           0   0.00000       0.00000    
     16321 MEMB     90       POPE     H18R     HDA3A    0.590000E-01   1.00800           0   0.00000       0.00000    
     16322 MEMB     90       POPE     H18S     HDA3A    0.590000E-01   1.00800           0   0.00000       0.00000    
     16323 MEMB     90       POPE     H18T     HDA3A    0.590000E-01   1.00800           0   0.00000       0.00000    
     16324 MEMB     90       POPE     C33      CD32A     2.07980       11.6110           0  -1.66000       1.30000    
     16325 MEMB     90       POPE     DC33     DRUD     -2.23580      0.400000           0   0.00000       0.00000    
     16326 MEMB     90       POPE     H3X      HDA2A    0.780000E-01   1.00800           0   0.00000       0.00000    
     16327 MEMB     90       POPE     H3Y      HDA2A    0.780000E-01   1.00800           0   0.00000       0.00000    
     16328 MEMB     90       POPE     C34      CD32A     2.07980       11.6110           0  -1.66000       1.30000    
     16329 MEMB     90       POPE     DC34     DRUD     -2.23580      0.400000           0   0.00000       0.00000    
     16330 MEMB     90       POPE     H4X      HDA2A    0.780000E-01   1.00800           0   0.00000       0.00000    
     16331 MEMB     90       POPE     H4Y      HDA2A    0.780000E-01   1.00800           0   0.00000       0.00000    
     16332 MEMB     90       POPE     C35      CD32A     2.07980       11.6110           0  -1.66000       1.30000    
     16333 MEMB     90       POPE     DC35     DRUD     -2.23580      0.400000           0   0.00000       0.00000    
     16334 MEMB     90       POPE     H5X      HDA2A    0.780000E-01   1.00800           0   0.00000       0.00000    
     16335 MEMB     90       POPE     H5Y      HDA2A    0.780000E-01   1.00800           0   0.00000       0.00000    
     16336 MEMB     90       POPE     C36      CD32A     2.07980       11.6110           0  -1.66000       1.30000    
     16337 MEMB     90       POPE     DC36     DRUD     -2.23580      0.400000           0   0.00000       0.00000    
     16338 MEMB     90       POPE     H6X      HDA2A    0.780000E-01   1.00800           0   0.00000       0.00000    
     16339 MEMB     90       POPE     H6Y      HDA2A    0.780000E-01   1.00800           0   0.00000       0.00000    
     16340 MEMB     90       POPE     C37      CD32A     2.07980       11.6110           0  -1.66000       1.30000    
     16341 MEMB     90       POPE     DC37     DRUD     -2.23580      0.400000           0   0.00000       0.00000    
     16342 MEMB     90       POPE     H7X      HDA2A    0.780000E-01   1.00800           0   0.00000       0.00000    
     16343 MEMB     90       POPE     H7Y      HDA2A    0.780000E-01   1.00800           0   0.00000       0.00000    
     16344 MEMB     90       POPE     C38      CD32A     2.07980       11.6110           0  -1.66000       1.30000    
     16345 MEMB     90       POPE     DC38     DRUD     -2.23580      0.400000           0   0.00000       0.00000    
     16346 MEMB     90       POPE     H8X      HDA2A    0.780000E-01   1.00800           0   0.00000       0.00000    
     16347 MEMB     90       POPE     H8Y      HDA2A    0.780000E-01   1.00800           0   0.00000       0.00000    
     16348 MEMB     90       POPE     C39      CD32A     2.07980       11.6110           0  -1.66000       1.30000    
     16349 MEMB     90       POPE     DC39     DRUD     -2.23580      0.400000           0   0.00000       0.00000    
     16350 MEMB     90       POPE     H9X      HDA2A    0.780000E-01   1.00800           0   0.00000       0.00000    
     16351 MEMB     90       POPE     H9Y      HDA2A    0.780000E-01   1.00800           0   0.00000       0.00000    
     16352 MEMB     90       POPE     C310     CD32A     2.07980       11.6110           0  -1.66000       1.30000    
     16353 MEMB     90       POPE     DC310    DRUD     -2.23580      0.400000           0   0.00000       0.00000    
     16354 MEMB     90       POPE     H10X     HDA2A    0.780000E-01   1.00800           0   0.00000       0.00000    
     16355 MEMB     90       POPE     H10Y     HDA2A    0.780000E-01   1.00800           0   0.00000       0.00000    
     16356 MEMB     90       POPE     C311     CD32A     2.07980       11.6110           0  -1.66000       1.30000    
     16357 MEMB     90       POPE     DC311    DRUD     -2.23580      0.400000           0   0.00000       0.00000    
     16358 MEMB     90       POPE     H11X     HDA2A    0.780000E-01   1.00800           0   0.00000       0.00000    
     16359 MEMB     90       POPE     H11Y     HDA2A    0.780000E-01   1.00800           0   0.00000       0.00000    
     16360 MEMB     90       POPE     C312     CD32A     2.07980       11.6110           0  -1.66000       1.30000    
     16361 MEMB     90       POPE     DC312    DRUD     -2.23580      0.400000           0   0.00000       0.00000    
     16362 MEMB     90       POPE     H12X     HDA2A    0.780000E-01   1.00800           0   0.00000       0.00000    
     16363 MEMB     90       POPE     H12Y     HDA2A    0.780000E-01   1.00800           0   0.00000       0.00000    
     16364 MEMB     90       POPE     C313     CD32A     2.07980       11.6110           0  -1.66000       1.30000    
     16365 MEMB     90       POPE     DC313    DRUD     -2.23580      0.400000           0   0.00000       0.00000    
     16366 MEMB     90       POPE     H13X     HDA2A    0.780000E-01   1.00800           0   0.00000       0.00000    
     16367 MEMB     90       POPE     H13Y     HDA2A    0.780000E-01   1.00800           0   0.00000       0.00000    
     16368 MEMB     90       POPE     C314     CD32A     2.07980       11.6110           0  -1.66000       1.30000    
     16369 MEMB     90       POPE     DC314    DRUD     -2.23580      0.400000           0   0.00000       0.00000    
     16370 MEMB     90       POPE     H14X     HDA2A    0.780000E-01   1.00800           0   0.00000       0.00000    
     16371 MEMB     90       POPE     H14Y     HDA2A    0.780000E-01   1.00800           0   0.00000       0.00000    
     16372 MEMB     90       POPE     C315     CD32A     2.07980       11.6110           0  -1.66000       1.30000    
     16373 MEMB     90       POPE     DC315    DRUD     -2.23580      0.400000           0   0.00000       0.00000    
     16374 MEMB     90       POPE     H15X     HDA2A    0.780000E-01   1.00800           0   0.00000       0.00000    
     16375 MEMB     90       POPE     H15Y     HDA2A    0.780000E-01   1.00800           0   0.00000       0.00000    
     16376 MEMB     90       POPE     C316     CD33A     2.30820       11.6110           0  -2.05100       1.30000    
     16377 MEMB     90       POPE     DC316    DRUD     -2.48520      0.400000           0   0.00000       0.00000    
     16378 MEMB     90       POPE     H16X     HDA3A    0.590000E-01   1.00800           0   0.00000       0.00000    
     16379 MEMB     90       POPE     H16Y     HDA3A    0.590000E-01   1.00800           0   0.00000       0.00000    
     16380 MEMB     90       POPE     H16Z     HDA3A    0.590000E-01   1.00800           0   0.00000       0.00000    
     16381 MEMB     91       POPE     N        ND3P3A    1.62810       13.6070           0  -1.29800      0.895000    
     16382 MEMB     91       POPE     DN       DRUD     -1.97710      0.400000           0   0.00000       0.00000    
     16383 MEMB     91       POPE     HN1      HDP1B    0.340000       1.00800           0   0.00000       0.00000    
     16384 MEMB     91       POPE     HN2      HDP1B    0.340000       1.00800           0   0.00000       0.00000    
     16385 MEMB     91       POPE     HN3      HDP1B    0.340000       1.00800           0   0.00000       0.00000    
     16386 MEMB     91       POPE     C12      CD32A     2.27610       11.6110           0  -1.65600      0.895000    
     16387 MEMB     91       POPE     DC12     DRUD     -2.23310      0.400000           0   0.00000       0.00000    
     16388 MEMB     91       POPE     H12A     HDA2A    0.143000       1.00800           0   0.00000       0.00000    
     16389 MEMB     91       POPE     H12B     HDA2A    0.143000       1.00800           0   0.00000       0.00000    
     16390 MEMB     91       POPE     C11      CD32A     2.42220       11.6110           0  -1.64200      0.862000    
     16391 MEMB     91       POPE     DC11     DRUD     -2.22370      0.400000           0   0.00000       0.00000    
     16392 MEMB     91       POPE     H11A     HDA2A    0.260000E-01   1.00800           0   0.00000       0.00000    
     16393 MEMB     91       POPE     H11B     HDA2A    0.260000E-01   1.00800           0   0.00000       0.00000    
     16394 MEMB     91       POPE     P        PD1A      2.90360       30.5740           0 -0.974000       2.09800    
     16395 MEMB     91       POPE     DP       DRUD     -1.71260      0.400000           0   0.00000       0.00000    
     16396 MEMB     91       POPE     O13      OD2C2B   0.798400       15.5994           0 -0.931000       1.08300    
     16397 MEMB     91       POPE     DO13     DRUD     -1.67440      0.400000           0   0.00000       0.00000    
     16398 MEMB     91       POPE     O14      OD2C2B   0.798400       15.5994           0 -0.931000       1.08300    
     16399 MEMB     91       POPE     DO14     DRUD     -1.67440      0.400000           0   0.00000       0.00000    
     16400 MEMB     91       POPE     O11      OD30B     1.17720       15.5994           0 -0.901000      0.181000    
     16401 MEMB     91       POPE     DO11     DRUD     -1.64720      0.400000           0   0.00000       0.00000    
     16402 MEMB     91       POPE     O12      OD30B     1.17720       15.5994           0 -0.901000      0.181000    
     16403 MEMB     91       POPE     DO12     DRUD     -1.64720      0.400000           0   0.00000       0.00000    
     16404 MEMB     91       POPE     C1       CD32A     2.42220       11.6110           0  -1.64200      0.862000    
     16405 MEMB     91       POPE     DC1      DRUD     -2.22370      0.400000           0   0.00000       0.00000    
     16406 MEMB     91       POPE     HA       HDA2A    0.260000E-01   1.00800           0   0.00000       0.00000    
     16407 MEMB     91       POPE     HB       HDA2A    0.260000E-01   1.00800           0   0.00000       0.00000    
     16408 MEMB     91       POPE     C2       CD31C     2.52830       11.6110           0  -1.79700      0.410000    
     16409 MEMB     91       POPE     DC2      DRUD     -2.32630      0.400000           0   0.00000       0.00000    
     16410 MEMB     91       POPE     HS       HDA1A    0.116000       1.00800           0   0.00000       0.00000    
     16411 MEMB     91       POPE     O21      OD30CL    1.48470       15.5994           0 -0.732000      0.601000    
     16412 MEMB     91       POPE     DO21     DRUD     -1.48470      0.400000           0   0.00000       0.00000    
     16413 MEMB     91       POPE     C21      CD2O3B    2.72820       11.6110           0  -1.37000       1.74700    
     16414 MEMB     91       POPE     DC21     DRUD     -2.03120      0.400000           0   0.00000       0.00000    
     16415 MEMB     91       POPE     O22      OD2C3B    1.64990       15.5994           0 -0.904000      0.565000    
     16416 MEMB     91       POPE     DO22     DRUD     -1.64990      0.400000           0   0.00000       0.00000    
     16417 MEMB     91       POPE     C22      CD32C     2.24380       11.6110           0  -1.99300      0.410000    
     16418 MEMB     91       POPE     DC22     DRUD     -2.44980      0.400000           0   0.00000       0.00000    
     16419 MEMB     91       POPE     H2R      HDA2A    0.690000E-01   1.00800           0   0.00000       0.00000    
     16420 MEMB     91       POPE     H2S      HDA2A    0.690000E-01   1.00800           0   0.00000       0.00000    
     16421 MEMB     91       POPE     LP1A     LPD     -0.349000       0.00000          -1   0.00000       0.00000    
     16422 MEMB     91       POPE     LP1B     LPD     -0.258000       0.00000          -1   0.00000       0.00000    
     16423 MEMB     91       POPE     LPMA     LPD     -0.170000       0.00000          -1   0.00000       0.00000    
     16424 MEMB     91       POPE     LPMB     LPD     -0.170000       0.00000          -1   0.00000       0.00000    
     16425 MEMB     91       POPE     C3       CD32C     2.41230       11.6110           0  -1.79700      0.410000    
     16426 MEMB     91       POPE     DC3      DRUD     -2.32630      0.400000           0   0.00000       0.00000    
     16427 MEMB     91       POPE     HX       HDA2A    0.116000       1.00800           0   0.00000       0.00000    
     16428 MEMB     91       POPE     HY       HDA2A    0.116000       1.00800           0   0.00000       0.00000    
     16429 MEMB     91       POPE     O31      OD30CL    1.48470       15.5994           0 -0.732000      0.601000    
     16430 MEMB     91       POPE     DO31     DRUD     -1.48470      0.400000           0   0.00000       0.00000    
     16431 MEMB     91       POPE     C31      CD2O3B    2.72820       11.6110           0  -1.37000       1.74700    
     16432 MEMB     91       POPE     DC31     DRUD     -2.03120      0.400000           0   0.00000       0.00000    
     16433 MEMB     91       POPE     O32      OD2C3B    1.64990       15.5994           0 -0.904000      0.565000    
     16434 MEMB     91       POPE     DO32     DRUD     -1.64990      0.400000           0   0.00000       0.00000    
     16435 MEMB     91       POPE     C32      CD32C     2.24380       11.6110           0  -1.99300      0.410000    
     16436 MEMB     91       POPE     DC32     DRUD     -2.44980      0.400000           0   0.00000       0.00000    
     16437 MEMB     91       POPE     H2X      HDA2A    0.690000E-01   1.00800           0   0.00000       0.00000    
     16438 MEMB     91       POPE     H2Y      HDA2A    0.690000E-01   1.00800           0   0.00000       0.00000    
     16439 MEMB     91       POPE     LP1C     LPD     -0.349000       0.00000          -1   0.00000       0.00000    
     16440 MEMB     91       POPE     LP1D     LPD     -0.258000       0.00000          -1   0.00000       0.00000    
     16441 MEMB     91       POPE     LPMC     LPD     -0.170000       0.00000          -1   0.00000       0.00000    
     16442 MEMB     91       POPE     LPMD     LPD     -0.170000       0.00000          -1   0.00000       0.00000    
     16443 MEMB     91       POPE     C23      CD32A     2.07980       11.6110           0  -1.66000       1.30000    
     16444 MEMB     91       POPE     DC23     DRUD     -2.23580      0.400000           0   0.00000       0.00000    
     16445 MEMB     91       POPE     H3R      HDA2A    0.780000E-01   1.00800           0   0.00000       0.00000    
     16446 MEMB     91       POPE     H3S      HDA2A    0.780000E-01   1.00800           0   0.00000       0.00000    
     16447 MEMB     91       POPE     C24      CD32A     2.07980       11.6110           0  -1.66000       1.30000    
     16448 MEMB     91       POPE     DC24     DRUD     -2.23580      0.400000           0   0.00000       0.00000    
     16449 MEMB     91       POPE     H4R      HDA2A    0.780000E-01   1.00800           0   0.00000       0.00000    
     16450 MEMB     91       POPE     H4S      HDA2A    0.780000E-01   1.00800           0   0.00000       0.00000    
     16451 MEMB     91       POPE     C25      CD32A     2.07980       11.6110           0  -1.66000       1.30000    
     16452 MEMB     91       POPE     DC25     DRUD     -2.23580      0.400000           0   0.00000       0.00000    
     16453 MEMB     91       POPE     H5R      HDA2A    0.780000E-01   1.00800           0   0.00000       0.00000    
     16454 MEMB     91       POPE     H5S      HDA2A    0.780000E-01   1.00800           0   0.00000       0.00000    
     16455 MEMB     91       POPE     C26      CD32A     2.07980       11.6110           0  -1.66000       1.30000    
     16456 MEMB     91       POPE     DC26     DRUD     -2.23580      0.400000           0   0.00000       0.00000    
     16457 MEMB     91       POPE     H6R      HDA2A    0.780000E-01   1.00800           0   0.00000       0.00000    
     16458 MEMB     91       POPE     H6S      HDA2A    0.780000E-01   1.00800           0   0.00000       0.00000    
     16459 MEMB     91       POPE     C27      CD32A     2.07980       11.6110           0  -1.66000       1.30000    
     16460 MEMB     91       POPE     DC27     DRUD     -2.23580      0.400000           0   0.00000       0.00000    
     16461 MEMB     91       POPE     H7R      HDA2A    0.780000E-01   1.00800           0   0.00000       0.00000    
     16462 MEMB     91       POPE     H7S      HDA2A    0.780000E-01   1.00800           0   0.00000       0.00000    
     16463 MEMB     91       POPE     C28      CD32A     2.07980       11.6110           0  -1.66000       1.30000    
     16464 MEMB     91       POPE     DC28     DRUD     -2.23580      0.400000           0   0.00000       0.00000    
     16465 MEMB     91       POPE     H8R      HDA2A    0.780000E-01   1.00800           0   0.00000       0.00000    
     16466 MEMB     91       POPE     H8S      HDA2A    0.780000E-01   1.00800           0   0.00000       0.00000    
     16467 MEMB     91       POPE     C29      CD2C1A    2.33700       11.6110           0  -1.99000      0.750000    
     16468 MEMB     91       POPE     DC29     DRUD     -2.44800      0.400000           0   0.00000       0.00000    
     16469 MEMB     91       POPE     H91      HD2C1A   0.111000       1.00800           0   0.00000       0.00000    
     16470 MEMB     91       POPE     C210     CD2C1A    2.33700       11.6110           0  -1.99000      0.750000    
     16471 MEMB     91       POPE     DC210    DRUD     -2.44800      0.400000           0   0.00000       0.00000    
     16472 MEMB     91       POPE     H101     HD2C1A   0.111000       1.00800           0   0.00000       0.00000    
     16473 MEMB     91       POPE     C211     CD32A     2.07980       11.6110           0  -1.66000       1.30000    
     16474 MEMB     91       POPE     DC211    DRUD     -2.23580      0.400000           0   0.00000       0.00000    
     16475 MEMB     91       POPE     H11R     HDA2A    0.780000E-01   1.00800           0   0.00000       0.00000    
     16476 MEMB     91       POPE     H11S     HDA2A    0.780000E-01   1.00800           0   0.00000       0.00000    
     16477 MEMB     91       POPE     C212     CD32A     2.07980       11.6110           0  -1.66000       1.30000    
     16478 MEMB     91       POPE     DC212    DRUD     -2.23580      0.400000           0   0.00000       0.00000    
     16479 MEMB     91       POPE     H12R     HDA2A    0.780000E-01   1.00800           0   0.00000       0.00000    
     16480 MEMB     91       POPE     H12S     HDA2A    0.780000E-01   1.00800           0   0.00000       0.00000    
     16481 MEMB     91       POPE     C213     CD32A     2.07980       11.6110           0  -1.66000       1.30000    
     16482 MEMB     91       POPE     DC213    DRUD     -2.23580      0.400000           0   0.00000       0.00000    
     16483 MEMB     91       POPE     H13R     HDA2A    0.780000E-01   1.00800           0   0.00000       0.00000    
     16484 MEMB     91       POPE     H13S     HDA2A    0.780000E-01   1.00800           0   0.00000       0.00000    
     16485 MEMB     91       POPE     C214     CD32A     2.07980       11.6110           0  -1.66000       1.30000    
     16486 MEMB     91       POPE     DC214    DRUD     -2.23580      0.400000           0   0.00000       0.00000    
     16487 MEMB     91       POPE     H14R     HDA2A    0.780000E-01   1.00800           0   0.00000       0.00000    
     16488 MEMB     91       POPE     H14S     HDA2A    0.780000E-01   1.00800           0   0.00000       0.00000    
     16489 MEMB     91       POPE     C215     CD32A     2.07980       11.6110           0  -1.66000       1.30000    
     16490 MEMB     91       POPE     DC215    DRUD     -2.23580      0.400000           0   0.00000       0.00000    
     16491 MEMB     91       POPE     H15R     HDA2A    0.780000E-01   1.00800           0   0.00000       0.00000    
     16492 MEMB     91       POPE     H15S     HDA2A    0.780000E-01   1.00800           0   0.00000       0.00000    
     16493 MEMB     91       POPE     C216     CD32A     2.07980       11.6110           0  -1.66000       1.30000    
     16494 MEMB     91       POPE     DC216    DRUD     -2.23580      0.400000           0   0.00000       0.00000    
     16495 MEMB     91       POPE     H16R     HDA2A    0.780000E-01   1.00800           0   0.00000       0.00000    
     16496 MEMB     91       POPE     H16S     HDA2A    0.780000E-01   1.00800           0   0.00000       0.00000    
     16497 MEMB     91       POPE     C217     CD32A     2.07980       11.6110           0  -1.66000       1.30000    
     16498 MEMB     91       POPE     DC217    DRUD     -2.23580      0.400000           0   0.00000       0.00000    
     16499 MEMB     91       POPE     H17R     HDA2A    0.780000E-01   1.00800           0   0.00000       0.00000    
     16500 MEMB     91       POPE     H17S     HDA2A    0.780000E-01   1.00800           0   0.00000       0.00000    
     16501 MEMB     91       POPE     C218     CD33A     2.30820       11.6110           0  -2.05100       1.30000    
     16502 MEMB     91       POPE     DC218    DRUD     -2.48520      0.400000           0   0.00000       0.00000    
     16503 MEMB     91       POPE     H18R     HDA3A    0.590000E-01   1.00800           0   0.00000       0.00000    
     16504 MEMB     91       POPE     H18S     HDA3A    0.590000E-01   1.00800           0   0.00000       0.00000    
     16505 MEMB     91       POPE     H18T     HDA3A    0.590000E-01   1.00800           0   0.00000       0.00000    
     16506 MEMB     91       POPE     C33      CD32A     2.07980       11.6110           0  -1.66000       1.30000    
     16507 MEMB     91       POPE     DC33     DRUD     -2.23580      0.400000           0   0.00000       0.00000    
     16508 MEMB     91       POPE     H3X      HDA2A    0.780000E-01   1.00800           0   0.00000       0.00000    
     16509 MEMB     91       POPE     H3Y      HDA2A    0.780000E-01   1.00800           0   0.00000       0.00000    
     16510 MEMB     91       POPE     C34      CD32A     2.07980       11.6110           0  -1.66000       1.30000    
     16511 MEMB     91       POPE     DC34     DRUD     -2.23580      0.400000           0   0.00000       0.00000    
     16512 MEMB     91       POPE     H4X      HDA2A    0.780000E-01   1.00800           0   0.00000       0.00000    
     16513 MEMB     91       POPE     H4Y      HDA2A    0.780000E-01   1.00800           0   0.00000       0.00000    
     16514 MEMB     91       POPE     C35      CD32A     2.07980       11.6110           0  -1.66000       1.30000    
     16515 MEMB     91       POPE     DC35     DRUD     -2.23580      0.400000           0   0.00000       0.00000    
     16516 MEMB     91       POPE     H5X      HDA2A    0.780000E-01   1.00800           0   0.00000       0.00000    
     16517 MEMB     91       POPE     H5Y      HDA2A    0.780000E-01   1.00800           0   0.00000       0.00000    
     16518 MEMB     91       POPE     C36      CD32A     2.07980       11.6110           0  -1.66000       1.30000    
     16519 MEMB     91       POPE     DC36     DRUD     -2.23580      0.400000           0   0.00000       0.00000    
     16520 MEMB     91       POPE     H6X      HDA2A    0.780000E-01   1.00800           0   0.00000       0.00000    
     16521 MEMB     91       POPE     H6Y      HDA2A    0.780000E-01   1.00800           0   0.00000       0.00000    
     16522 MEMB     91       POPE     C37      CD32A     2.07980       11.6110           0  -1.66000       1.30000    
     16523 MEMB     91       POPE     DC37     DRUD     -2.23580      0.400000           0   0.00000       0.00000    
     16524 MEMB     91       POPE     H7X      HDA2A    0.780000E-01   1.00800           0   0.00000       0.00000    
     16525 MEMB     91       POPE     H7Y      HDA2A    0.780000E-01   1.00800           0   0.00000       0.00000    
     16526 MEMB     91       POPE     C38      CD32A     2.07980       11.6110           0  -1.66000       1.30000    
     16527 MEMB     91       POPE     DC38     DRUD     -2.23580      0.400000           0   0.00000       0.00000    
     16528 MEMB     91       POPE     H8X      HDA2A    0.780000E-01   1.00800           0   0.00000       0.00000    
     16529 MEMB     91       POPE     H8Y      HDA2A    0.780000E-01   1.00800           0   0.00000       0.00000    
     16530 MEMB     91       POPE     C39      CD32A     2.07980       11.6110           0  -1.66000       1.30000    
     16531 MEMB     91       POPE     DC39     DRUD     -2.23580      0.400000           0   0.00000       0.00000    
     16532 MEMB     91       POPE     H9X      HDA2A    0.780000E-01   1.00800           0   0.00000       0.00000    
     16533 MEMB     91       POPE     H9Y      HDA2A    0.780000E-01   1.00800           0   0.00000       0.00000    
     16534 MEMB     91       POPE     C310     CD32A     2.07980       11.6110           0  -1.66000       1.30000    
     16535 MEMB     91       POPE     DC310    DRUD     -2.23580      0.400000           0   0.00000       0.00000    
     16536 MEMB     91       POPE     H10X     HDA2A    0.780000E-01   1.00800           0   0.00000       0.00000    
     16537 MEMB     91       POPE     H10Y     HDA2A    0.780000E-01   1.00800           0   0.00000       0.00000    
     16538 MEMB     91       POPE     C311     CD32A     2.07980       11.6110           0  -1.66000       1.30000    
     16539 MEMB     91       POPE     DC311    DRUD     -2.23580      0.400000           0   0.00000       0.00000    
     16540 MEMB     91       POPE     H11X     HDA2A    0.780000E-01   1.00800           0   0.00000       0.00000    
     16541 MEMB     91       POPE     H11Y     HDA2A    0.780000E-01   1.00800           0   0.00000       0.00000    
     16542 MEMB     91       POPE     C312     CD32A     2.07980       11.6110           0  -1.66000       1.30000    
     16543 MEMB     91       POPE     DC312    DRUD     -2.23580      0.400000           0   0.00000       0.00000    
     16544 MEMB     91       POPE     H12X     HDA2A    0.780000E-01   1.00800           0   0.00000       0.00000    
     16545 MEMB     91       POPE     H12Y     HDA2A    0.780000E-01   1.00800           0   0.00000       0.00000    
     16546 MEMB     91       POPE     C313     CD32A     2.07980       11.6110           0  -1.66000       1.30000    
     16547 MEMB     91       POPE     DC313    DRUD     -2.23580      0.400000           0   0.00000       0.00000    
     16548 MEMB     91       POPE     H13X     HDA2A    0.780000E-01   1.00800           0   0.00000       0.00000    
     16549 MEMB     91       POPE     H13Y     HDA2A    0.780000E-01   1.00800           0   0.00000       0.00000    
     16550 MEMB     91       POPE     C314     CD32A     2.07980       11.6110           0  -1.66000       1.30000    
     16551 MEMB     91       POPE     DC314    DRUD     -2.23580      0.400000           0   0.00000       0.00000    
     16552 MEMB     91       POPE     H14X     HDA2A    0.780000E-01   1.00800           0   0.00000       0.00000    
     16553 MEMB     91       POPE     H14Y     HDA2A    0.780000E-01   1.00800           0   0.00000       0.00000    
     16554 MEMB     91       POPE     C315     CD32A     2.07980       11.6110           0  -1.66000       1.30000    
     16555 MEMB     91       POPE     DC315    DRUD     -2.23580      0.400000           0   0.00000       0.00000    
     16556 MEMB     91       POPE     H15X     HDA2A    0.780000E-01   1.00800           0   0.00000       0.00000    
     16557 MEMB     91       POPE     H15Y     HDA2A    0.780000E-01   1.00800           0   0.00000       0.00000    
     16558 MEMB     91       POPE     C316     CD33A     2.30820       11.6110           0  -2.05100       1.30000    
     16559 MEMB     91       POPE     DC316    DRUD     -2.48520      0.400000           0   0.00000       0.00000    
     16560 MEMB     91       POPE     H16X     HDA3A    0.590000E-01   1.00800           0   0.00000       0.00000    
     16561 MEMB     91       POPE     H16Y     HDA3A    0.590000E-01   1.00800           0   0.00000       0.00000    
     16562 MEMB     91       POPE     H16Z     HDA3A    0.590000E-01   1.00800           0   0.00000       0.00000    
     16563 MEMB     92       POPE     N        ND3P3A    1.62810       13.6070           0  -1.29800      0.895000    
     16564 MEMB     92       POPE     DN       DRUD     -1.97710      0.400000           0   0.00000       0.00000    
     16565 MEMB     92       POPE     HN1      HDP1B    0.340000       1.00800           0   0.00000       0.00000    
     16566 MEMB     92       POPE     HN2      HDP1B    0.340000       1.00800           0   0.00000       0.00000    
     16567 MEMB     92       POPE     HN3      HDP1B    0.340000       1.00800           0   0.00000       0.00000    
     16568 MEMB     92       POPE     C12      CD32A     2.27610       11.6110           0  -1.65600      0.895000    
     16569 MEMB     92       POPE     DC12     DRUD     -2.23310      0.400000           0   0.00000       0.00000    
     16570 MEMB     92       POPE     H12A     HDA2A    0.143000       1.00800           0   0.00000       0.00000    
     16571 MEMB     92       POPE     H12B     HDA2A    0.143000       1.00800           0   0.00000       0.00000    
     16572 MEMB     92       POPE     C11      CD32A     2.42220       11.6110           0  -1.64200      0.862000    
     16573 MEMB     92       POPE     DC11     DRUD     -2.22370      0.400000           0   0.00000       0.00000    
     16574 MEMB     92       POPE     H11A     HDA2A    0.260000E-01   1.00800           0   0.00000       0.00000    
     16575 MEMB     92       POPE     H11B     HDA2A    0.260000E-01   1.00800           0   0.00000       0.00000    
     16576 MEMB     92       POPE     P        PD1A      2.90360       30.5740           0 -0.974000       2.09800    
     16577 MEMB     92       POPE     DP       DRUD     -1.71260      0.400000           0   0.00000       0.00000    
     16578 MEMB     92       POPE     O13      OD2C2B   0.798400       15.5994           0 -0.931000       1.08300    
     16579 MEMB     92       POPE     DO13     DRUD     -1.67440      0.400000           0   0.00000       0.00000    
     16580 MEMB     92       POPE     O14      OD2C2B   0.798400       15.5994           0 -0.931000       1.08300    
     16581 MEMB     92       POPE     DO14     DRUD     -1.67440      0.400000           0   0.00000       0.00000    
     16582 MEMB     92       POPE     O11      OD30B     1.17720       15.5994           0 -0.901000      0.181000    
     16583 MEMB     92       POPE     DO11     DRUD     -1.64720      0.400000           0   0.00000       0.00000    
     16584 MEMB     92       POPE     O12      OD30B     1.17720       15.5994           0 -0.901000      0.181000    
     16585 MEMB     92       POPE     DO12     DRUD     -1.64720      0.400000           0   0.00000       0.00000    
     16586 MEMB     92       POPE     C1       CD32A     2.42220       11.6110           0  -1.64200      0.862000    
     16587 MEMB     92       POPE     DC1      DRUD     -2.22370      0.400000           0   0.00000       0.00000    
     16588 MEMB     92       POPE     HA       HDA2A    0.260000E-01   1.00800           0   0.00000       0.00000    
     16589 MEMB     92       POPE     HB       HDA2A    0.260000E-01   1.00800           0   0.00000       0.00000    
     16590 MEMB     92       POPE     C2       CD31C     2.52830       11.6110           0  -1.79700      0.410000    
     16591 MEMB     92       POPE     DC2      DRUD     -2.32630      0.400000           0   0.00000       0.00000    
     16592 MEMB     92       POPE     HS       HDA1A    0.116000       1.00800           0   0.00000       0.00000    
     16593 MEMB     92       POPE     O21      OD30CL    1.48470       15.5994           0 -0.732000      0.601000    
     16594 MEMB     92       POPE     DO21     DRUD     -1.48470      0.400000           0   0.00000       0.00000    
     16595 MEMB     92       POPE     C21      CD2O3B    2.72820       11.6110           0  -1.37000       1.74700    
     16596 MEMB     92       POPE     DC21     DRUD     -2.03120      0.400000           0   0.00000       0.00000    
     16597 MEMB     92       POPE     O22      OD2C3B    1.64990       15.5994           0 -0.904000      0.565000    
     16598 MEMB     92       POPE     DO22     DRUD     -1.64990      0.400000           0   0.00000       0.00000    
     16599 MEMB     92       POPE     C22      CD32C     2.24380       11.6110           0  -1.99300      0.410000    
     16600 MEMB     92       POPE     DC22     DRUD     -2.44980      0.400000           0   0.00000       0.00000    
     16601 MEMB     92       POPE     H2R      HDA2A    0.690000E-01   1.00800           0   0.00000       0.00000    
     16602 MEMB     92       POPE     H2S      HDA2A    0.690000E-01   1.00800           0   0.00000       0.00000    
     16603 MEMB     92       POPE     LP1A     LPD     -0.349000       0.00000          -1   0.00000       0.00000    
     16604 MEMB     92       POPE     LP1B     LPD     -0.258000       0.00000          -1   0.00000       0.00000    
     16605 MEMB     92       POPE     LPMA     LPD     -0.170000       0.00000          -1   0.00000       0.00000    
     16606 MEMB     92       POPE     LPMB     LPD     -0.170000       0.00000          -1   0.00000       0.00000    
     16607 MEMB     92       POPE     C3       CD32C     2.41230       11.6110           0  -1.79700      0.410000    
     16608 MEMB     92       POPE     DC3      DRUD     -2.32630      0.400000           0   0.00000       0.00000    
     16609 MEMB     92       POPE     HX       HDA2A    0.116000       1.00800           0   0.00000       0.00000    
     16610 MEMB     92       POPE     HY       HDA2A    0.116000       1.00800           0   0.00000       0.00000    
     16611 MEMB     92       POPE     O31      OD30CL    1.48470       15.5994           0 -0.732000      0.601000    
     16612 MEMB     92       POPE     DO31     DRUD     -1.48470      0.400000           0   0.00000       0.00000    
     16613 MEMB     92       POPE     C31      CD2O3B    2.72820       11.6110           0  -1.37000       1.74700    
     16614 MEMB     92       POPE     DC31     DRUD     -2.03120      0.400000           0   0.00000       0.00000    
     16615 MEMB     92       POPE     O32      OD2C3B    1.64990       15.5994           0 -0.904000      0.565000    
     16616 MEMB     92       POPE     DO32     DRUD     -1.64990      0.400000           0   0.00000       0.00000    
     16617 MEMB     92       POPE     C32      CD32C     2.24380       11.6110           0  -1.99300      0.410000    
     16618 MEMB     92       POPE     DC32     DRUD     -2.44980      0.400000           0   0.00000       0.00000    
     16619 MEMB     92       POPE     H2X      HDA2A    0.690000E-01   1.00800           0   0.00000       0.00000    
     16620 MEMB     92       POPE     H2Y      HDA2A    0.690000E-01   1.00800           0   0.00000       0.00000    
     16621 MEMB     92       POPE     LP1C     LPD     -0.349000       0.00000          -1   0.00000       0.00000    
     16622 MEMB     92       POPE     LP1D     LPD     -0.258000       0.00000          -1   0.00000       0.00000    
     16623 MEMB     92       POPE     LPMC     LPD     -0.170000       0.00000          -1   0.00000       0.00000    
     16624 MEMB     92       POPE     LPMD     LPD     -0.170000       0.00000          -1   0.00000       0.00000    
     16625 MEMB     92       POPE     C23      CD32A     2.07980       11.6110           0  -1.66000       1.30000    
     16626 MEMB     92       POPE     DC23     DRUD     -2.23580      0.400000           0   0.00000       0.00000    
     16627 MEMB     92       POPE     H3R      HDA2A    0.780000E-01   1.00800           0   0.00000       0.00000    
     16628 MEMB     92       POPE     H3S      HDA2A    0.780000E-01   1.00800           0   0.00000       0.00000    
     16629 MEMB     92       POPE     C24      CD32A     2.07980       11.6110           0  -1.66000       1.30000    
     16630 MEMB     92       POPE     DC24     DRUD     -2.23580      0.400000           0   0.00000       0.00000    
     16631 MEMB     92       POPE     H4R      HDA2A    0.780000E-01   1.00800           0   0.00000       0.00000    
     16632 MEMB     92       POPE     H4S      HDA2A    0.780000E-01   1.00800           0   0.00000       0.00000    
     16633 MEMB     92       POPE     C25      CD32A     2.07980       11.6110           0  -1.66000       1.30000    
     16634 MEMB     92       POPE     DC25     DRUD     -2.23580      0.400000           0   0.00000       0.00000    
     16635 MEMB     92       POPE     H5R      HDA2A    0.780000E-01   1.00800           0   0.00000       0.00000    
     16636 MEMB     92       POPE     H5S      HDA2A    0.780000E-01   1.00800           0   0.00000       0.00000    
     16637 MEMB     92       POPE     C26      CD32A     2.07980       11.6110           0  -1.66000       1.30000    
     16638 MEMB     92       POPE     DC26     DRUD     -2.23580      0.400000           0   0.00000       0.00000    
     16639 MEMB     92       POPE     H6R      HDA2A    0.780000E-01   1.00800           0   0.00000       0.00000    
     16640 MEMB     92       POPE     H6S      HDA2A    0.780000E-01   1.00800           0   0.00000       0.00000    
     16641 MEMB     92       POPE     C27      CD32A     2.07980       11.6110           0  -1.66000       1.30000    
     16642 MEMB     92       POPE     DC27     DRUD     -2.23580      0.400000           0   0.00000       0.00000    
     16643 MEMB     92       POPE     H7R      HDA2A    0.780000E-01   1.00800           0   0.00000       0.00000    
     16644 MEMB     92       POPE     H7S      HDA2A    0.780000E-01   1.00800           0   0.00000       0.00000    
     16645 MEMB     92       POPE     C28      CD32A     2.07980       11.6110           0  -1.66000       1.30000    
     16646 MEMB     92       POPE     DC28     DRUD     -2.23580      0.400000           0   0.00000       0.00000    
     16647 MEMB     92       POPE     H8R      HDA2A    0.780000E-01   1.00800           0   0.00000       0.00000    
     16648 MEMB     92       POPE     H8S      HDA2A    0.780000E-01   1.00800           0   0.00000       0.00000    
     16649 MEMB     92       POPE     C29      CD2C1A    2.33700       11.6110           0  -1.99000      0.750000    
     16650 MEMB     92       POPE     DC29     DRUD     -2.44800      0.400000           0   0.00000       0.00000    
     16651 MEMB     92       POPE     H91      HD2C1A   0.111000       1.00800           0   0.00000       0.00000    
     16652 MEMB     92       POPE     C210     CD2C1A    2.33700       11.6110           0  -1.99000      0.750000    
     16653 MEMB     92       POPE     DC210    DRUD     -2.44800      0.400000           0   0.00000       0.00000    
     16654 MEMB     92       POPE     H101     HD2C1A   0.111000       1.00800           0   0.00000       0.00000    
     16655 MEMB     92       POPE     C211     CD32A     2.07980       11.6110           0  -1.66000       1.30000    
     16656 MEMB     92       POPE     DC211    DRUD     -2.23580      0.400000           0   0.00000       0.00000    
     16657 MEMB     92       POPE     H11R     HDA2A    0.780000E-01   1.00800           0   0.00000       0.00000    
     16658 MEMB     92       POPE     H11S     HDA2A    0.780000E-01   1.00800           0   0.00000       0.00000    
     16659 MEMB     92       POPE     C212     CD32A     2.07980       11.6110           0  -1.66000       1.30000    
     16660 MEMB     92       POPE     DC212    DRUD     -2.23580      0.400000           0   0.00000       0.00000    
     16661 MEMB     92       POPE     H12R     HDA2A    0.780000E-01   1.00800           0   0.00000       0.00000    
     16662 MEMB     92       POPE     H12S     HDA2A    0.780000E-01   1.00800           0   0.00000       0.00000    
     16663 MEMB     92       POPE     C213     CD32A     2.07980       11.6110           0  -1.66000       1.30000    
     16664 MEMB     92       POPE     DC213    DRUD     -2.23580      0.400000           0   0.00000       0.00000    
     16665 MEMB     92       POPE     H13R     HDA2A    0.780000E-01   1.00800           0   0.00000       0.00000    
     16666 MEMB     92       POPE     H13S     HDA2A    0.780000E-01   1.00800           0   0.00000       0.00000    
     16667 MEMB     92       POPE     C214     CD32A     2.07980       11.6110           0  -1.66000       1.30000    
     16668 MEMB     92       POPE     DC214    DRUD     -2.23580      0.400000           0   0.00000       0.00000    
     16669 MEMB     92       POPE     H14R     HDA2A    0.780000E-01   1.00800           0   0.00000       0.00000    
     16670 MEMB     92       POPE     H14S     HDA2A    0.780000E-01   1.00800           0   0.00000       0.00000    
     16671 MEMB     92       POPE     C215     CD32A     2.07980       11.6110           0  -1.66000       1.30000    
     16672 MEMB     92       POPE     DC215    DRUD     -2.23580      0.400000           0   0.00000       0.00000    
     16673 MEMB     92       POPE     H15R     HDA2A    0.780000E-01   1.00800           0   0.00000       0.00000    
     16674 MEMB     92       POPE     H15S     HDA2A    0.780000E-01   1.00800           0   0.00000       0.00000    
     16675 MEMB     92       POPE     C216     CD32A     2.07980       11.6110           0  -1.66000       1.30000    
     16676 MEMB     92       POPE     DC216    DRUD     -2.23580      0.400000           0   0.00000       0.00000    
     16677 MEMB     92       POPE     H16R     HDA2A    0.780000E-01   1.00800           0   0.00000       0.00000    
     16678 MEMB     92       POPE     H16S     HDA2A    0.780000E-01   1.00800           0   0.00000       0.00000    
     16679 MEMB     92       POPE     C217     CD32A     2.07980       11.6110           0  -1.66000       1.30000    
     16680 MEMB     92       POPE     DC217    DRUD     -2.23580      0.400000           0   0.00000       0.00000    
     16681 MEMB     92       POPE     H17R     HDA2A    0.780000E-01   1.00800           0   0.00000       0.00000    
     16682 MEMB     92       POPE     H17S     HDA2A    0.780000E-01   1.00800           0   0.00000       0.00000    
     16683 MEMB     92       POPE     C218     CD33A     2.30820       11.6110           0  -2.05100       1.30000    
     16684 MEMB     92       POPE     DC218    DRUD     -2.48520      0.400000           0   0.00000       0.00000    
     16685 MEMB     92       POPE     H18R     HDA3A    0.590000E-01   1.00800           0   0.00000       0.00000    
     16686 MEMB     92       POPE     H18S     HDA3A    0.590000E-01   1.00800           0   0.00000       0.00000    
     16687 MEMB     92       POPE     H18T     HDA3A    0.590000E-01   1.00800           0   0.00000       0.00000    
     16688 MEMB     92       POPE     C33      CD32A     2.07980       11.6110           0  -1.66000       1.30000    
     16689 MEMB     92       POPE     DC33     DRUD     -2.23580      0.400000           0   0.00000       0.00000    
     16690 MEMB     92       POPE     H3X      HDA2A    0.780000E-01   1.00800           0   0.00000       0.00000    
     16691 MEMB     92       POPE     H3Y      HDA2A    0.780000E-01   1.00800           0   0.00000       0.00000    
     16692 MEMB     92       POPE     C34      CD32A     2.07980       11.6110           0  -1.66000       1.30000    
     16693 MEMB     92       POPE     DC34     DRUD     -2.23580      0.400000           0   0.00000       0.00000    
     16694 MEMB     92       POPE     H4X      HDA2A    0.780000E-01   1.00800           0   0.00000       0.00000    
     16695 MEMB     92       POPE     H4Y      HDA2A    0.780000E-01   1.00800           0   0.00000       0.00000    
     16696 MEMB     92       POPE     C35      CD32A     2.07980       11.6110           0  -1.66000       1.30000    
     16697 MEMB     92       POPE     DC35     DRUD     -2.23580      0.400000           0   0.00000       0.00000    
     16698 MEMB     92       POPE     H5X      HDA2A    0.780000E-01   1.00800           0   0.00000       0.00000    
     16699 MEMB     92       POPE     H5Y      HDA2A    0.780000E-01   1.00800           0   0.00000       0.00000    
     16700 MEMB     92       POPE     C36      CD32A     2.07980       11.6110           0  -1.66000       1.30000    
     16701 MEMB     92       POPE     DC36     DRUD     -2.23580      0.400000           0   0.00000       0.00000    
     16702 MEMB     92       POPE     H6X      HDA2A    0.780000E-01   1.00800           0   0.00000       0.00000    
     16703 MEMB     92       POPE     H6Y      HDA2A    0.780000E-01   1.00800           0   0.00000       0.00000    
     16704 MEMB     92       POPE     C37      CD32A     2.07980       11.6110           0  -1.66000       1.30000    
     16705 MEMB     92       POPE     DC37     DRUD     -2.23580      0.400000           0   0.00000       0.00000    
     16706 MEMB     92       POPE     H7X      HDA2A    0.780000E-01   1.00800           0   0.00000       0.00000    
     16707 MEMB     92       POPE     H7Y      HDA2A    0.780000E-01   1.00800           0   0.00000       0.00000    
     16708 MEMB     92       POPE     C38      CD32A     2.07980       11.6110           0  -1.66000       1.30000    
     16709 MEMB     92       POPE     DC38     DRUD     -2.23580      0.400000           0   0.00000       0.00000    
     16710 MEMB     92       POPE     H8X      HDA2A    0.780000E-01   1.00800           0   0.00000       0.00000    
     16711 MEMB     92       POPE     H8Y      HDA2A    0.780000E-01   1.00800           0   0.00000       0.00000    
     16712 MEMB     92       POPE     C39      CD32A     2.07980       11.6110           0  -1.66000       1.30000    
     16713 MEMB     92       POPE     DC39     DRUD     -2.23580      0.400000           0   0.00000       0.00000    
     16714 MEMB     92       POPE     H9X      HDA2A    0.780000E-01   1.00800           0   0.00000       0.00000    
     16715 MEMB     92       POPE     H9Y      HDA2A    0.780000E-01   1.00800           0   0.00000       0.00000    
     16716 MEMB     92       POPE     C310     CD32A     2.07980       11.6110           0  -1.66000       1.30000    
     16717 MEMB     92       POPE     DC310    DRUD     -2.23580      0.400000           0   0.00000       0.00000    
     16718 MEMB     92       POPE     H10X     HDA2A    0.780000E-01   1.00800           0   0.00000       0.00000    
     16719 MEMB     92       POPE     H10Y     HDA2A    0.780000E-01   1.00800           0   0.00000       0.00000    
     16720 MEMB     92       POPE     C311     CD32A     2.07980       11.6110           0  -1.66000       1.30000    
     16721 MEMB     92       POPE     DC311    DRUD     -2.23580      0.400000           0   0.00000       0.00000    
     16722 MEMB     92       POPE     H11X     HDA2A    0.780000E-01   1.00800           0   0.00000       0.00000    
     16723 MEMB     92       POPE     H11Y     HDA2A    0.780000E-01   1.00800           0   0.00000       0.00000    
     16724 MEMB     92       POPE     C312     CD32A     2.07980       11.6110           0  -1.66000       1.30000    
     16725 MEMB     92       POPE     DC312    DRUD     -2.23580      0.400000           0   0.00000       0.00000    
     16726 MEMB     92       POPE     H12X     HDA2A    0.780000E-01   1.00800           0   0.00000       0.00000    
     16727 MEMB     92       POPE     H12Y     HDA2A    0.780000E-01   1.00800           0   0.00000       0.00000    
     16728 MEMB     92       POPE     C313     CD32A     2.07980       11.6110           0  -1.66000       1.30000    
     16729 MEMB     92       POPE     DC313    DRUD     -2.23580      0.400000           0   0.00000       0.00000    
     16730 MEMB     92       POPE     H13X     HDA2A    0.780000E-01   1.00800           0   0.00000       0.00000    
     16731 MEMB     92       POPE     H13Y     HDA2A    0.780000E-01   1.00800           0   0.00000       0.00000    
     16732 MEMB     92       POPE     C314     CD32A     2.07980       11.6110           0  -1.66000       1.30000    
     16733 MEMB     92       POPE     DC314    DRUD     -2.23580      0.400000           0   0.00000       0.00000    
     16734 MEMB     92       POPE     H14X     HDA2A    0.780000E-01   1.00800           0   0.00000       0.00000    
     16735 MEMB     92       POPE     H14Y     HDA2A    0.780000E-01   1.00800           0   0.00000       0.00000    
     16736 MEMB     92       POPE     C315     CD32A     2.07980       11.6110           0  -1.66000       1.30000    
     16737 MEMB     92       POPE     DC315    DRUD     -2.23580      0.400000           0   0.00000       0.00000    
     16738 MEMB     92       POPE     H15X     HDA2A    0.780000E-01   1.00800           0   0.00000       0.00000    
     16739 MEMB     92       POPE     H15Y     HDA2A    0.780000E-01   1.00800           0   0.00000       0.00000    
     16740 MEMB     92       POPE     C316     CD33A     2.30820       11.6110           0  -2.05100       1.30000    
     16741 MEMB     92       POPE     DC316    DRUD     -2.48520      0.400000           0   0.00000       0.00000    
     16742 MEMB     92       POPE     H16X     HDA3A    0.590000E-01   1.00800           0   0.00000       0.00000    
     16743 MEMB     92       POPE     H16Y     HDA3A    0.590000E-01   1.00800           0   0.00000       0.00000    
     16744 MEMB     92       POPE     H16Z     HDA3A    0.590000E-01   1.00800           0   0.00000       0.00000    
     16745 MEMB     93       POPE     N        ND3P3A    1.62810       13.6070           0  -1.29800      0.895000    
     16746 MEMB     93       POPE     DN       DRUD     -1.97710      0.400000           0   0.00000       0.00000    
     16747 MEMB     93       POPE     HN1      HDP1B    0.340000       1.00800           0   0.00000       0.00000    
     16748 MEMB     93       POPE     HN2      HDP1B    0.340000       1.00800           0   0.00000       0.00000    
     16749 MEMB     93       POPE     HN3      HDP1B    0.340000       1.00800           0   0.00000       0.00000    
     16750 MEMB     93       POPE     C12      CD32A     2.27610       11.6110           0  -1.65600      0.895000    
     16751 MEMB     93       POPE     DC12     DRUD     -2.23310      0.400000           0   0.00000       0.00000    
     16752 MEMB     93       POPE     H12A     HDA2A    0.143000       1.00800           0   0.00000       0.00000    
     16753 MEMB     93       POPE     H12B     HDA2A    0.143000       1.00800           0   0.00000       0.00000    
     16754 MEMB     93       POPE     C11      CD32A     2.42220       11.6110           0  -1.64200      0.862000    
     16755 MEMB     93       POPE     DC11     DRUD     -2.22370      0.400000           0   0.00000       0.00000    
     16756 MEMB     93       POPE     H11A     HDA2A    0.260000E-01   1.00800           0   0.00000       0.00000    
     16757 MEMB     93       POPE     H11B     HDA2A    0.260000E-01   1.00800           0   0.00000       0.00000    
     16758 MEMB     93       POPE     P        PD1A      2.90360       30.5740           0 -0.974000       2.09800    
     16759 MEMB     93       POPE     DP       DRUD     -1.71260      0.400000           0   0.00000       0.00000    
     16760 MEMB     93       POPE     O13      OD2C2B   0.798400       15.5994           0 -0.931000       1.08300    
     16761 MEMB     93       POPE     DO13     DRUD     -1.67440      0.400000           0   0.00000       0.00000    
     16762 MEMB     93       POPE     O14      OD2C2B   0.798400       15.5994           0 -0.931000       1.08300    
     16763 MEMB     93       POPE     DO14     DRUD     -1.67440      0.400000           0   0.00000       0.00000    
     16764 MEMB     93       POPE     O11      OD30B     1.17720       15.5994           0 -0.901000      0.181000    
     16765 MEMB     93       POPE     DO11     DRUD     -1.64720      0.400000           0   0.00000       0.00000    
     16766 MEMB     93       POPE     O12      OD30B     1.17720       15.5994           0 -0.901000      0.181000    
     16767 MEMB     93       POPE     DO12     DRUD     -1.64720      0.400000           0   0.00000       0.00000    
     16768 MEMB     93       POPE     C1       CD32A     2.42220       11.6110           0  -1.64200      0.862000    
     16769 MEMB     93       POPE     DC1      DRUD     -2.22370      0.400000           0   0.00000       0.00000    
     16770 MEMB     93       POPE     HA       HDA2A    0.260000E-01   1.00800           0   0.00000       0.00000    
     16771 MEMB     93       POPE     HB       HDA2A    0.260000E-01   1.00800           0   0.00000       0.00000    
     16772 MEMB     93       POPE     C2       CD31C     2.52830       11.6110           0  -1.79700      0.410000    
     16773 MEMB     93       POPE     DC2      DRUD     -2.32630      0.400000           0   0.00000       0.00000    
     16774 MEMB     93       POPE     HS       HDA1A    0.116000       1.00800           0   0.00000       0.00000    
     16775 MEMB     93       POPE     O21      OD30CL    1.48470       15.5994           0 -0.732000      0.601000    
     16776 MEMB     93       POPE     DO21     DRUD     -1.48470      0.400000           0   0.00000       0.00000    
     16777 MEMB     93       POPE     C21      CD2O3B    2.72820       11.6110           0  -1.37000       1.74700    
     16778 MEMB     93       POPE     DC21     DRUD     -2.03120      0.400000           0   0.00000       0.00000    
     16779 MEMB     93       POPE     O22      OD2C3B    1.64990       15.5994           0 -0.904000      0.565000    
     16780 MEMB     93       POPE     DO22     DRUD     -1.64990      0.400000           0   0.00000       0.00000    
     16781 MEMB     93       POPE     C22      CD32C     2.24380       11.6110           0  -1.99300      0.410000    
     16782 MEMB     93       POPE     DC22     DRUD     -2.44980      0.400000           0   0.00000       0.00000    
     16783 MEMB     93       POPE     H2R      HDA2A    0.690000E-01   1.00800           0   0.00000       0.00000    
     16784 MEMB     93       POPE     H2S      HDA2A    0.690000E-01   1.00800           0   0.00000       0.00000    
     16785 MEMB     93       POPE     LP1A     LPD     -0.349000       0.00000          -1   0.00000       0.00000    
     16786 MEMB     93       POPE     LP1B     LPD     -0.258000       0.00000          -1   0.00000       0.00000    
     16787 MEMB     93       POPE     LPMA     LPD     -0.170000       0.00000          -1   0.00000       0.00000    
     16788 MEMB     93       POPE     LPMB     LPD     -0.170000       0.00000          -1   0.00000       0.00000    
     16789 MEMB     93       POPE     C3       CD32C     2.41230       11.6110           0  -1.79700      0.410000    
     16790 MEMB     93       POPE     DC3      DRUD     -2.32630      0.400000           0   0.00000       0.00000    
     16791 MEMB     93       POPE     HX       HDA2A    0.116000       1.00800           0   0.00000       0.00000    
     16792 MEMB     93       POPE     HY       HDA2A    0.116000       1.00800           0   0.00000       0.00000    
     16793 MEMB     93       POPE     O31      OD30CL    1.48470       15.5994           0 -0.732000      0.601000    
     16794 MEMB     93       POPE     DO31     DRUD     -1.48470      0.400000           0   0.00000       0.00000    
     16795 MEMB     93       POPE     C31      CD2O3B    2.72820       11.6110           0  -1.37000       1.74700    
     16796 MEMB     93       POPE     DC31     DRUD     -2.03120      0.400000           0   0.00000       0.00000    
     16797 MEMB     93       POPE     O32      OD2C3B    1.64990       15.5994           0 -0.904000      0.565000    
     16798 MEMB     93       POPE     DO32     DRUD     -1.64990      0.400000           0   0.00000       0.00000    
     16799 MEMB     93       POPE     C32      CD32C     2.24380       11.6110           0  -1.99300      0.410000    
     16800 MEMB     93       POPE     DC32     DRUD     -2.44980      0.400000           0   0.00000       0.00000    
     16801 MEMB     93       POPE     H2X      HDA2A    0.690000E-01   1.00800           0   0.00000       0.00000    
     16802 MEMB     93       POPE     H2Y      HDA2A    0.690000E-01   1.00800           0   0.00000       0.00000    
     16803 MEMB     93       POPE     LP1C     LPD     -0.349000       0.00000          -1   0.00000       0.00000    
     16804 MEMB     93       POPE     LP1D     LPD     -0.258000       0.00000          -1   0.00000       0.00000    
     16805 MEMB     93       POPE     LPMC     LPD     -0.170000       0.00000          -1   0.00000       0.00000    
     16806 MEMB     93       POPE     LPMD     LPD     -0.170000       0.00000          -1   0.00000       0.00000    
     16807 MEMB     93       POPE     C23      CD32A     2.07980       11.6110           0  -1.66000       1.30000    
     16808 MEMB     93       POPE     DC23     DRUD     -2.23580      0.400000           0   0.00000       0.00000    
     16809 MEMB     93       POPE     H3R      HDA2A    0.780000E-01   1.00800           0   0.00000       0.00000    
     16810 MEMB     93       POPE     H3S      HDA2A    0.780000E-01   1.00800           0   0.00000       0.00000    
     16811 MEMB     93       POPE     C24      CD32A     2.07980       11.6110           0  -1.66000       1.30000    
     16812 MEMB     93       POPE     DC24     DRUD     -2.23580      0.400000           0   0.00000       0.00000    
     16813 MEMB     93       POPE     H4R      HDA2A    0.780000E-01   1.00800           0   0.00000       0.00000    
     16814 MEMB     93       POPE     H4S      HDA2A    0.780000E-01   1.00800           0   0.00000       0.00000    
     16815 MEMB     93       POPE     C25      CD32A     2.07980       11.6110           0  -1.66000       1.30000    
     16816 MEMB     93       POPE     DC25     DRUD     -2.23580      0.400000           0   0.00000       0.00000    
     16817 MEMB     93       POPE     H5R      HDA2A    0.780000E-01   1.00800           0   0.00000       0.00000    
     16818 MEMB     93       POPE     H5S      HDA2A    0.780000E-01   1.00800           0   0.00000       0.00000    
     16819 MEMB     93       POPE     C26      CD32A     2.07980       11.6110           0  -1.66000       1.30000    
     16820 MEMB     93       POPE     DC26     DRUD     -2.23580      0.400000           0   0.00000       0.00000    
     16821 MEMB     93       POPE     H6R      HDA2A    0.780000E-01   1.00800           0   0.00000       0.00000    
     16822 MEMB     93       POPE     H6S      HDA2A    0.780000E-01   1.00800           0   0.00000       0.00000    
     16823 MEMB     93       POPE     C27      CD32A     2.07980       11.6110           0  -1.66000       1.30000    
     16824 MEMB     93       POPE     DC27     DRUD     -2.23580      0.400000           0   0.00000       0.00000    
     16825 MEMB     93       POPE     H7R      HDA2A    0.780000E-01   1.00800           0   0.00000       0.00000    
     16826 MEMB     93       POPE     H7S      HDA2A    0.780000E-01   1.00800           0   0.00000       0.00000    
     16827 MEMB     93       POPE     C28      CD32A     2.07980       11.6110           0  -1.66000       1.30000    
     16828 MEMB     93       POPE     DC28     DRUD     -2.23580      0.400000           0   0.00000       0.00000    
     16829 MEMB     93       POPE     H8R      HDA2A    0.780000E-01   1.00800           0   0.00000       0.00000    
     16830 MEMB     93       POPE     H8S      HDA2A    0.780000E-01   1.00800           0   0.00000       0.00000    
     16831 MEMB     93       POPE     C29      CD2C1A    2.33700       11.6110           0  -1.99000      0.750000    
     16832 MEMB     93       POPE     DC29     DRUD     -2.44800      0.400000           0   0.00000       0.00000    
     16833 MEMB     93       POPE     H91      HD2C1A   0.111000       1.00800           0   0.00000       0.00000    
     16834 MEMB     93       POPE     C210     CD2C1A    2.33700       11.6110           0  -1.99000      0.750000    
     16835 MEMB     93       POPE     DC210    DRUD     -2.44800      0.400000           0   0.00000       0.00000    
     16836 MEMB     93       POPE     H101     HD2C1A   0.111000       1.00800           0   0.00000       0.00000    
     16837 MEMB     93       POPE     C211     CD32A     2.07980       11.6110           0  -1.66000       1.30000    
     16838 MEMB     93       POPE     DC211    DRUD     -2.23580      0.400000           0   0.00000       0.00000    
     16839 MEMB     93       POPE     H11R     HDA2A    0.780000E-01   1.00800           0   0.00000       0.00000    
     16840 MEMB     93       POPE     H11S     HDA2A    0.780000E-01   1.00800           0   0.00000       0.00000    
     16841 MEMB     93       POPE     C212     CD32A     2.07980       11.6110           0  -1.66000       1.30000    
     16842 MEMB     93       POPE     DC212    DRUD     -2.23580      0.400000           0   0.00000       0.00000    
     16843 MEMB     93       POPE     H12R     HDA2A    0.780000E-01   1.00800           0   0.00000       0.00000    
     16844 MEMB     93       POPE     H12S     HDA2A    0.780000E-01   1.00800           0   0.00000       0.00000    
     16845 MEMB     93       POPE     C213     CD32A     2.07980       11.6110           0  -1.66000       1.30000    
     16846 MEMB     93       POPE     DC213    DRUD     -2.23580      0.400000           0   0.00000       0.00000    
     16847 MEMB     93       POPE     H13R     HDA2A    0.780000E-01   1.00800           0   0.00000       0.00000    
     16848 MEMB     93       POPE     H13S     HDA2A    0.780000E-01   1.00800           0   0.00000       0.00000    
     16849 MEMB     93       POPE     C214     CD32A     2.07980       11.6110           0  -1.66000       1.30000    
     16850 MEMB     93       POPE     DC214    DRUD     -2.23580      0.400000           0   0.00000       0.00000    
     16851 MEMB     93       POPE     H14R     HDA2A    0.780000E-01   1.00800           0   0.00000       0.00000    
     16852 MEMB     93       POPE     H14S     HDA2A    0.780000E-01   1.00800           0   0.00000       0.00000    
     16853 MEMB     93       POPE     C215     CD32A     2.07980       11.6110           0  -1.66000       1.30000    
     16854 MEMB     93       POPE     DC215    DRUD     -2.23580      0.400000           0   0.00000       0.00000    
     16855 MEMB     93       POPE     H15R     HDA2A    0.780000E-01   1.00800           0   0.00000       0.00000    
     16856 MEMB     93       POPE     H15S     HDA2A    0.780000E-01   1.00800           0   0.00000       0.00000    
     16857 MEMB     93       POPE     C216     CD32A     2.07980       11.6110           0  -1.66000       1.30000    
     16858 MEMB     93       POPE     DC216    DRUD     -2.23580      0.400000           0   0.00000       0.00000    
     16859 MEMB     93       POPE     H16R     HDA2A    0.780000E-01   1.00800           0   0.00000       0.00000    
     16860 MEMB     93       POPE     H16S     HDA2A    0.780000E-01   1.00800           0   0.00000       0.00000    
     16861 MEMB     93       POPE     C217     CD32A     2.07980       11.6110           0  -1.66000       1.30000    
     16862 MEMB     93       POPE     DC217    DRUD     -2.23580      0.400000           0   0.00000       0.00000    
     16863 MEMB     93       POPE     H17R     HDA2A    0.780000E-01   1.00800           0   0.00000       0.00000    
     16864 MEMB     93       POPE     H17S     HDA2A    0.780000E-01   1.00800           0   0.00000       0.00000    
     16865 MEMB     93       POPE     C218     CD33A     2.30820       11.6110           0  -2.05100       1.30000    
     16866 MEMB     93       POPE     DC218    DRUD     -2.48520      0.400000           0   0.00000       0.00000    
     16867 MEMB     93       POPE     H18R     HDA3A    0.590000E-01   1.00800           0   0.00000       0.00000    
     16868 MEMB     93       POPE     H18S     HDA3A    0.590000E-01   1.00800           0   0.00000       0.00000    
     16869 MEMB     93       POPE     H18T     HDA3A    0.590000E-01   1.00800           0   0.00000       0.00000    
     16870 MEMB     93       POPE     C33      CD32A     2.07980       11.6110           0  -1.66000       1.30000    
     16871 MEMB     93       POPE     DC33     DRUD     -2.23580      0.400000           0   0.00000       0.00000    
     16872 MEMB     93       POPE     H3X      HDA2A    0.780000E-01   1.00800           0   0.00000       0.00000    
     16873 MEMB     93       POPE     H3Y      HDA2A    0.780000E-01   1.00800           0   0.00000       0.00000    
     16874 MEMB     93       POPE     C34      CD32A     2.07980       11.6110           0  -1.66000       1.30000    
     16875 MEMB     93       POPE     DC34     DRUD     -2.23580      0.400000           0   0.00000       0.00000    
     16876 MEMB     93       POPE     H4X      HDA2A    0.780000E-01   1.00800           0   0.00000       0.00000    
     16877 MEMB     93       POPE     H4Y      HDA2A    0.780000E-01   1.00800           0   0.00000       0.00000    
     16878 MEMB     93       POPE     C35      CD32A     2.07980       11.6110           0  -1.66000       1.30000    
     16879 MEMB     93       POPE     DC35     DRUD     -2.23580      0.400000           0   0.00000       0.00000    
     16880 MEMB     93       POPE     H5X      HDA2A    0.780000E-01   1.00800           0   0.00000       0.00000    
     16881 MEMB     93       POPE     H5Y      HDA2A    0.780000E-01   1.00800           0   0.00000       0.00000    
     16882 MEMB     93       POPE     C36      CD32A     2.07980       11.6110           0  -1.66000       1.30000    
     16883 MEMB     93       POPE     DC36     DRUD     -2.23580      0.400000           0   0.00000       0.00000    
     16884 MEMB     93       POPE     H6X      HDA2A    0.780000E-01   1.00800           0   0.00000       0.00000    
     16885 MEMB     93       POPE     H6Y      HDA2A    0.780000E-01   1.00800           0   0.00000       0.00000    
     16886 MEMB     93       POPE     C37      CD32A     2.07980       11.6110           0  -1.66000       1.30000    
     16887 MEMB     93       POPE     DC37     DRUD     -2.23580      0.400000           0   0.00000       0.00000    
     16888 MEMB     93       POPE     H7X      HDA2A    0.780000E-01   1.00800           0   0.00000       0.00000    
     16889 MEMB     93       POPE     H7Y      HDA2A    0.780000E-01   1.00800           0   0.00000       0.00000    
     16890 MEMB     93       POPE     C38      CD32A     2.07980       11.6110           0  -1.66000       1.30000    
     16891 MEMB     93       POPE     DC38     DRUD     -2.23580      0.400000           0   0.00000       0.00000    
     16892 MEMB     93       POPE     H8X      HDA2A    0.780000E-01   1.00800           0   0.00000       0.00000    
     16893 MEMB     93       POPE     H8Y      HDA2A    0.780000E-01   1.00800           0   0.00000       0.00000    
     16894 MEMB     93       POPE     C39      CD32A     2.07980       11.6110           0  -1.66000       1.30000    
     16895 MEMB     93       POPE     DC39     DRUD     -2.23580      0.400000           0   0.00000       0.00000    
     16896 MEMB     93       POPE     H9X      HDA2A    0.780000E-01   1.00800           0   0.00000       0.00000    
     16897 MEMB     93       POPE     H9Y      HDA2A    0.780000E-01   1.00800           0   0.00000       0.00000    
     16898 MEMB     93       POPE     C310     CD32A     2.07980       11.6110           0  -1.66000       1.30000    
     16899 MEMB     93       POPE     DC310    DRUD     -2.23580      0.400000           0   0.00000       0.00000    
     16900 MEMB     93       POPE     H10X     HDA2A    0.780000E-01   1.00800           0   0.00000       0.00000    
     16901 MEMB     93       POPE     H10Y     HDA2A    0.780000E-01   1.00800           0   0.00000       0.00000    
     16902 MEMB     93       POPE     C311     CD32A     2.07980       11.6110           0  -1.66000       1.30000    
     16903 MEMB     93       POPE     DC311    DRUD     -2.23580      0.400000           0   0.00000       0.00000    
     16904 MEMB     93       POPE     H11X     HDA2A    0.780000E-01   1.00800           0   0.00000       0.00000    
     16905 MEMB     93       POPE     H11Y     HDA2A    0.780000E-01   1.00800           0   0.00000       0.00000    
     16906 MEMB     93       POPE     C312     CD32A     2.07980       11.6110           0  -1.66000       1.30000    
     16907 MEMB     93       POPE     DC312    DRUD     -2.23580      0.400000           0   0.00000       0.00000    
     16908 MEMB     93       POPE     H12X     HDA2A    0.780000E-01   1.00800           0   0.00000       0.00000    
     16909 MEMB     93       POPE     H12Y     HDA2A    0.780000E-01   1.00800           0   0.00000       0.00000    
     16910 MEMB     93       POPE     C313     CD32A     2.07980       11.6110           0  -1.66000       1.30000    
     16911 MEMB     93       POPE     DC313    DRUD     -2.23580      0.400000           0   0.00000       0.00000    
     16912 MEMB     93       POPE     H13X     HDA2A    0.780000E-01   1.00800           0   0.00000       0.00000    
     16913 MEMB     93       POPE     H13Y     HDA2A    0.780000E-01   1.00800           0   0.00000       0.00000    
     16914 MEMB     93       POPE     C314     CD32A     2.07980       11.6110           0  -1.66000       1.30000    
     16915 MEMB     93       POPE     DC314    DRUD     -2.23580      0.400000           0   0.00000       0.00000    
     16916 MEMB     93       POPE     H14X     HDA2A    0.780000E-01   1.00800           0   0.00000       0.00000    
     16917 MEMB     93       POPE     H14Y     HDA2A    0.780000E-01   1.00800           0   0.00000       0.00000    
     16918 MEMB     93       POPE     C315     CD32A     2.07980       11.6110           0  -1.66000       1.30000    
     16919 MEMB     93       POPE     DC315    DRUD     -2.23580      0.400000           0   0.00000       0.00000    
     16920 MEMB     93       POPE     H15X     HDA2A    0.780000E-01   1.00800           0   0.00000       0.00000    
     16921 MEMB     93       POPE     H15Y     HDA2A    0.780000E-01   1.00800           0   0.00000       0.00000    
     16922 MEMB     93       POPE     C316     CD33A     2.30820       11.6110           0  -2.05100       1.30000    
     16923 MEMB     93       POPE     DC316    DRUD     -2.48520      0.400000           0   0.00000       0.00000    
     16924 MEMB     93       POPE     H16X     HDA3A    0.590000E-01   1.00800           0   0.00000       0.00000    
     16925 MEMB     93       POPE     H16Y     HDA3A    0.590000E-01   1.00800           0   0.00000       0.00000    
     16926 MEMB     93       POPE     H16Z     HDA3A    0.590000E-01   1.00800           0   0.00000       0.00000    
     16927 MEMB     94       POPE     N        ND3P3A    1.62810       13.6070           0  -1.29800      0.895000    
     16928 MEMB     94       POPE     DN       DRUD     -1.97710      0.400000           0   0.00000       0.00000    
     16929 MEMB     94       POPE     HN1      HDP1B    0.340000       1.00800           0   0.00000       0.00000    
     16930 MEMB     94       POPE     HN2      HDP1B    0.340000       1.00800           0   0.00000       0.00000    
     16931 MEMB     94       POPE     HN3      HDP1B    0.340000       1.00800           0   0.00000       0.00000    
     16932 MEMB     94       POPE     C12      CD32A     2.27610       11.6110           0  -1.65600      0.895000    
     16933 MEMB     94       POPE     DC12     DRUD     -2.23310      0.400000           0   0.00000       0.00000    
     16934 MEMB     94       POPE     H12A     HDA2A    0.143000       1.00800           0   0.00000       0.00000    
     16935 MEMB     94       POPE     H12B     HDA2A    0.143000       1.00800           0   0.00000       0.00000    
     16936 MEMB     94       POPE     C11      CD32A     2.42220       11.6110           0  -1.64200      0.862000    
     16937 MEMB     94       POPE     DC11     DRUD     -2.22370      0.400000           0   0.00000       0.00000    
     16938 MEMB     94       POPE     H11A     HDA2A    0.260000E-01   1.00800           0   0.00000       0.00000    
     16939 MEMB     94       POPE     H11B     HDA2A    0.260000E-01   1.00800           0   0.00000       0.00000    
     16940 MEMB     94       POPE     P        PD1A      2.90360       30.5740           0 -0.974000       2.09800    
     16941 MEMB     94       POPE     DP       DRUD     -1.71260      0.400000           0   0.00000       0.00000    
     16942 MEMB     94       POPE     O13      OD2C2B   0.798400       15.5994           0 -0.931000       1.08300    
     16943 MEMB     94       POPE     DO13     DRUD     -1.67440      0.400000           0   0.00000       0.00000    
     16944 MEMB     94       POPE     O14      OD2C2B   0.798400       15.5994           0 -0.931000       1.08300    
     16945 MEMB     94       POPE     DO14     DRUD     -1.67440      0.400000           0   0.00000       0.00000    
     16946 MEMB     94       POPE     O11      OD30B     1.17720       15.5994           0 -0.901000      0.181000    
     16947 MEMB     94       POPE     DO11     DRUD     -1.64720      0.400000           0   0.00000       0.00000    
     16948 MEMB     94       POPE     O12      OD30B     1.17720       15.5994           0 -0.901000      0.181000    
     16949 MEMB     94       POPE     DO12     DRUD     -1.64720      0.400000           0   0.00000       0.00000    
     16950 MEMB     94       POPE     C1       CD32A     2.42220       11.6110           0  -1.64200      0.862000    
     16951 MEMB     94       POPE     DC1      DRUD     -2.22370      0.400000           0   0.00000       0.00000    
     16952 MEMB     94       POPE     HA       HDA2A    0.260000E-01   1.00800           0   0.00000       0.00000    
     16953 MEMB     94       POPE     HB       HDA2A    0.260000E-01   1.00800           0   0.00000       0.00000    
     16954 MEMB     94       POPE     C2       CD31C     2.52830       11.6110           0  -1.79700      0.410000    
     16955 MEMB     94       POPE     DC2      DRUD     -2.32630      0.400000           0   0.00000       0.00000    
     16956 MEMB     94       POPE     HS       HDA1A    0.116000       1.00800           0   0.00000       0.00000    
     16957 MEMB     94       POPE     O21      OD30CL    1.48470       15.5994           0 -0.732000      0.601000    
     16958 MEMB     94       POPE     DO21     DRUD     -1.48470      0.400000           0   0.00000       0.00000    
     16959 MEMB     94       POPE     C21      CD2O3B    2.72820       11.6110           0  -1.37000       1.74700    
     16960 MEMB     94       POPE     DC21     DRUD     -2.03120      0.400000           0   0.00000       0.00000    
     16961 MEMB     94       POPE     O22      OD2C3B    1.64990       15.5994           0 -0.904000      0.565000    
     16962 MEMB     94       POPE     DO22     DRUD     -1.64990      0.400000           0   0.00000       0.00000    
     16963 MEMB     94       POPE     C22      CD32C     2.24380       11.6110           0  -1.99300      0.410000    
     16964 MEMB     94       POPE     DC22     DRUD     -2.44980      0.400000           0   0.00000       0.00000    
     16965 MEMB     94       POPE     H2R      HDA2A    0.690000E-01   1.00800           0   0.00000       0.00000    
     16966 MEMB     94       POPE     H2S      HDA2A    0.690000E-01   1.00800           0   0.00000       0.00000    
     16967 MEMB     94       POPE     LP1A     LPD     -0.349000       0.00000          -1   0.00000       0.00000    
     16968 MEMB     94       POPE     LP1B     LPD     -0.258000       0.00000          -1   0.00000       0.00000    
     16969 MEMB     94       POPE     LPMA     LPD     -0.170000       0.00000          -1   0.00000       0.00000    
     16970 MEMB     94       POPE     LPMB     LPD     -0.170000       0.00000          -1   0.00000       0.00000    
     16971 MEMB     94       POPE     C3       CD32C     2.41230       11.6110           0  -1.79700      0.410000    
     16972 MEMB     94       POPE     DC3      DRUD     -2.32630      0.400000           0   0.00000       0.00000    
     16973 MEMB     94       POPE     HX       HDA2A    0.116000       1.00800           0   0.00000       0.00000    
     16974 MEMB     94       POPE     HY       HDA2A    0.116000       1.00800           0   0.00000       0.00000    
     16975 MEMB     94       POPE     O31      OD30CL    1.48470       15.5994           0 -0.732000      0.601000    
     16976 MEMB     94       POPE     DO31     DRUD     -1.48470      0.400000           0   0.00000       0.00000    
     16977 MEMB     94       POPE     C31      CD2O3B    2.72820       11.6110           0  -1.37000       1.74700    
     16978 MEMB     94       POPE     DC31     DRUD     -2.03120      0.400000           0   0.00000       0.00000    
     16979 MEMB     94       POPE     O32      OD2C3B    1.64990       15.5994           0 -0.904000      0.565000    
     16980 MEMB     94       POPE     DO32     DRUD     -1.64990      0.400000           0   0.00000       0.00000    
     16981 MEMB     94       POPE     C32      CD32C     2.24380       11.6110           0  -1.99300      0.410000    
     16982 MEMB     94       POPE     DC32     DRUD     -2.44980      0.400000           0   0.00000       0.00000    
     16983 MEMB     94       POPE     H2X      HDA2A    0.690000E-01   1.00800           0   0.00000       0.00000    
     16984 MEMB     94       POPE     H2Y      HDA2A    0.690000E-01   1.00800           0   0.00000       0.00000    
     16985 MEMB     94       POPE     LP1C     LPD     -0.349000       0.00000          -1   0.00000       0.00000    
     16986 MEMB     94       POPE     LP1D     LPD     -0.258000       0.00000          -1   0.00000       0.00000    
     16987 MEMB     94       POPE     LPMC     LPD     -0.170000       0.00000          -1   0.00000       0.00000    
     16988 MEMB     94       POPE     LPMD     LPD     -0.170000       0.00000          -1   0.00000       0.00000    
     16989 MEMB     94       POPE     C23      CD32A     2.07980       11.6110           0  -1.66000       1.30000    
     16990 MEMB     94       POPE     DC23     DRUD     -2.23580      0.400000           0   0.00000       0.00000    
     16991 MEMB     94       POPE     H3R      HDA2A    0.780000E-01   1.00800           0   0.00000       0.00000    
     16992 MEMB     94       POPE     H3S      HDA2A    0.780000E-01   1.00800           0   0.00000       0.00000    
     16993 MEMB     94       POPE     C24      CD32A     2.07980       11.6110           0  -1.66000       1.30000    
     16994 MEMB     94       POPE     DC24     DRUD     -2.23580      0.400000           0   0.00000       0.00000    
     16995 MEMB     94       POPE     H4R      HDA2A    0.780000E-01   1.00800           0   0.00000       0.00000    
     16996 MEMB     94       POPE     H4S      HDA2A    0.780000E-01   1.00800           0   0.00000       0.00000    
     16997 MEMB     94       POPE     C25      CD32A     2.07980       11.6110           0  -1.66000       1.30000    
     16998 MEMB     94       POPE     DC25     DRUD     -2.23580      0.400000           0   0.00000       0.00000    
     16999 MEMB     94       POPE     H5R      HDA2A    0.780000E-01   1.00800           0   0.00000       0.00000    
     17000 MEMB     94       POPE     H5S      HDA2A    0.780000E-01   1.00800           0   0.00000       0.00000    
     17001 MEMB     94       POPE     C26      CD32A     2.07980       11.6110           0  -1.66000       1.30000    
     17002 MEMB     94       POPE     DC26     DRUD     -2.23580      0.400000           0   0.00000       0.00000    
     17003 MEMB     94       POPE     H6R      HDA2A    0.780000E-01   1.00800           0   0.00000       0.00000    
     17004 MEMB     94       POPE     H6S      HDA2A    0.780000E-01   1.00800           0   0.00000       0.00000    
     17005 MEMB     94       POPE     C27      CD32A     2.07980       11.6110           0  -1.66000       1.30000    
     17006 MEMB     94       POPE     DC27     DRUD     -2.23580      0.400000           0   0.00000       0.00000    
     17007 MEMB     94       POPE     H7R      HDA2A    0.780000E-01   1.00800           0   0.00000       0.00000    
     17008 MEMB     94       POPE     H7S      HDA2A    0.780000E-01   1.00800           0   0.00000       0.00000    
     17009 MEMB     94       POPE     C28      CD32A     2.07980       11.6110           0  -1.66000       1.30000    
     17010 MEMB     94       POPE     DC28     DRUD     -2.23580      0.400000           0   0.00000       0.00000    
     17011 MEMB     94       POPE     H8R      HDA2A    0.780000E-01   1.00800           0   0.00000       0.00000    
     17012 MEMB     94       POPE     H8S      HDA2A    0.780000E-01   1.00800           0   0.00000       0.00000    
     17013 MEMB     94       POPE     C29      CD2C1A    2.33700       11.6110           0  -1.99000      0.750000    
     17014 MEMB     94       POPE     DC29     DRUD     -2.44800      0.400000           0   0.00000       0.00000    
     17015 MEMB     94       POPE     H91      HD2C1A   0.111000       1.00800           0   0.00000       0.00000    
     17016 MEMB     94       POPE     C210     CD2C1A    2.33700       11.6110           0  -1.99000      0.750000    
     17017 MEMB     94       POPE     DC210    DRUD     -2.44800      0.400000           0   0.00000       0.00000    
     17018 MEMB     94       POPE     H101     HD2C1A   0.111000       1.00800           0   0.00000       0.00000    
     17019 MEMB     94       POPE     C211     CD32A     2.07980       11.6110           0  -1.66000       1.30000    
     17020 MEMB     94       POPE     DC211    DRUD     -2.23580      0.400000           0   0.00000       0.00000    
     17021 MEMB     94       POPE     H11R     HDA2A    0.780000E-01   1.00800           0   0.00000       0.00000    
     17022 MEMB     94       POPE     H11S     HDA2A    0.780000E-01   1.00800           0   0.00000       0.00000    
     17023 MEMB     94       POPE     C212     CD32A     2.07980       11.6110           0  -1.66000       1.30000    
     17024 MEMB     94       POPE     DC212    DRUD     -2.23580      0.400000           0   0.00000       0.00000    
     17025 MEMB     94       POPE     H12R     HDA2A    0.780000E-01   1.00800           0   0.00000       0.00000    
     17026 MEMB     94       POPE     H12S     HDA2A    0.780000E-01   1.00800           0   0.00000       0.00000    
     17027 MEMB     94       POPE     C213     CD32A     2.07980       11.6110           0  -1.66000       1.30000    
     17028 MEMB     94       POPE     DC213    DRUD     -2.23580      0.400000           0   0.00000       0.00000    
     17029 MEMB     94       POPE     H13R     HDA2A    0.780000E-01   1.00800           0   0.00000       0.00000    
     17030 MEMB     94       POPE     H13S     HDA2A    0.780000E-01   1.00800           0   0.00000       0.00000    
     17031 MEMB     94       POPE     C214     CD32A     2.07980       11.6110           0  -1.66000       1.30000    
     17032 MEMB     94       POPE     DC214    DRUD     -2.23580      0.400000           0   0.00000       0.00000    
     17033 MEMB     94       POPE     H14R     HDA2A    0.780000E-01   1.00800           0   0.00000       0.00000    
     17034 MEMB     94       POPE     H14S     HDA2A    0.780000E-01   1.00800           0   0.00000       0.00000    
     17035 MEMB     94       POPE     C215     CD32A     2.07980       11.6110           0  -1.66000       1.30000    
     17036 MEMB     94       POPE     DC215    DRUD     -2.23580      0.400000           0   0.00000       0.00000    
     17037 MEMB     94       POPE     H15R     HDA2A    0.780000E-01   1.00800           0   0.00000       0.00000    
     17038 MEMB     94       POPE     H15S     HDA2A    0.780000E-01   1.00800           0   0.00000       0.00000    
     17039 MEMB     94       POPE     C216     CD32A     2.07980       11.6110           0  -1.66000       1.30000    
     17040 MEMB     94       POPE     DC216    DRUD     -2.23580      0.400000           0   0.00000       0.00000    
     17041 MEMB     94       POPE     H16R     HDA2A    0.780000E-01   1.00800           0   0.00000       0.00000    
     17042 MEMB     94       POPE     H16S     HDA2A    0.780000E-01   1.00800           0   0.00000       0.00000    
     17043 MEMB     94       POPE     C217     CD32A     2.07980       11.6110           0  -1.66000       1.30000    
     17044 MEMB     94       POPE     DC217    DRUD     -2.23580      0.400000           0   0.00000       0.00000    
     17045 MEMB     94       POPE     H17R     HDA2A    0.780000E-01   1.00800           0   0.00000       0.00000    
     17046 MEMB     94       POPE     H17S     HDA2A    0.780000E-01   1.00800           0   0.00000       0.00000    
     17047 MEMB     94       POPE     C218     CD33A     2.30820       11.6110           0  -2.05100       1.30000    
     17048 MEMB     94       POPE     DC218    DRUD     -2.48520      0.400000           0   0.00000       0.00000    
     17049 MEMB     94       POPE     H18R     HDA3A    0.590000E-01   1.00800           0   0.00000       0.00000    
     17050 MEMB     94       POPE     H18S     HDA3A    0.590000E-01   1.00800           0   0.00000       0.00000    
     17051 MEMB     94       POPE     H18T     HDA3A    0.590000E-01   1.00800           0   0.00000       0.00000    
     17052 MEMB     94       POPE     C33      CD32A     2.07980       11.6110           0  -1.66000       1.30000    
     17053 MEMB     94       POPE     DC33     DRUD     -2.23580      0.400000           0   0.00000       0.00000    
     17054 MEMB     94       POPE     H3X      HDA2A    0.780000E-01   1.00800           0   0.00000       0.00000    
     17055 MEMB     94       POPE     H3Y      HDA2A    0.780000E-01   1.00800           0   0.00000       0.00000    
     17056 MEMB     94       POPE     C34      CD32A     2.07980       11.6110           0  -1.66000       1.30000    
     17057 MEMB     94       POPE     DC34     DRUD     -2.23580      0.400000           0   0.00000       0.00000    
     17058 MEMB     94       POPE     H4X      HDA2A    0.780000E-01   1.00800           0   0.00000       0.00000    
     17059 MEMB     94       POPE     H4Y      HDA2A    0.780000E-01   1.00800           0   0.00000       0.00000    
     17060 MEMB     94       POPE     C35      CD32A     2.07980       11.6110           0  -1.66000       1.30000    
     17061 MEMB     94       POPE     DC35     DRUD     -2.23580      0.400000           0   0.00000       0.00000    
     17062 MEMB     94       POPE     H5X      HDA2A    0.780000E-01   1.00800           0   0.00000       0.00000    
     17063 MEMB     94       POPE     H5Y      HDA2A    0.780000E-01   1.00800           0   0.00000       0.00000    
     17064 MEMB     94       POPE     C36      CD32A     2.07980       11.6110           0  -1.66000       1.30000    
     17065 MEMB     94       POPE     DC36     DRUD     -2.23580      0.400000           0   0.00000       0.00000    
     17066 MEMB     94       POPE     H6X      HDA2A    0.780000E-01   1.00800           0   0.00000       0.00000    
     17067 MEMB     94       POPE     H6Y      HDA2A    0.780000E-01   1.00800           0   0.00000       0.00000    
     17068 MEMB     94       POPE     C37      CD32A     2.07980       11.6110           0  -1.66000       1.30000    
     17069 MEMB     94       POPE     DC37     DRUD     -2.23580      0.400000           0   0.00000       0.00000    
     17070 MEMB     94       POPE     H7X      HDA2A    0.780000E-01   1.00800           0   0.00000       0.00000    
     17071 MEMB     94       POPE     H7Y      HDA2A    0.780000E-01   1.00800           0   0.00000       0.00000    
     17072 MEMB     94       POPE     C38      CD32A     2.07980       11.6110           0  -1.66000       1.30000    
     17073 MEMB     94       POPE     DC38     DRUD     -2.23580      0.400000           0   0.00000       0.00000    
     17074 MEMB     94       POPE     H8X      HDA2A    0.780000E-01   1.00800           0   0.00000       0.00000    
     17075 MEMB     94       POPE     H8Y      HDA2A    0.780000E-01   1.00800           0   0.00000       0.00000    
     17076 MEMB     94       POPE     C39      CD32A     2.07980       11.6110           0  -1.66000       1.30000    
     17077 MEMB     94       POPE     DC39     DRUD     -2.23580      0.400000           0   0.00000       0.00000    
     17078 MEMB     94       POPE     H9X      HDA2A    0.780000E-01   1.00800           0   0.00000       0.00000    
     17079 MEMB     94       POPE     H9Y      HDA2A    0.780000E-01   1.00800           0   0.00000       0.00000    
     17080 MEMB     94       POPE     C310     CD32A     2.07980       11.6110           0  -1.66000       1.30000    
     17081 MEMB     94       POPE     DC310    DRUD     -2.23580      0.400000           0   0.00000       0.00000    
     17082 MEMB     94       POPE     H10X     HDA2A    0.780000E-01   1.00800           0   0.00000       0.00000    
     17083 MEMB     94       POPE     H10Y     HDA2A    0.780000E-01   1.00800           0   0.00000       0.00000    
     17084 MEMB     94       POPE     C311     CD32A     2.07980       11.6110           0  -1.66000       1.30000    
     17085 MEMB     94       POPE     DC311    DRUD     -2.23580      0.400000           0   0.00000       0.00000    
     17086 MEMB     94       POPE     H11X     HDA2A    0.780000E-01   1.00800           0   0.00000       0.00000    
     17087 MEMB     94       POPE     H11Y     HDA2A    0.780000E-01   1.00800           0   0.00000       0.00000    
     17088 MEMB     94       POPE     C312     CD32A     2.07980       11.6110           0  -1.66000       1.30000    
     17089 MEMB     94       POPE     DC312    DRUD     -2.23580      0.400000           0   0.00000       0.00000    
     17090 MEMB     94       POPE     H12X     HDA2A    0.780000E-01   1.00800           0   0.00000       0.00000    
     17091 MEMB     94       POPE     H12Y     HDA2A    0.780000E-01   1.00800           0   0.00000       0.00000    
     17092 MEMB     94       POPE     C313     CD32A     2.07980       11.6110           0  -1.66000       1.30000    
     17093 MEMB     94       POPE     DC313    DRUD     -2.23580      0.400000           0   0.00000       0.00000    
     17094 MEMB     94       POPE     H13X     HDA2A    0.780000E-01   1.00800           0   0.00000       0.00000    
     17095 MEMB     94       POPE     H13Y     HDA2A    0.780000E-01   1.00800           0   0.00000       0.00000    
     17096 MEMB     94       POPE     C314     CD32A     2.07980       11.6110           0  -1.66000       1.30000    
     17097 MEMB     94       POPE     DC314    DRUD     -2.23580      0.400000           0   0.00000       0.00000    
     17098 MEMB     94       POPE     H14X     HDA2A    0.780000E-01   1.00800           0   0.00000       0.00000    
     17099 MEMB     94       POPE     H14Y     HDA2A    0.780000E-01   1.00800           0   0.00000       0.00000    
     17100 MEMB     94       POPE     C315     CD32A     2.07980       11.6110           0  -1.66000       1.30000    
     17101 MEMB     94       POPE     DC315    DRUD     -2.23580      0.400000           0   0.00000       0.00000    
     17102 MEMB     94       POPE     H15X     HDA2A    0.780000E-01   1.00800           0   0.00000       0.00000    
     17103 MEMB     94       POPE     H15Y     HDA2A    0.780000E-01   1.00800           0   0.00000       0.00000    
     17104 MEMB     94       POPE     C316     CD33A     2.30820       11.6110           0  -2.05100       1.30000    
     17105 MEMB     94       POPE     DC316    DRUD     -2.48520      0.400000           0   0.00000       0.00000    
     17106 MEMB     94       POPE     H16X     HDA3A    0.590000E-01   1.00800           0   0.00000       0.00000    
     17107 MEMB     94       POPE     H16Y     HDA3A    0.590000E-01   1.00800           0   0.00000       0.00000    
     17108 MEMB     94       POPE     H16Z     HDA3A    0.590000E-01   1.00800           0   0.00000       0.00000    
     17109 MEMB     95       POPE     N        ND3P3A    1.62810       13.6070           0  -1.29800      0.895000    
     17110 MEMB     95       POPE     DN       DRUD     -1.97710      0.400000           0   0.00000       0.00000    
     17111 MEMB     95       POPE     HN1      HDP1B    0.340000       1.00800           0   0.00000       0.00000    
     17112 MEMB     95       POPE     HN2      HDP1B    0.340000       1.00800           0   0.00000       0.00000    
     17113 MEMB     95       POPE     HN3      HDP1B    0.340000       1.00800           0   0.00000       0.00000    
     17114 MEMB     95       POPE     C12      CD32A     2.27610       11.6110           0  -1.65600      0.895000    
     17115 MEMB     95       POPE     DC12     DRUD     -2.23310      0.400000           0   0.00000       0.00000    
     17116 MEMB     95       POPE     H12A     HDA2A    0.143000       1.00800           0   0.00000       0.00000    
     17117 MEMB     95       POPE     H12B     HDA2A    0.143000       1.00800           0   0.00000       0.00000    
     17118 MEMB     95       POPE     C11      CD32A     2.42220       11.6110           0  -1.64200      0.862000    
     17119 MEMB     95       POPE     DC11     DRUD     -2.22370      0.400000           0   0.00000       0.00000    
     17120 MEMB     95       POPE     H11A     HDA2A    0.260000E-01   1.00800           0   0.00000       0.00000    
     17121 MEMB     95       POPE     H11B     HDA2A    0.260000E-01   1.00800           0   0.00000       0.00000    
     17122 MEMB     95       POPE     P        PD1A      2.90360       30.5740           0 -0.974000       2.09800    
     17123 MEMB     95       POPE     DP       DRUD     -1.71260      0.400000           0   0.00000       0.00000    
     17124 MEMB     95       POPE     O13      OD2C2B   0.798400       15.5994           0 -0.931000       1.08300    
     17125 MEMB     95       POPE     DO13     DRUD     -1.67440      0.400000           0   0.00000       0.00000    
     17126 MEMB     95       POPE     O14      OD2C2B   0.798400       15.5994           0 -0.931000       1.08300    
     17127 MEMB     95       POPE     DO14     DRUD     -1.67440      0.400000           0   0.00000       0.00000    
     17128 MEMB     95       POPE     O11      OD30B     1.17720       15.5994           0 -0.901000      0.181000    
     17129 MEMB     95       POPE     DO11     DRUD     -1.64720      0.400000           0   0.00000       0.00000    
     17130 MEMB     95       POPE     O12      OD30B     1.17720       15.5994           0 -0.901000      0.181000    
     17131 MEMB     95       POPE     DO12     DRUD     -1.64720      0.400000           0   0.00000       0.00000    
     17132 MEMB     95       POPE     C1       CD32A     2.42220       11.6110           0  -1.64200      0.862000    
     17133 MEMB     95       POPE     DC1      DRUD     -2.22370      0.400000           0   0.00000       0.00000    
     17134 MEMB     95       POPE     HA       HDA2A    0.260000E-01   1.00800           0   0.00000       0.00000    
     17135 MEMB     95       POPE     HB       HDA2A    0.260000E-01   1.00800           0   0.00000       0.00000    
     17136 MEMB     95       POPE     C2       CD31C     2.52830       11.6110           0  -1.79700      0.410000    
     17137 MEMB     95       POPE     DC2      DRUD     -2.32630      0.400000           0   0.00000       0.00000    
     17138 MEMB     95       POPE     HS       HDA1A    0.116000       1.00800           0   0.00000       0.00000    
     17139 MEMB     95       POPE     O21      OD30CL    1.48470       15.5994           0 -0.732000      0.601000    
     17140 MEMB     95       POPE     DO21     DRUD     -1.48470      0.400000           0   0.00000       0.00000    
     17141 MEMB     95       POPE     C21      CD2O3B    2.72820       11.6110           0  -1.37000       1.74700    
     17142 MEMB     95       POPE     DC21     DRUD     -2.03120      0.400000           0   0.00000       0.00000    
     17143 MEMB     95       POPE     O22      OD2C3B    1.64990       15.5994           0 -0.904000      0.565000    
     17144 MEMB     95       POPE     DO22     DRUD     -1.64990      0.400000           0   0.00000       0.00000    
     17145 MEMB     95       POPE     C22      CD32C     2.24380       11.6110           0  -1.99300      0.410000    
     17146 MEMB     95       POPE     DC22     DRUD     -2.44980      0.400000           0   0.00000       0.00000    
     17147 MEMB     95       POPE     H2R      HDA2A    0.690000E-01   1.00800           0   0.00000       0.00000    
     17148 MEMB     95       POPE     H2S      HDA2A    0.690000E-01   1.00800           0   0.00000       0.00000    
     17149 MEMB     95       POPE     LP1A     LPD     -0.349000       0.00000          -1   0.00000       0.00000    
     17150 MEMB     95       POPE     LP1B     LPD     -0.258000       0.00000          -1   0.00000       0.00000    
     17151 MEMB     95       POPE     LPMA     LPD     -0.170000       0.00000          -1   0.00000       0.00000    
     17152 MEMB     95       POPE     LPMB     LPD     -0.170000       0.00000          -1   0.00000       0.00000    
     17153 MEMB     95       POPE     C3       CD32C     2.41230       11.6110           0  -1.79700      0.410000    
     17154 MEMB     95       POPE     DC3      DRUD     -2.32630      0.400000           0   0.00000       0.00000    
     17155 MEMB     95       POPE     HX       HDA2A    0.116000       1.00800           0   0.00000       0.00000    
     17156 MEMB     95       POPE     HY       HDA2A    0.116000       1.00800           0   0.00000       0.00000    
     17157 MEMB     95       POPE     O31      OD30CL    1.48470       15.5994           0 -0.732000      0.601000    
     17158 MEMB     95       POPE     DO31     DRUD     -1.48470      0.400000           0   0.00000       0.00000    
     17159 MEMB     95       POPE     C31      CD2O3B    2.72820       11.6110           0  -1.37000       1.74700    
     17160 MEMB     95       POPE     DC31     DRUD     -2.03120      0.400000           0   0.00000       0.00000    
     17161 MEMB     95       POPE     O32      OD2C3B    1.64990       15.5994           0 -0.904000      0.565000    
     17162 MEMB     95       POPE     DO32     DRUD     -1.64990      0.400000           0   0.00000       0.00000    
     17163 MEMB     95       POPE     C32      CD32C     2.24380       11.6110           0  -1.99300      0.410000    
     17164 MEMB     95       POPE     DC32     DRUD     -2.44980      0.400000           0   0.00000       0.00000    
     17165 MEMB     95       POPE     H2X      HDA2A    0.690000E-01   1.00800           0   0.00000       0.00000    
     17166 MEMB     95       POPE     H2Y      HDA2A    0.690000E-01   1.00800           0   0.00000       0.00000    
     17167 MEMB     95       POPE     LP1C     LPD     -0.349000       0.00000          -1   0.00000       0.00000    
     17168 MEMB     95       POPE     LP1D     LPD     -0.258000       0.00000          -1   0.00000       0.00000    
     17169 MEMB     95       POPE     LPMC     LPD     -0.170000       0.00000          -1   0.00000       0.00000    
     17170 MEMB     95       POPE     LPMD     LPD     -0.170000       0.00000          -1   0.00000       0.00000    
     17171 MEMB     95       POPE     C23      CD32A     2.07980       11.6110           0  -1.66000       1.30000    
     17172 MEMB     95       POPE     DC23     DRUD     -2.23580      0.400000           0   0.00000       0.00000    
     17173 MEMB     95       POPE     H3R      HDA2A    0.780000E-01   1.00800           0   0.00000       0.00000    
     17174 MEMB     95       POPE     H3S      HDA2A    0.780000E-01   1.00800           0   0.00000       0.00000    
     17175 MEMB     95       POPE     C24      CD32A     2.07980       11.6110           0  -1.66000       1.30000    
     17176 MEMB     95       POPE     DC24     DRUD     -2.23580      0.400000           0   0.00000       0.00000    
     17177 MEMB     95       POPE     H4R      HDA2A    0.780000E-01   1.00800           0   0.00000       0.00000    
     17178 MEMB     95       POPE     H4S      HDA2A    0.780000E-01   1.00800           0   0.00000       0.00000    
     17179 MEMB     95       POPE     C25      CD32A     2.07980       11.6110           0  -1.66000       1.30000    
     17180 MEMB     95       POPE     DC25     DRUD     -2.23580      0.400000           0   0.00000       0.00000    
     17181 MEMB     95       POPE     H5R      HDA2A    0.780000E-01   1.00800           0   0.00000       0.00000    
     17182 MEMB     95       POPE     H5S      HDA2A    0.780000E-01   1.00800           0   0.00000       0.00000    
     17183 MEMB     95       POPE     C26      CD32A     2.07980       11.6110           0  -1.66000       1.30000    
     17184 MEMB     95       POPE     DC26     DRUD     -2.23580      0.400000           0   0.00000       0.00000    
     17185 MEMB     95       POPE     H6R      HDA2A    0.780000E-01   1.00800           0   0.00000       0.00000    
     17186 MEMB     95       POPE     H6S      HDA2A    0.780000E-01   1.00800           0   0.00000       0.00000    
     17187 MEMB     95       POPE     C27      CD32A     2.07980       11.6110           0  -1.66000       1.30000    
     17188 MEMB     95       POPE     DC27     DRUD     -2.23580      0.400000           0   0.00000       0.00000    
     17189 MEMB     95       POPE     H7R      HDA2A    0.780000E-01   1.00800           0   0.00000       0.00000    
     17190 MEMB     95       POPE     H7S      HDA2A    0.780000E-01   1.00800           0   0.00000       0.00000    
     17191 MEMB     95       POPE     C28      CD32A     2.07980       11.6110           0  -1.66000       1.30000    
     17192 MEMB     95       POPE     DC28     DRUD     -2.23580      0.400000           0   0.00000       0.00000    
     17193 MEMB     95       POPE     H8R      HDA2A    0.780000E-01   1.00800           0   0.00000       0.00000    
     17194 MEMB     95       POPE     H8S      HDA2A    0.780000E-01   1.00800           0   0.00000       0.00000    
     17195 MEMB     95       POPE     C29      CD2C1A    2.33700       11.6110           0  -1.99000      0.750000    
     17196 MEMB     95       POPE     DC29     DRUD     -2.44800      0.400000           0   0.00000       0.00000    
     17197 MEMB     95       POPE     H91      HD2C1A   0.111000       1.00800           0   0.00000       0.00000    
     17198 MEMB     95       POPE     C210     CD2C1A    2.33700       11.6110           0  -1.99000      0.750000    
     17199 MEMB     95       POPE     DC210    DRUD     -2.44800      0.400000           0   0.00000       0.00000    
     17200 MEMB     95       POPE     H101     HD2C1A   0.111000       1.00800           0   0.00000       0.00000    
     17201 MEMB     95       POPE     C211     CD32A     2.07980       11.6110           0  -1.66000       1.30000    
     17202 MEMB     95       POPE     DC211    DRUD     -2.23580      0.400000           0   0.00000       0.00000    
     17203 MEMB     95       POPE     H11R     HDA2A    0.780000E-01   1.00800           0   0.00000       0.00000    
     17204 MEMB     95       POPE     H11S     HDA2A    0.780000E-01   1.00800           0   0.00000       0.00000    
     17205 MEMB     95       POPE     C212     CD32A     2.07980       11.6110           0  -1.66000       1.30000    
     17206 MEMB     95       POPE     DC212    DRUD     -2.23580      0.400000           0   0.00000       0.00000    
     17207 MEMB     95       POPE     H12R     HDA2A    0.780000E-01   1.00800           0   0.00000       0.00000    
     17208 MEMB     95       POPE     H12S     HDA2A    0.780000E-01   1.00800           0   0.00000       0.00000    
     17209 MEMB     95       POPE     C213     CD32A     2.07980       11.6110           0  -1.66000       1.30000    
     17210 MEMB     95       POPE     DC213    DRUD     -2.23580      0.400000           0   0.00000       0.00000    
     17211 MEMB     95       POPE     H13R     HDA2A    0.780000E-01   1.00800           0   0.00000       0.00000    
     17212 MEMB     95       POPE     H13S     HDA2A    0.780000E-01   1.00800           0   0.00000       0.00000    
     17213 MEMB     95       POPE     C214     CD32A     2.07980       11.6110           0  -1.66000       1.30000    
     17214 MEMB     95       POPE     DC214    DRUD     -2.23580      0.400000           0   0.00000       0.00000    
     17215 MEMB     95       POPE     H14R     HDA2A    0.780000E-01   1.00800           0   0.00000       0.00000    
     17216 MEMB     95       POPE     H14S     HDA2A    0.780000E-01   1.00800           0   0.00000       0.00000    
     17217 MEMB     95       POPE     C215     CD32A     2.07980       11.6110           0  -1.66000       1.30000    
     17218 MEMB     95       POPE     DC215    DRUD     -2.23580      0.400000           0   0.00000       0.00000    
     17219 MEMB     95       POPE     H15R     HDA2A    0.780000E-01   1.00800           0   0.00000       0.00000    
     17220 MEMB     95       POPE     H15S     HDA2A    0.780000E-01   1.00800           0   0.00000       0.00000    
     17221 MEMB     95       POPE     C216     CD32A     2.07980       11.6110           0  -1.66000       1.30000    
     17222 MEMB     95       POPE     DC216    DRUD     -2.23580      0.400000           0   0.00000       0.00000    
     17223 MEMB     95       POPE     H16R     HDA2A    0.780000E-01   1.00800           0   0.00000       0.00000    
     17224 MEMB     95       POPE     H16S     HDA2A    0.780000E-01   1.00800           0   0.00000       0.00000    
     17225 MEMB     95       POPE     C217     CD32A     2.07980       11.6110           0  -1.66000       1.30000    
     17226 MEMB     95       POPE     DC217    DRUD     -2.23580      0.400000           0   0.00000       0.00000    
     17227 MEMB     95       POPE     H17R     HDA2A    0.780000E-01   1.00800           0   0.00000       0.00000    
     17228 MEMB     95       POPE     H17S     HDA2A    0.780000E-01   1.00800           0   0.00000       0.00000    
     17229 MEMB     95       POPE     C218     CD33A     2.30820       11.6110           0  -2.05100       1.30000    
     17230 MEMB     95       POPE     DC218    DRUD     -2.48520      0.400000           0   0.00000       0.00000    
     17231 MEMB     95       POPE     H18R     HDA3A    0.590000E-01   1.00800           0   0.00000       0.00000    
     17232 MEMB     95       POPE     H18S     HDA3A    0.590000E-01   1.00800           0   0.00000       0.00000    
     17233 MEMB     95       POPE     H18T     HDA3A    0.590000E-01   1.00800           0   0.00000       0.00000    
     17234 MEMB     95       POPE     C33      CD32A     2.07980       11.6110           0  -1.66000       1.30000    
     17235 MEMB     95       POPE     DC33     DRUD     -2.23580      0.400000           0   0.00000       0.00000    
     17236 MEMB     95       POPE     H3X      HDA2A    0.780000E-01   1.00800           0   0.00000       0.00000    
     17237 MEMB     95       POPE     H3Y      HDA2A    0.780000E-01   1.00800           0   0.00000       0.00000    
     17238 MEMB     95       POPE     C34      CD32A     2.07980       11.6110           0  -1.66000       1.30000    
     17239 MEMB     95       POPE     DC34     DRUD     -2.23580      0.400000           0   0.00000       0.00000    
     17240 MEMB     95       POPE     H4X      HDA2A    0.780000E-01   1.00800           0   0.00000       0.00000    
     17241 MEMB     95       POPE     H4Y      HDA2A    0.780000E-01   1.00800           0   0.00000       0.00000    
     17242 MEMB     95       POPE     C35      CD32A     2.07980       11.6110           0  -1.66000       1.30000    
     17243 MEMB     95       POPE     DC35     DRUD     -2.23580      0.400000           0   0.00000       0.00000    
     17244 MEMB     95       POPE     H5X      HDA2A    0.780000E-01   1.00800           0   0.00000       0.00000    
     17245 MEMB     95       POPE     H5Y      HDA2A    0.780000E-01   1.00800           0   0.00000       0.00000    
     17246 MEMB     95       POPE     C36      CD32A     2.07980       11.6110           0  -1.66000       1.30000    
     17247 MEMB     95       POPE     DC36     DRUD     -2.23580      0.400000           0   0.00000       0.00000    
     17248 MEMB     95       POPE     H6X      HDA2A    0.780000E-01   1.00800           0   0.00000       0.00000    
     17249 MEMB     95       POPE     H6Y      HDA2A    0.780000E-01   1.00800           0   0.00000       0.00000    
     17250 MEMB     95       POPE     C37      CD32A     2.07980       11.6110           0  -1.66000       1.30000    
     17251 MEMB     95       POPE     DC37     DRUD     -2.23580      0.400000           0   0.00000       0.00000    
     17252 MEMB     95       POPE     H7X      HDA2A    0.780000E-01   1.00800           0   0.00000       0.00000    
     17253 MEMB     95       POPE     H7Y      HDA2A    0.780000E-01   1.00800           0   0.00000       0.00000    
     17254 MEMB     95       POPE     C38      CD32A     2.07980       11.6110           0  -1.66000       1.30000    
     17255 MEMB     95       POPE     DC38     DRUD     -2.23580      0.400000           0   0.00000       0.00000    
     17256 MEMB     95       POPE     H8X      HDA2A    0.780000E-01   1.00800           0   0.00000       0.00000    
     17257 MEMB     95       POPE     H8Y      HDA2A    0.780000E-01   1.00800           0   0.00000       0.00000    
     17258 MEMB     95       POPE     C39      CD32A     2.07980       11.6110           0  -1.66000       1.30000    
     17259 MEMB     95       POPE     DC39     DRUD     -2.23580      0.400000           0   0.00000       0.00000    
     17260 MEMB     95       POPE     H9X      HDA2A    0.780000E-01   1.00800           0   0.00000       0.00000    
     17261 MEMB     95       POPE     H9Y      HDA2A    0.780000E-01   1.00800           0   0.00000       0.00000    
     17262 MEMB     95       POPE     C310     CD32A     2.07980       11.6110           0  -1.66000       1.30000    
     17263 MEMB     95       POPE     DC310    DRUD     -2.23580      0.400000           0   0.00000       0.00000    
     17264 MEMB     95       POPE     H10X     HDA2A    0.780000E-01   1.00800           0   0.00000       0.00000    
     17265 MEMB     95       POPE     H10Y     HDA2A    0.780000E-01   1.00800           0   0.00000       0.00000    
     17266 MEMB     95       POPE     C311     CD32A     2.07980       11.6110           0  -1.66000       1.30000    
     17267 MEMB     95       POPE     DC311    DRUD     -2.23580      0.400000           0   0.00000       0.00000    
     17268 MEMB     95       POPE     H11X     HDA2A    0.780000E-01   1.00800           0   0.00000       0.00000    
     17269 MEMB     95       POPE     H11Y     HDA2A    0.780000E-01   1.00800           0   0.00000       0.00000    
     17270 MEMB     95       POPE     C312     CD32A     2.07980       11.6110           0  -1.66000       1.30000    
     17271 MEMB     95       POPE     DC312    DRUD     -2.23580      0.400000           0   0.00000       0.00000    
     17272 MEMB     95       POPE     H12X     HDA2A    0.780000E-01   1.00800           0   0.00000       0.00000    
     17273 MEMB     95       POPE     H12Y     HDA2A    0.780000E-01   1.00800           0   0.00000       0.00000    
     17274 MEMB     95       POPE     C313     CD32A     2.07980       11.6110           0  -1.66000       1.30000    
     17275 MEMB     95       POPE     DC313    DRUD     -2.23580      0.400000           0   0.00000       0.00000    
     17276 MEMB     95       POPE     H13X     HDA2A    0.780000E-01   1.00800           0   0.00000       0.00000    
     17277 MEMB     95       POPE     H13Y     HDA2A    0.780000E-01   1.00800           0   0.00000       0.00000    
     17278 MEMB     95       POPE     C314     CD32A     2.07980       11.6110           0  -1.66000       1.30000    
     17279 MEMB     95       POPE     DC314    DRUD     -2.23580      0.400000           0   0.00000       0.00000    
     17280 MEMB     95       POPE     H14X     HDA2A    0.780000E-01   1.00800           0   0.00000       0.00000    
     17281 MEMB     95       POPE     H14Y     HDA2A    0.780000E-01   1.00800           0   0.00000       0.00000    
     17282 MEMB     95       POPE     C315     CD32A     2.07980       11.6110           0  -1.66000       1.30000    
     17283 MEMB     95       POPE     DC315    DRUD     -2.23580      0.400000           0   0.00000       0.00000    
     17284 MEMB     95       POPE     H15X     HDA2A    0.780000E-01   1.00800           0   0.00000       0.00000    
     17285 MEMB     95       POPE     H15Y     HDA2A    0.780000E-01   1.00800           0   0.00000       0.00000    
     17286 MEMB     95       POPE     C316     CD33A     2.30820       11.6110           0  -2.05100       1.30000    
     17287 MEMB     95       POPE     DC316    DRUD     -2.48520      0.400000           0   0.00000       0.00000    
     17288 MEMB     95       POPE     H16X     HDA3A    0.590000E-01   1.00800           0   0.00000       0.00000    
     17289 MEMB     95       POPE     H16Y     HDA3A    0.590000E-01   1.00800           0   0.00000       0.00000    
     17290 MEMB     95       POPE     H16Z     HDA3A    0.590000E-01   1.00800           0   0.00000       0.00000    
     17291 MEMB     96       POPE     N        ND3P3A    1.62810       13.6070           0  -1.29800      0.895000    
     17292 MEMB     96       POPE     DN       DRUD     -1.97710      0.400000           0   0.00000       0.00000    
     17293 MEMB     96       POPE     HN1      HDP1B    0.340000       1.00800           0   0.00000       0.00000    
     17294 MEMB     96       POPE     HN2      HDP1B    0.340000       1.00800           0   0.00000       0.00000    
     17295 MEMB     96       POPE     HN3      HDP1B    0.340000       1.00800           0   0.00000       0.00000    
     17296 MEMB     96       POPE     C12      CD32A     2.27610       11.6110           0  -1.65600      0.895000    
     17297 MEMB     96       POPE     DC12     DRUD     -2.23310      0.400000           0   0.00000       0.00000    
     17298 MEMB     96       POPE     H12A     HDA2A    0.143000       1.00800           0   0.00000       0.00000    
     17299 MEMB     96       POPE     H12B     HDA2A    0.143000       1.00800           0   0.00000       0.00000    
     17300 MEMB     96       POPE     C11      CD32A     2.42220       11.6110           0  -1.64200      0.862000    
     17301 MEMB     96       POPE     DC11     DRUD     -2.22370      0.400000           0   0.00000       0.00000    
     17302 MEMB     96       POPE     H11A     HDA2A    0.260000E-01   1.00800           0   0.00000       0.00000    
     17303 MEMB     96       POPE     H11B     HDA2A    0.260000E-01   1.00800           0   0.00000       0.00000    
     17304 MEMB     96       POPE     P        PD1A      2.90360       30.5740           0 -0.974000       2.09800    
     17305 MEMB     96       POPE     DP       DRUD     -1.71260      0.400000           0   0.00000       0.00000    
     17306 MEMB     96       POPE     O13      OD2C2B   0.798400       15.5994           0 -0.931000       1.08300    
     17307 MEMB     96       POPE     DO13     DRUD     -1.67440      0.400000           0   0.00000       0.00000    
     17308 MEMB     96       POPE     O14      OD2C2B   0.798400       15.5994           0 -0.931000       1.08300    
     17309 MEMB     96       POPE     DO14     DRUD     -1.67440      0.400000           0   0.00000       0.00000    
     17310 MEMB     96       POPE     O11      OD30B     1.17720       15.5994           0 -0.901000      0.181000    
     17311 MEMB     96       POPE     DO11     DRUD     -1.64720      0.400000           0   0.00000       0.00000    
     17312 MEMB     96       POPE     O12      OD30B     1.17720       15.5994           0 -0.901000      0.181000    
     17313 MEMB     96       POPE     DO12     DRUD     -1.64720      0.400000           0   0.00000       0.00000    
     17314 MEMB     96       POPE     C1       CD32A     2.42220       11.6110           0  -1.64200      0.862000    
     17315 MEMB     96       POPE     DC1      DRUD     -2.22370      0.400000           0   0.00000       0.00000    
     17316 MEMB     96       POPE     HA       HDA2A    0.260000E-01   1.00800           0   0.00000       0.00000    
     17317 MEMB     96       POPE     HB       HDA2A    0.260000E-01   1.00800           0   0.00000       0.00000    
     17318 MEMB     96       POPE     C2       CD31C     2.52830       11.6110           0  -1.79700      0.410000    
     17319 MEMB     96       POPE     DC2      DRUD     -2.32630      0.400000           0   0.00000       0.00000    
     17320 MEMB     96       POPE     HS       HDA1A    0.116000       1.00800           0   0.00000       0.00000    
     17321 MEMB     96       POPE     O21      OD30CL    1.48470       15.5994           0 -0.732000      0.601000    
     17322 MEMB     96       POPE     DO21     DRUD     -1.48470      0.400000           0   0.00000       0.00000    
     17323 MEMB     96       POPE     C21      CD2O3B    2.72820       11.6110           0  -1.37000       1.74700    
     17324 MEMB     96       POPE     DC21     DRUD     -2.03120      0.400000           0   0.00000       0.00000    
     17325 MEMB     96       POPE     O22      OD2C3B    1.64990       15.5994           0 -0.904000      0.565000    
     17326 MEMB     96       POPE     DO22     DRUD     -1.64990      0.400000           0   0.00000       0.00000    
     17327 MEMB     96       POPE     C22      CD32C     2.24380       11.6110           0  -1.99300      0.410000    
     17328 MEMB     96       POPE     DC22     DRUD     -2.44980      0.400000           0   0.00000       0.00000    
     17329 MEMB     96       POPE     H2R      HDA2A    0.690000E-01   1.00800           0   0.00000       0.00000    
     17330 MEMB     96       POPE     H2S      HDA2A    0.690000E-01   1.00800           0   0.00000       0.00000    
     17331 MEMB     96       POPE     LP1A     LPD     -0.349000       0.00000          -1   0.00000       0.00000    
     17332 MEMB     96       POPE     LP1B     LPD     -0.258000       0.00000          -1   0.00000       0.00000    
     17333 MEMB     96       POPE     LPMA     LPD     -0.170000       0.00000          -1   0.00000       0.00000    
     17334 MEMB     96       POPE     LPMB     LPD     -0.170000       0.00000          -1   0.00000       0.00000    
     17335 MEMB     96       POPE     C3       CD32C     2.41230       11.6110           0  -1.79700      0.410000    
     17336 MEMB     96       POPE     DC3      DRUD     -2.32630      0.400000           0   0.00000       0.00000    
     17337 MEMB     96       POPE     HX       HDA2A    0.116000       1.00800           0   0.00000       0.00000    
     17338 MEMB     96       POPE     HY       HDA2A    0.116000       1.00800           0   0.00000       0.00000    
     17339 MEMB     96       POPE     O31      OD30CL    1.48470       15.5994           0 -0.732000      0.601000    
     17340 MEMB     96       POPE     DO31     DRUD     -1.48470      0.400000           0   0.00000       0.00000    
     17341 MEMB     96       POPE     C31      CD2O3B    2.72820       11.6110           0  -1.37000       1.74700    
     17342 MEMB     96       POPE     DC31     DRUD     -2.03120      0.400000           0   0.00000       0.00000    
     17343 MEMB     96       POPE     O32      OD2C3B    1.64990       15.5994           0 -0.904000      0.565000    
     17344 MEMB     96       POPE     DO32     DRUD     -1.64990      0.400000           0   0.00000       0.00000    
     17345 MEMB     96       POPE     C32      CD32C     2.24380       11.6110           0  -1.99300      0.410000    
     17346 MEMB     96       POPE     DC32     DRUD     -2.44980      0.400000           0   0.00000       0.00000    
     17347 MEMB     96       POPE     H2X      HDA2A    0.690000E-01   1.00800           0   0.00000       0.00000    
     17348 MEMB     96       POPE     H2Y      HDA2A    0.690000E-01   1.00800           0   0.00000       0.00000    
     17349 MEMB     96       POPE     LP1C     LPD     -0.349000       0.00000          -1   0.00000       0.00000    
     17350 MEMB     96       POPE     LP1D     LPD     -0.258000       0.00000          -1   0.00000       0.00000    
     17351 MEMB     96       POPE     LPMC     LPD     -0.170000       0.00000          -1   0.00000       0.00000    
     17352 MEMB     96       POPE     LPMD     LPD     -0.170000       0.00000          -1   0.00000       0.00000    
     17353 MEMB     96       POPE     C23      CD32A     2.07980       11.6110           0  -1.66000       1.30000    
     17354 MEMB     96       POPE     DC23     DRUD     -2.23580      0.400000           0   0.00000       0.00000    
     17355 MEMB     96       POPE     H3R      HDA2A    0.780000E-01   1.00800           0   0.00000       0.00000    
     17356 MEMB     96       POPE     H3S      HDA2A    0.780000E-01   1.00800           0   0.00000       0.00000    
     17357 MEMB     96       POPE     C24      CD32A     2.07980       11.6110           0  -1.66000       1.30000    
     17358 MEMB     96       POPE     DC24     DRUD     -2.23580      0.400000           0   0.00000       0.00000    
     17359 MEMB     96       POPE     H4R      HDA2A    0.780000E-01   1.00800           0   0.00000       0.00000    
     17360 MEMB     96       POPE     H4S      HDA2A    0.780000E-01   1.00800           0   0.00000       0.00000    
     17361 MEMB     96       POPE     C25      CD32A     2.07980       11.6110           0  -1.66000       1.30000    
     17362 MEMB     96       POPE     DC25     DRUD     -2.23580      0.400000           0   0.00000       0.00000    
     17363 MEMB     96       POPE     H5R      HDA2A    0.780000E-01   1.00800           0   0.00000       0.00000    
     17364 MEMB     96       POPE     H5S      HDA2A    0.780000E-01   1.00800           0   0.00000       0.00000    
     17365 MEMB     96       POPE     C26      CD32A     2.07980       11.6110           0  -1.66000       1.30000    
     17366 MEMB     96       POPE     DC26     DRUD     -2.23580      0.400000           0   0.00000       0.00000    
     17367 MEMB     96       POPE     H6R      HDA2A    0.780000E-01   1.00800           0   0.00000       0.00000    
     17368 MEMB     96       POPE     H6S      HDA2A    0.780000E-01   1.00800           0   0.00000       0.00000    
     17369 MEMB     96       POPE     C27      CD32A     2.07980       11.6110           0  -1.66000       1.30000    
     17370 MEMB     96       POPE     DC27     DRUD     -2.23580      0.400000           0   0.00000       0.00000    
     17371 MEMB     96       POPE     H7R      HDA2A    0.780000E-01   1.00800           0   0.00000       0.00000    
     17372 MEMB     96       POPE     H7S      HDA2A    0.780000E-01   1.00800           0   0.00000       0.00000    
     17373 MEMB     96       POPE     C28      CD32A     2.07980       11.6110           0  -1.66000       1.30000    
     17374 MEMB     96       POPE     DC28     DRUD     -2.23580      0.400000           0   0.00000       0.00000    
     17375 MEMB     96       POPE     H8R      HDA2A    0.780000E-01   1.00800           0   0.00000       0.00000    
     17376 MEMB     96       POPE     H8S      HDA2A    0.780000E-01   1.00800           0   0.00000       0.00000    
     17377 MEMB     96       POPE     C29      CD2C1A    2.33700       11.6110           0  -1.99000      0.750000    
     17378 MEMB     96       POPE     DC29     DRUD     -2.44800      0.400000           0   0.00000       0.00000    
     17379 MEMB     96       POPE     H91      HD2C1A   0.111000       1.00800           0   0.00000       0.00000    
     17380 MEMB     96       POPE     C210     CD2C1A    2.33700       11.6110           0  -1.99000      0.750000    
     17381 MEMB     96       POPE     DC210    DRUD     -2.44800      0.400000           0   0.00000       0.00000    
     17382 MEMB     96       POPE     H101     HD2C1A   0.111000       1.00800           0   0.00000       0.00000    
     17383 MEMB     96       POPE     C211     CD32A     2.07980       11.6110           0  -1.66000       1.30000    
     17384 MEMB     96       POPE     DC211    DRUD     -2.23580      0.400000           0   0.00000       0.00000    
     17385 MEMB     96       POPE     H11R     HDA2A    0.780000E-01   1.00800           0   0.00000       0.00000    
     17386 MEMB     96       POPE     H11S     HDA2A    0.780000E-01   1.00800           0   0.00000       0.00000    
     17387 MEMB     96       POPE     C212     CD32A     2.07980       11.6110           0  -1.66000       1.30000    
     17388 MEMB     96       POPE     DC212    DRUD     -2.23580      0.400000           0   0.00000       0.00000    
     17389 MEMB     96       POPE     H12R     HDA2A    0.780000E-01   1.00800           0   0.00000       0.00000    
     17390 MEMB     96       POPE     H12S     HDA2A    0.780000E-01   1.00800           0   0.00000       0.00000    
     17391 MEMB     96       POPE     C213     CD32A     2.07980       11.6110           0  -1.66000       1.30000    
     17392 MEMB     96       POPE     DC213    DRUD     -2.23580      0.400000           0   0.00000       0.00000    
     17393 MEMB     96       POPE     H13R     HDA2A    0.780000E-01   1.00800           0   0.00000       0.00000    
     17394 MEMB     96       POPE     H13S     HDA2A    0.780000E-01   1.00800           0   0.00000       0.00000    
     17395 MEMB     96       POPE     C214     CD32A     2.07980       11.6110           0  -1.66000       1.30000    
     17396 MEMB     96       POPE     DC214    DRUD     -2.23580      0.400000           0   0.00000       0.00000    
     17397 MEMB     96       POPE     H14R     HDA2A    0.780000E-01   1.00800           0   0.00000       0.00000    
     17398 MEMB     96       POPE     H14S     HDA2A    0.780000E-01   1.00800           0   0.00000       0.00000    
     17399 MEMB     96       POPE     C215     CD32A     2.07980       11.6110           0  -1.66000       1.30000    
     17400 MEMB     96       POPE     DC215    DRUD     -2.23580      0.400000           0   0.00000       0.00000    
     17401 MEMB     96       POPE     H15R     HDA2A    0.780000E-01   1.00800           0   0.00000       0.00000    
     17402 MEMB     96       POPE     H15S     HDA2A    0.780000E-01   1.00800           0   0.00000       0.00000    
     17403 MEMB     96       POPE     C216     CD32A     2.07980       11.6110           0  -1.66000       1.30000    
     17404 MEMB     96       POPE     DC216    DRUD     -2.23580      0.400000           0   0.00000       0.00000    
     17405 MEMB     96       POPE     H16R     HDA2A    0.780000E-01   1.00800           0   0.00000       0.00000    
     17406 MEMB     96       POPE     H16S     HDA2A    0.780000E-01   1.00800           0   0.00000       0.00000    
     17407 MEMB     96       POPE     C217     CD32A     2.07980       11.6110           0  -1.66000       1.30000    
     17408 MEMB     96       POPE     DC217    DRUD     -2.23580      0.400000           0   0.00000       0.00000    
     17409 MEMB     96       POPE     H17R     HDA2A    0.780000E-01   1.00800           0   0.00000       0.00000    
     17410 MEMB     96       POPE     H17S     HDA2A    0.780000E-01   1.00800           0   0.00000       0.00000    
     17411 MEMB     96       POPE     C218     CD33A     2.30820       11.6110           0  -2.05100       1.30000    
     17412 MEMB     96       POPE     DC218    DRUD     -2.48520      0.400000           0   0.00000       0.00000    
     17413 MEMB     96       POPE     H18R     HDA3A    0.590000E-01   1.00800           0   0.00000       0.00000    
     17414 MEMB     96       POPE     H18S     HDA3A    0.590000E-01   1.00800           0   0.00000       0.00000    
     17415 MEMB     96       POPE     H18T     HDA3A    0.590000E-01   1.00800           0   0.00000       0.00000    
     17416 MEMB     96       POPE     C33      CD32A     2.07980       11.6110           0  -1.66000       1.30000    
     17417 MEMB     96       POPE     DC33     DRUD     -2.23580      0.400000           0   0.00000       0.00000    
     17418 MEMB     96       POPE     H3X      HDA2A    0.780000E-01   1.00800           0   0.00000       0.00000    
     17419 MEMB     96       POPE     H3Y      HDA2A    0.780000E-01   1.00800           0   0.00000       0.00000    
     17420 MEMB     96       POPE     C34      CD32A     2.07980       11.6110           0  -1.66000       1.30000    
     17421 MEMB     96       POPE     DC34     DRUD     -2.23580      0.400000           0   0.00000       0.00000    
     17422 MEMB     96       POPE     H4X      HDA2A    0.780000E-01   1.00800           0   0.00000       0.00000    
     17423 MEMB     96       POPE     H4Y      HDA2A    0.780000E-01   1.00800           0   0.00000       0.00000    
     17424 MEMB     96       POPE     C35      CD32A     2.07980       11.6110           0  -1.66000       1.30000    
     17425 MEMB     96       POPE     DC35     DRUD     -2.23580      0.400000           0   0.00000       0.00000    
     17426 MEMB     96       POPE     H5X      HDA2A    0.780000E-01   1.00800           0   0.00000       0.00000    
     17427 MEMB     96       POPE     H5Y      HDA2A    0.780000E-01   1.00800           0   0.00000       0.00000    
     17428 MEMB     96       POPE     C36      CD32A     2.07980       11.6110           0  -1.66000       1.30000    
     17429 MEMB     96       POPE     DC36     DRUD     -2.23580      0.400000           0   0.00000       0.00000    
     17430 MEMB     96       POPE     H6X      HDA2A    0.780000E-01   1.00800           0   0.00000       0.00000    
     17431 MEMB     96       POPE     H6Y      HDA2A    0.780000E-01   1.00800           0   0.00000       0.00000    
     17432 MEMB     96       POPE     C37      CD32A     2.07980       11.6110           0  -1.66000       1.30000    
     17433 MEMB     96       POPE     DC37     DRUD     -2.23580      0.400000           0   0.00000       0.00000    
     17434 MEMB     96       POPE     H7X      HDA2A    0.780000E-01   1.00800           0   0.00000       0.00000    
     17435 MEMB     96       POPE     H7Y      HDA2A    0.780000E-01   1.00800           0   0.00000       0.00000    
     17436 MEMB     96       POPE     C38      CD32A     2.07980       11.6110           0  -1.66000       1.30000    
     17437 MEMB     96       POPE     DC38     DRUD     -2.23580      0.400000           0   0.00000       0.00000    
     17438 MEMB     96       POPE     H8X      HDA2A    0.780000E-01   1.00800           0   0.00000       0.00000    
     17439 MEMB     96       POPE     H8Y      HDA2A    0.780000E-01   1.00800           0   0.00000       0.00000    
     17440 MEMB     96       POPE     C39      CD32A     2.07980       11.6110           0  -1.66000       1.30000    
     17441 MEMB     96       POPE     DC39     DRUD     -2.23580      0.400000           0   0.00000       0.00000    
     17442 MEMB     96       POPE     H9X      HDA2A    0.780000E-01   1.00800           0   0.00000       0.00000    
     17443 MEMB     96       POPE     H9Y      HDA2A    0.780000E-01   1.00800           0   0.00000       0.00000    
     17444 MEMB     96       POPE     C310     CD32A     2.07980       11.6110           0  -1.66000       1.30000    
     17445 MEMB     96       POPE     DC310    DRUD     -2.23580      0.400000           0   0.00000       0.00000    
     17446 MEMB     96       POPE     H10X     HDA2A    0.780000E-01   1.00800           0   0.00000       0.00000    
     17447 MEMB     96       POPE     H10Y     HDA2A    0.780000E-01   1.00800           0   0.00000       0.00000    
     17448 MEMB     96       POPE     C311     CD32A     2.07980       11.6110           0  -1.66000       1.30000    
     17449 MEMB     96       POPE     DC311    DRUD     -2.23580      0.400000           0   0.00000       0.00000    
     17450 MEMB     96       POPE     H11X     HDA2A    0.780000E-01   1.00800           0   0.00000       0.00000    
     17451 MEMB     96       POPE     H11Y     HDA2A    0.780000E-01   1.00800           0   0.00000       0.00000    
     17452 MEMB     96       POPE     C312     CD32A     2.07980       11.6110           0  -1.66000       1.30000    
     17453 MEMB     96       POPE     DC312    DRUD     -2.23580      0.400000           0   0.00000       0.00000    
     17454 MEMB     96       POPE     H12X     HDA2A    0.780000E-01   1.00800           0   0.00000       0.00000    
     17455 MEMB     96       POPE     H12Y     HDA2A    0.780000E-01   1.00800           0   0.00000       0.00000    
     17456 MEMB     96       POPE     C313     CD32A     2.07980       11.6110           0  -1.66000       1.30000    
     17457 MEMB     96       POPE     DC313    DRUD     -2.23580      0.400000           0   0.00000       0.00000    
     17458 MEMB     96       POPE     H13X     HDA2A    0.780000E-01   1.00800           0   0.00000       0.00000    
     17459 MEMB     96       POPE     H13Y     HDA2A    0.780000E-01   1.00800           0   0.00000       0.00000    
     17460 MEMB     96       POPE     C314     CD32A     2.07980       11.6110           0  -1.66000       1.30000    
     17461 MEMB     96       POPE     DC314    DRUD     -2.23580      0.400000           0   0.00000       0.00000    
     17462 MEMB     96       POPE     H14X     HDA2A    0.780000E-01   1.00800           0   0.00000       0.00000    
     17463 MEMB     96       POPE     H14Y     HDA2A    0.780000E-01   1.00800           0   0.00000       0.00000    
     17464 MEMB     96       POPE     C315     CD32A     2.07980       11.6110           0  -1.66000       1.30000    
     17465 MEMB     96       POPE     DC315    DRUD     -2.23580      0.400000           0   0.00000       0.00000    
     17466 MEMB     96       POPE     H15X     HDA2A    0.780000E-01   1.00800           0   0.00000       0.00000    
     17467 MEMB     96       POPE     H15Y     HDA2A    0.780000E-01   1.00800           0   0.00000       0.00000    
     17468 MEMB     96       POPE     C316     CD33A     2.30820       11.6110           0  -2.05100       1.30000    
     17469 MEMB     96       POPE     DC316    DRUD     -2.48520      0.400000           0   0.00000       0.00000    
     17470 MEMB     96       POPE     H16X     HDA3A    0.590000E-01   1.00800           0   0.00000       0.00000    
     17471 MEMB     96       POPE     H16Y     HDA3A    0.590000E-01   1.00800           0   0.00000       0.00000    
     17472 MEMB     96       POPE     H16Z     HDA3A    0.590000E-01   1.00800           0   0.00000       0.00000    
     17473 MEMB     97       POPE     N        ND3P3A    1.62810       13.6070           0  -1.29800      0.895000    
     17474 MEMB     97       POPE     DN       DRUD     -1.97710      0.400000           0   0.00000       0.00000    
     17475 MEMB     97       POPE     HN1      HDP1B    0.340000       1.00800           0   0.00000       0.00000    
     17476 MEMB     97       POPE     HN2      HDP1B    0.340000       1.00800           0   0.00000       0.00000    
     17477 MEMB     97       POPE     HN3      HDP1B    0.340000       1.00800           0   0.00000       0.00000    
     17478 MEMB     97       POPE     C12      CD32A     2.27610       11.6110           0  -1.65600      0.895000    
     17479 MEMB     97       POPE     DC12     DRUD     -2.23310      0.400000           0   0.00000       0.00000    
     17480 MEMB     97       POPE     H12A     HDA2A    0.143000       1.00800           0   0.00000       0.00000    
     17481 MEMB     97       POPE     H12B     HDA2A    0.143000       1.00800           0   0.00000       0.00000    
     17482 MEMB     97       POPE     C11      CD32A     2.42220       11.6110           0  -1.64200      0.862000    
     17483 MEMB     97       POPE     DC11     DRUD     -2.22370      0.400000           0   0.00000       0.00000    
     17484 MEMB     97       POPE     H11A     HDA2A    0.260000E-01   1.00800           0   0.00000       0.00000    
     17485 MEMB     97       POPE     H11B     HDA2A    0.260000E-01   1.00800           0   0.00000       0.00000    
     17486 MEMB     97       POPE     P        PD1A      2.90360       30.5740           0 -0.974000       2.09800    
     17487 MEMB     97       POPE     DP       DRUD     -1.71260      0.400000           0   0.00000       0.00000    
     17488 MEMB     97       POPE     O13      OD2C2B   0.798400       15.5994           0 -0.931000       1.08300    
     17489 MEMB     97       POPE     DO13     DRUD     -1.67440      0.400000           0   0.00000       0.00000    
     17490 MEMB     97       POPE     O14      OD2C2B   0.798400       15.5994           0 -0.931000       1.08300    
     17491 MEMB     97       POPE     DO14     DRUD     -1.67440      0.400000           0   0.00000       0.00000    
     17492 MEMB     97       POPE     O11      OD30B     1.17720       15.5994           0 -0.901000      0.181000    
     17493 MEMB     97       POPE     DO11     DRUD     -1.64720      0.400000           0   0.00000       0.00000    
     17494 MEMB     97       POPE     O12      OD30B     1.17720       15.5994           0 -0.901000      0.181000    
     17495 MEMB     97       POPE     DO12     DRUD     -1.64720      0.400000           0   0.00000       0.00000    
     17496 MEMB     97       POPE     C1       CD32A     2.42220       11.6110           0  -1.64200      0.862000    
     17497 MEMB     97       POPE     DC1      DRUD     -2.22370      0.400000           0   0.00000       0.00000    
     17498 MEMB     97       POPE     HA       HDA2A    0.260000E-01   1.00800           0   0.00000       0.00000    
     17499 MEMB     97       POPE     HB       HDA2A    0.260000E-01   1.00800           0   0.00000       0.00000    
     17500 MEMB     97       POPE     C2       CD31C     2.52830       11.6110           0  -1.79700      0.410000    
     17501 MEMB     97       POPE     DC2      DRUD     -2.32630      0.400000           0   0.00000       0.00000    
     17502 MEMB     97       POPE     HS       HDA1A    0.116000       1.00800           0   0.00000       0.00000    
     17503 MEMB     97       POPE     O21      OD30CL    1.48470       15.5994           0 -0.732000      0.601000    
     17504 MEMB     97       POPE     DO21     DRUD     -1.48470      0.400000           0   0.00000       0.00000    
     17505 MEMB     97       POPE     C21      CD2O3B    2.72820       11.6110           0  -1.37000       1.74700    
     17506 MEMB     97       POPE     DC21     DRUD     -2.03120      0.400000           0   0.00000       0.00000    
     17507 MEMB     97       POPE     O22      OD2C3B    1.64990       15.5994           0 -0.904000      0.565000    
     17508 MEMB     97       POPE     DO22     DRUD     -1.64990      0.400000           0   0.00000       0.00000    
     17509 MEMB     97       POPE     C22      CD32C     2.24380       11.6110           0  -1.99300      0.410000    
     17510 MEMB     97       POPE     DC22     DRUD     -2.44980      0.400000           0   0.00000       0.00000    
     17511 MEMB     97       POPE     H2R      HDA2A    0.690000E-01   1.00800           0   0.00000       0.00000    
     17512 MEMB     97       POPE     H2S      HDA2A    0.690000E-01   1.00800           0   0.00000       0.00000    
     17513 MEMB     97       POPE     LP1A     LPD     -0.349000       0.00000          -1   0.00000       0.00000    
     17514 MEMB     97       POPE     LP1B     LPD     -0.258000       0.00000          -1   0.00000       0.00000    
     17515 MEMB     97       POPE     LPMA     LPD     -0.170000       0.00000          -1   0.00000       0.00000    
     17516 MEMB     97       POPE     LPMB     LPD     -0.170000       0.00000          -1   0.00000       0.00000    
     17517 MEMB     97       POPE     C3       CD32C     2.41230       11.6110           0  -1.79700      0.410000    
     17518 MEMB     97       POPE     DC3      DRUD     -2.32630      0.400000           0   0.00000       0.00000    
     17519 MEMB     97       POPE     HX       HDA2A    0.116000       1.00800           0   0.00000       0.00000    
     17520 MEMB     97       POPE     HY       HDA2A    0.116000       1.00800           0   0.00000       0.00000    
     17521 MEMB     97       POPE     O31      OD30CL    1.48470       15.5994           0 -0.732000      0.601000    
     17522 MEMB     97       POPE     DO31     DRUD     -1.48470      0.400000           0   0.00000       0.00000    
     17523 MEMB     97       POPE     C31      CD2O3B    2.72820       11.6110           0  -1.37000       1.74700    
     17524 MEMB     97       POPE     DC31     DRUD     -2.03120      0.400000           0   0.00000       0.00000    
     17525 MEMB     97       POPE     O32      OD2C3B    1.64990       15.5994           0 -0.904000      0.565000    
     17526 MEMB     97       POPE     DO32     DRUD     -1.64990      0.400000           0   0.00000       0.00000    
     17527 MEMB     97       POPE     C32      CD32C     2.24380       11.6110           0  -1.99300      0.410000    
     17528 MEMB     97       POPE     DC32     DRUD     -2.44980      0.400000           0   0.00000       0.00000    
     17529 MEMB     97       POPE     H2X      HDA2A    0.690000E-01   1.00800           0   0.00000       0.00000    
     17530 MEMB     97       POPE     H2Y      HDA2A    0.690000E-01   1.00800           0   0.00000       0.00000    
     17531 MEMB     97       POPE     LP1C     LPD     -0.349000       0.00000          -1   0.00000       0.00000    
     17532 MEMB     97       POPE     LP1D     LPD     -0.258000       0.00000          -1   0.00000       0.00000    
     17533 MEMB     97       POPE     LPMC     LPD     -0.170000       0.00000          -1   0.00000       0.00000    
     17534 MEMB     97       POPE     LPMD     LPD     -0.170000       0.00000          -1   0.00000       0.00000    
     17535 MEMB     97       POPE     C23      CD32A     2.07980       11.6110           0  -1.66000       1.30000    
     17536 MEMB     97       POPE     DC23     DRUD     -2.23580      0.400000           0   0.00000       0.00000    
     17537 MEMB     97       POPE     H3R      HDA2A    0.780000E-01   1.00800           0   0.00000       0.00000    
     17538 MEMB     97       POPE     H3S      HDA2A    0.780000E-01   1.00800           0   0.00000       0.00000    
     17539 MEMB     97       POPE     C24      CD32A     2.07980       11.6110           0  -1.66000       1.30000    
     17540 MEMB     97       POPE     DC24     DRUD     -2.23580      0.400000           0   0.00000       0.00000    
     17541 MEMB     97       POPE     H4R      HDA2A    0.780000E-01   1.00800           0   0.00000       0.00000    
     17542 MEMB     97       POPE     H4S      HDA2A    0.780000E-01   1.00800           0   0.00000       0.00000    
     17543 MEMB     97       POPE     C25      CD32A     2.07980       11.6110           0  -1.66000       1.30000    
     17544 MEMB     97       POPE     DC25     DRUD     -2.23580      0.400000           0   0.00000       0.00000    
     17545 MEMB     97       POPE     H5R      HDA2A    0.780000E-01   1.00800           0   0.00000       0.00000    
     17546 MEMB     97       POPE     H5S      HDA2A    0.780000E-01   1.00800           0   0.00000       0.00000    
     17547 MEMB     97       POPE     C26      CD32A     2.07980       11.6110           0  -1.66000       1.30000    
     17548 MEMB     97       POPE     DC26     DRUD     -2.23580      0.400000           0   0.00000       0.00000    
     17549 MEMB     97       POPE     H6R      HDA2A    0.780000E-01   1.00800           0   0.00000       0.00000    
     17550 MEMB     97       POPE     H6S      HDA2A    0.780000E-01   1.00800           0   0.00000       0.00000    
     17551 MEMB     97       POPE     C27      CD32A     2.07980       11.6110           0  -1.66000       1.30000    
     17552 MEMB     97       POPE     DC27     DRUD     -2.23580      0.400000           0   0.00000       0.00000    
     17553 MEMB     97       POPE     H7R      HDA2A    0.780000E-01   1.00800           0   0.00000       0.00000    
     17554 MEMB     97       POPE     H7S      HDA2A    0.780000E-01   1.00800           0   0.00000       0.00000    
     17555 MEMB     97       POPE     C28      CD32A     2.07980       11.6110           0  -1.66000       1.30000    
     17556 MEMB     97       POPE     DC28     DRUD     -2.23580      0.400000           0   0.00000       0.00000    
     17557 MEMB     97       POPE     H8R      HDA2A    0.780000E-01   1.00800           0   0.00000       0.00000    
     17558 MEMB     97       POPE     H8S      HDA2A    0.780000E-01   1.00800           0   0.00000       0.00000    
     17559 MEMB     97       POPE     C29      CD2C1A    2.33700       11.6110           0  -1.99000      0.750000    
     17560 MEMB     97       POPE     DC29     DRUD     -2.44800      0.400000           0   0.00000       0.00000    
     17561 MEMB     97       POPE     H91      HD2C1A   0.111000       1.00800           0   0.00000       0.00000    
     17562 MEMB     97       POPE     C210     CD2C1A    2.33700       11.6110           0  -1.99000      0.750000    
     17563 MEMB     97       POPE     DC210    DRUD     -2.44800      0.400000           0   0.00000       0.00000    
     17564 MEMB     97       POPE     H101     HD2C1A   0.111000       1.00800           0   0.00000       0.00000    
     17565 MEMB     97       POPE     C211     CD32A     2.07980       11.6110           0  -1.66000       1.30000    
     17566 MEMB     97       POPE     DC211    DRUD     -2.23580      0.400000           0   0.00000       0.00000    
     17567 MEMB     97       POPE     H11R     HDA2A    0.780000E-01   1.00800           0   0.00000       0.00000    
     17568 MEMB     97       POPE     H11S     HDA2A    0.780000E-01   1.00800           0   0.00000       0.00000    
     17569 MEMB     97       POPE     C212     CD32A     2.07980       11.6110           0  -1.66000       1.30000    
     17570 MEMB     97       POPE     DC212    DRUD     -2.23580      0.400000           0   0.00000       0.00000    
     17571 MEMB     97       POPE     H12R     HDA2A    0.780000E-01   1.00800           0   0.00000       0.00000    
     17572 MEMB     97       POPE     H12S     HDA2A    0.780000E-01   1.00800           0   0.00000       0.00000    
     17573 MEMB     97       POPE     C213     CD32A     2.07980       11.6110           0  -1.66000       1.30000    
     17574 MEMB     97       POPE     DC213    DRUD     -2.23580      0.400000           0   0.00000       0.00000    
     17575 MEMB     97       POPE     H13R     HDA2A    0.780000E-01   1.00800           0   0.00000       0.00000    
     17576 MEMB     97       POPE     H13S     HDA2A    0.780000E-01   1.00800           0   0.00000       0.00000    
     17577 MEMB     97       POPE     C214     CD32A     2.07980       11.6110           0  -1.66000       1.30000    
     17578 MEMB     97       POPE     DC214    DRUD     -2.23580      0.400000           0   0.00000       0.00000    
     17579 MEMB     97       POPE     H14R     HDA2A    0.780000E-01   1.00800           0   0.00000       0.00000    
     17580 MEMB     97       POPE     H14S     HDA2A    0.780000E-01   1.00800           0   0.00000       0.00000    
     17581 MEMB     97       POPE     C215     CD32A     2.07980       11.6110           0  -1.66000       1.30000    
     17582 MEMB     97       POPE     DC215    DRUD     -2.23580      0.400000           0   0.00000       0.00000    
     17583 MEMB     97       POPE     H15R     HDA2A    0.780000E-01   1.00800           0   0.00000       0.00000    
     17584 MEMB     97       POPE     H15S     HDA2A    0.780000E-01   1.00800           0   0.00000       0.00000    
     17585 MEMB     97       POPE     C216     CD32A     2.07980       11.6110           0  -1.66000       1.30000    
     17586 MEMB     97       POPE     DC216    DRUD     -2.23580      0.400000           0   0.00000       0.00000    
     17587 MEMB     97       POPE     H16R     HDA2A    0.780000E-01   1.00800           0   0.00000       0.00000    
     17588 MEMB     97       POPE     H16S     HDA2A    0.780000E-01   1.00800           0   0.00000       0.00000    
     17589 MEMB     97       POPE     C217     CD32A     2.07980       11.6110           0  -1.66000       1.30000    
     17590 MEMB     97       POPE     DC217    DRUD     -2.23580      0.400000           0   0.00000       0.00000    
     17591 MEMB     97       POPE     H17R     HDA2A    0.780000E-01   1.00800           0   0.00000       0.00000    
     17592 MEMB     97       POPE     H17S     HDA2A    0.780000E-01   1.00800           0   0.00000       0.00000    
     17593 MEMB     97       POPE     C218     CD33A     2.30820       11.6110           0  -2.05100       1.30000    
     17594 MEMB     97       POPE     DC218    DRUD     -2.48520      0.400000           0   0.00000       0.00000    
     17595 MEMB     97       POPE     H18R     HDA3A    0.590000E-01   1.00800           0   0.00000       0.00000    
     17596 MEMB     97       POPE     H18S     HDA3A    0.590000E-01   1.00800           0   0.00000       0.00000    
     17597 MEMB     97       POPE     H18T     HDA3A    0.590000E-01   1.00800           0   0.00000       0.00000    
     17598 MEMB     97       POPE     C33      CD32A     2.07980       11.6110           0  -1.66000       1.30000    
     17599 MEMB     97       POPE     DC33     DRUD     -2.23580      0.400000           0   0.00000       0.00000    
     17600 MEMB     97       POPE     H3X      HDA2A    0.780000E-01   1.00800           0   0.00000       0.00000    
     17601 MEMB     97       POPE     H3Y      HDA2A    0.780000E-01   1.00800           0   0.00000       0.00000    
     17602 MEMB     97       POPE     C34      CD32A     2.07980       11.6110           0  -1.66000       1.30000    
     17603 MEMB     97       POPE     DC34     DRUD     -2.23580      0.400000           0   0.00000       0.00000    
     17604 MEMB     97       POPE     H4X      HDA2A    0.780000E-01   1.00800           0   0.00000       0.00000    
     17605 MEMB     97       POPE     H4Y      HDA2A    0.780000E-01   1.00800           0   0.00000       0.00000    
     17606 MEMB     97       POPE     C35      CD32A     2.07980       11.6110           0  -1.66000       1.30000    
     17607 MEMB     97       POPE     DC35     DRUD     -2.23580      0.400000           0   0.00000       0.00000    
     17608 MEMB     97       POPE     H5X      HDA2A    0.780000E-01   1.00800           0   0.00000       0.00000    
     17609 MEMB     97       POPE     H5Y      HDA2A    0.780000E-01   1.00800           0   0.00000       0.00000    
     17610 MEMB     97       POPE     C36      CD32A     2.07980       11.6110           0  -1.66000       1.30000    
     17611 MEMB     97       POPE     DC36     DRUD     -2.23580      0.400000           0   0.00000       0.00000    
     17612 MEMB     97       POPE     H6X      HDA2A    0.780000E-01   1.00800           0   0.00000       0.00000    
     17613 MEMB     97       POPE     H6Y      HDA2A    0.780000E-01   1.00800           0   0.00000       0.00000    
     17614 MEMB     97       POPE     C37      CD32A     2.07980       11.6110           0  -1.66000       1.30000    
     17615 MEMB     97       POPE     DC37     DRUD     -2.23580      0.400000           0   0.00000       0.00000    
     17616 MEMB     97       POPE     H7X      HDA2A    0.780000E-01   1.00800           0   0.00000       0.00000    
     17617 MEMB     97       POPE     H7Y      HDA2A    0.780000E-01   1.00800           0   0.00000       0.00000    
     17618 MEMB     97       POPE     C38      CD32A     2.07980       11.6110           0  -1.66000       1.30000    
     17619 MEMB     97       POPE     DC38     DRUD     -2.23580      0.400000           0   0.00000       0.00000    
     17620 MEMB     97       POPE     H8X      HDA2A    0.780000E-01   1.00800           0   0.00000       0.00000    
     17621 MEMB     97       POPE     H8Y      HDA2A    0.780000E-01   1.00800           0   0.00000       0.00000    
     17622 MEMB     97       POPE     C39      CD32A     2.07980       11.6110           0  -1.66000       1.30000    
     17623 MEMB     97       POPE     DC39     DRUD     -2.23580      0.400000           0   0.00000       0.00000    
     17624 MEMB     97       POPE     H9X      HDA2A    0.780000E-01   1.00800           0   0.00000       0.00000    
     17625 MEMB     97       POPE     H9Y      HDA2A    0.780000E-01   1.00800           0   0.00000       0.00000    
     17626 MEMB     97       POPE     C310     CD32A     2.07980       11.6110           0  -1.66000       1.30000    
     17627 MEMB     97       POPE     DC310    DRUD     -2.23580      0.400000           0   0.00000       0.00000    
     17628 MEMB     97       POPE     H10X     HDA2A    0.780000E-01   1.00800           0   0.00000       0.00000    
     17629 MEMB     97       POPE     H10Y     HDA2A    0.780000E-01   1.00800           0   0.00000       0.00000    
     17630 MEMB     97       POPE     C311     CD32A     2.07980       11.6110           0  -1.66000       1.30000    
     17631 MEMB     97       POPE     DC311    DRUD     -2.23580      0.400000           0   0.00000       0.00000    
     17632 MEMB     97       POPE     H11X     HDA2A    0.780000E-01   1.00800           0   0.00000       0.00000    
     17633 MEMB     97       POPE     H11Y     HDA2A    0.780000E-01   1.00800           0   0.00000       0.00000    
     17634 MEMB     97       POPE     C312     CD32A     2.07980       11.6110           0  -1.66000       1.30000    
     17635 MEMB     97       POPE     DC312    DRUD     -2.23580      0.400000           0   0.00000       0.00000    
     17636 MEMB     97       POPE     H12X     HDA2A    0.780000E-01   1.00800           0   0.00000       0.00000    
     17637 MEMB     97       POPE     H12Y     HDA2A    0.780000E-01   1.00800           0   0.00000       0.00000    
     17638 MEMB     97       POPE     C313     CD32A     2.07980       11.6110           0  -1.66000       1.30000    
     17639 MEMB     97       POPE     DC313    DRUD     -2.23580      0.400000           0   0.00000       0.00000    
     17640 MEMB     97       POPE     H13X     HDA2A    0.780000E-01   1.00800           0   0.00000       0.00000    
     17641 MEMB     97       POPE     H13Y     HDA2A    0.780000E-01   1.00800           0   0.00000       0.00000    
     17642 MEMB     97       POPE     C314     CD32A     2.07980       11.6110           0  -1.66000       1.30000    
     17643 MEMB     97       POPE     DC314    DRUD     -2.23580      0.400000           0   0.00000       0.00000    
     17644 MEMB     97       POPE     H14X     HDA2A    0.780000E-01   1.00800           0   0.00000       0.00000    
     17645 MEMB     97       POPE     H14Y     HDA2A    0.780000E-01   1.00800           0   0.00000       0.00000    
     17646 MEMB     97       POPE     C315     CD32A     2.07980       11.6110           0  -1.66000       1.30000    
     17647 MEMB     97       POPE     DC315    DRUD     -2.23580      0.400000           0   0.00000       0.00000    
     17648 MEMB     97       POPE     H15X     HDA2A    0.780000E-01   1.00800           0   0.00000       0.00000    
     17649 MEMB     97       POPE     H15Y     HDA2A    0.780000E-01   1.00800           0   0.00000       0.00000    
     17650 MEMB     97       POPE     C316     CD33A     2.30820       11.6110           0  -2.05100       1.30000    
     17651 MEMB     97       POPE     DC316    DRUD     -2.48520      0.400000           0   0.00000       0.00000    
     17652 MEMB     97       POPE     H16X     HDA3A    0.590000E-01   1.00800           0   0.00000       0.00000    
     17653 MEMB     97       POPE     H16Y     HDA3A    0.590000E-01   1.00800           0   0.00000       0.00000    
     17654 MEMB     97       POPE     H16Z     HDA3A    0.590000E-01   1.00800           0   0.00000       0.00000    
     17655 MEMB     98       POPE     N        ND3P3A    1.62810       13.6070           0  -1.29800      0.895000    
     17656 MEMB     98       POPE     DN       DRUD     -1.97710      0.400000           0   0.00000       0.00000    
     17657 MEMB     98       POPE     HN1      HDP1B    0.340000       1.00800           0   0.00000       0.00000    
     17658 MEMB     98       POPE     HN2      HDP1B    0.340000       1.00800           0   0.00000       0.00000    
     17659 MEMB     98       POPE     HN3      HDP1B    0.340000       1.00800           0   0.00000       0.00000    
     17660 MEMB     98       POPE     C12      CD32A     2.27610       11.6110           0  -1.65600      0.895000    
     17661 MEMB     98       POPE     DC12     DRUD     -2.23310      0.400000           0   0.00000       0.00000    
     17662 MEMB     98       POPE     H12A     HDA2A    0.143000       1.00800           0   0.00000       0.00000    
     17663 MEMB     98       POPE     H12B     HDA2A    0.143000       1.00800           0   0.00000       0.00000    
     17664 MEMB     98       POPE     C11      CD32A     2.42220       11.6110           0  -1.64200      0.862000    
     17665 MEMB     98       POPE     DC11     DRUD     -2.22370      0.400000           0   0.00000       0.00000    
     17666 MEMB     98       POPE     H11A     HDA2A    0.260000E-01   1.00800           0   0.00000       0.00000    
     17667 MEMB     98       POPE     H11B     HDA2A    0.260000E-01   1.00800           0   0.00000       0.00000    
     17668 MEMB     98       POPE     P        PD1A      2.90360       30.5740           0 -0.974000       2.09800    
     17669 MEMB     98       POPE     DP       DRUD     -1.71260      0.400000           0   0.00000       0.00000    
     17670 MEMB     98       POPE     O13      OD2C2B   0.798400       15.5994           0 -0.931000       1.08300    
     17671 MEMB     98       POPE     DO13     DRUD     -1.67440      0.400000           0   0.00000       0.00000    
     17672 MEMB     98       POPE     O14      OD2C2B   0.798400       15.5994           0 -0.931000       1.08300    
     17673 MEMB     98       POPE     DO14     DRUD     -1.67440      0.400000           0   0.00000       0.00000    
     17674 MEMB     98       POPE     O11      OD30B     1.17720       15.5994           0 -0.901000      0.181000    
     17675 MEMB     98       POPE     DO11     DRUD     -1.64720      0.400000           0   0.00000       0.00000    
     17676 MEMB     98       POPE     O12      OD30B     1.17720       15.5994           0 -0.901000      0.181000    
     17677 MEMB     98       POPE     DO12     DRUD     -1.64720      0.400000           0   0.00000       0.00000    
     17678 MEMB     98       POPE     C1       CD32A     2.42220       11.6110           0  -1.64200      0.862000    
     17679 MEMB     98       POPE     DC1      DRUD     -2.22370      0.400000           0   0.00000       0.00000    
     17680 MEMB     98       POPE     HA       HDA2A    0.260000E-01   1.00800           0   0.00000       0.00000    
     17681 MEMB     98       POPE     HB       HDA2A    0.260000E-01   1.00800           0   0.00000       0.00000    
     17682 MEMB     98       POPE     C2       CD31C     2.52830       11.6110           0  -1.79700      0.410000    
     17683 MEMB     98       POPE     DC2      DRUD     -2.32630      0.400000           0   0.00000       0.00000    
     17684 MEMB     98       POPE     HS       HDA1A    0.116000       1.00800           0   0.00000       0.00000    
     17685 MEMB     98       POPE     O21      OD30CL    1.48470       15.5994           0 -0.732000      0.601000    
     17686 MEMB     98       POPE     DO21     DRUD     -1.48470      0.400000           0   0.00000       0.00000    
     17687 MEMB     98       POPE     C21      CD2O3B    2.72820       11.6110           0  -1.37000       1.74700    
     17688 MEMB     98       POPE     DC21     DRUD     -2.03120      0.400000           0   0.00000       0.00000    
     17689 MEMB     98       POPE     O22      OD2C3B    1.64990       15.5994           0 -0.904000      0.565000    
     17690 MEMB     98       POPE     DO22     DRUD     -1.64990      0.400000           0   0.00000       0.00000    
     17691 MEMB     98       POPE     C22      CD32C     2.24380       11.6110           0  -1.99300      0.410000    
     17692 MEMB     98       POPE     DC22     DRUD     -2.44980      0.400000           0   0.00000       0.00000    
     17693 MEMB     98       POPE     H2R      HDA2A    0.690000E-01   1.00800           0   0.00000       0.00000    
     17694 MEMB     98       POPE     H2S      HDA2A    0.690000E-01   1.00800           0   0.00000       0.00000    
     17695 MEMB     98       POPE     LP1A     LPD     -0.349000       0.00000          -1   0.00000       0.00000    
     17696 MEMB     98       POPE     LP1B     LPD     -0.258000       0.00000          -1   0.00000       0.00000    
     17697 MEMB     98       POPE     LPMA     LPD     -0.170000       0.00000          -1   0.00000       0.00000    
     17698 MEMB     98       POPE     LPMB     LPD     -0.170000       0.00000          -1   0.00000       0.00000    
     17699 MEMB     98       POPE     C3       CD32C     2.41230       11.6110           0  -1.79700      0.410000    
     17700 MEMB     98       POPE     DC3      DRUD     -2.32630      0.400000           0   0.00000       0.00000    
     17701 MEMB     98       POPE     HX       HDA2A    0.116000       1.00800           0   0.00000       0.00000    
     17702 MEMB     98       POPE     HY       HDA2A    0.116000       1.00800           0   0.00000       0.00000    
     17703 MEMB     98       POPE     O31      OD30CL    1.48470       15.5994           0 -0.732000      0.601000    
     17704 MEMB     98       POPE     DO31     DRUD     -1.48470      0.400000           0   0.00000       0.00000    
     17705 MEMB     98       POPE     C31      CD2O3B    2.72820       11.6110           0  -1.37000       1.74700    
     17706 MEMB     98       POPE     DC31     DRUD     -2.03120      0.400000           0   0.00000       0.00000    
     17707 MEMB     98       POPE     O32      OD2C3B    1.64990       15.5994           0 -0.904000      0.565000    
     17708 MEMB     98       POPE     DO32     DRUD     -1.64990      0.400000           0   0.00000       0.00000    
     17709 MEMB     98       POPE     C32      CD32C     2.24380       11.6110           0  -1.99300      0.410000    
     17710 MEMB     98       POPE     DC32     DRUD     -2.44980      0.400000           0   0.00000       0.00000    
     17711 MEMB     98       POPE     H2X      HDA2A    0.690000E-01   1.00800           0   0.00000       0.00000    
     17712 MEMB     98       POPE     H2Y      HDA2A    0.690000E-01   1.00800           0   0.00000       0.00000    
     17713 MEMB     98       POPE     LP1C     LPD     -0.349000       0.00000          -1   0.00000       0.00000    
     17714 MEMB     98       POPE     LP1D     LPD     -0.258000       0.00000          -1   0.00000       0.00000    
     17715 MEMB     98       POPE     LPMC     LPD     -0.170000       0.00000          -1   0.00000       0.00000    
     17716 MEMB     98       POPE     LPMD     LPD     -0.170000       0.00000          -1   0.00000       0.00000    
     17717 MEMB     98       POPE     C23      CD32A     2.07980       11.6110           0  -1.66000       1.30000    
     17718 MEMB     98       POPE     DC23     DRUD     -2.23580      0.400000           0   0.00000       0.00000    
     17719 MEMB     98       POPE     H3R      HDA2A    0.780000E-01   1.00800           0   0.00000       0.00000    
     17720 MEMB     98       POPE     H3S      HDA2A    0.780000E-01   1.00800           0   0.00000       0.00000    
     17721 MEMB     98       POPE     C24      CD32A     2.07980       11.6110           0  -1.66000       1.30000    
     17722 MEMB     98       POPE     DC24     DRUD     -2.23580      0.400000           0   0.00000       0.00000    
     17723 MEMB     98       POPE     H4R      HDA2A    0.780000E-01   1.00800           0   0.00000       0.00000    
     17724 MEMB     98       POPE     H4S      HDA2A    0.780000E-01   1.00800           0   0.00000       0.00000    
     17725 MEMB     98       POPE     C25      CD32A     2.07980       11.6110           0  -1.66000       1.30000    
     17726 MEMB     98       POPE     DC25     DRUD     -2.23580      0.400000           0   0.00000       0.00000    
     17727 MEMB     98       POPE     H5R      HDA2A    0.780000E-01   1.00800           0   0.00000       0.00000    
     17728 MEMB     98       POPE     H5S      HDA2A    0.780000E-01   1.00800           0   0.00000       0.00000    
     17729 MEMB     98       POPE     C26      CD32A     2.07980       11.6110           0  -1.66000       1.30000    
     17730 MEMB     98       POPE     DC26     DRUD     -2.23580      0.400000           0   0.00000       0.00000    
     17731 MEMB     98       POPE     H6R      HDA2A    0.780000E-01   1.00800           0   0.00000       0.00000    
     17732 MEMB     98       POPE     H6S      HDA2A    0.780000E-01   1.00800           0   0.00000       0.00000    
     17733 MEMB     98       POPE     C27      CD32A     2.07980       11.6110           0  -1.66000       1.30000    
     17734 MEMB     98       POPE     DC27     DRUD     -2.23580      0.400000           0   0.00000       0.00000    
     17735 MEMB     98       POPE     H7R      HDA2A    0.780000E-01   1.00800           0   0.00000       0.00000    
     17736 MEMB     98       POPE     H7S      HDA2A    0.780000E-01   1.00800           0   0.00000       0.00000    
     17737 MEMB     98       POPE     C28      CD32A     2.07980       11.6110           0  -1.66000       1.30000    
     17738 MEMB     98       POPE     DC28     DRUD     -2.23580      0.400000           0   0.00000       0.00000    
     17739 MEMB     98       POPE     H8R      HDA2A    0.780000E-01   1.00800           0   0.00000       0.00000    
     17740 MEMB     98       POPE     H8S      HDA2A    0.780000E-01   1.00800           0   0.00000       0.00000    
     17741 MEMB     98       POPE     C29      CD2C1A    2.33700       11.6110           0  -1.99000      0.750000    
     17742 MEMB     98       POPE     DC29     DRUD     -2.44800      0.400000           0   0.00000       0.00000    
     17743 MEMB     98       POPE     H91      HD2C1A   0.111000       1.00800           0   0.00000       0.00000    
     17744 MEMB     98       POPE     C210     CD2C1A    2.33700       11.6110           0  -1.99000      0.750000    
     17745 MEMB     98       POPE     DC210    DRUD     -2.44800      0.400000           0   0.00000       0.00000    
     17746 MEMB     98       POPE     H101     HD2C1A   0.111000       1.00800           0   0.00000       0.00000    
     17747 MEMB     98       POPE     C211     CD32A     2.07980       11.6110           0  -1.66000       1.30000    
     17748 MEMB     98       POPE     DC211    DRUD     -2.23580      0.400000           0   0.00000       0.00000    
     17749 MEMB     98       POPE     H11R     HDA2A    0.780000E-01   1.00800           0   0.00000       0.00000    
     17750 MEMB     98       POPE     H11S     HDA2A    0.780000E-01   1.00800           0   0.00000       0.00000    
     17751 MEMB     98       POPE     C212     CD32A     2.07980       11.6110           0  -1.66000       1.30000    
     17752 MEMB     98       POPE     DC212    DRUD     -2.23580      0.400000           0   0.00000       0.00000    
     17753 MEMB     98       POPE     H12R     HDA2A    0.780000E-01   1.00800           0   0.00000       0.00000    
     17754 MEMB     98       POPE     H12S     HDA2A    0.780000E-01   1.00800           0   0.00000       0.00000    
     17755 MEMB     98       POPE     C213     CD32A     2.07980       11.6110           0  -1.66000       1.30000    
     17756 MEMB     98       POPE     DC213    DRUD     -2.23580      0.400000           0   0.00000       0.00000    
     17757 MEMB     98       POPE     H13R     HDA2A    0.780000E-01   1.00800           0   0.00000       0.00000    
     17758 MEMB     98       POPE     H13S     HDA2A    0.780000E-01   1.00800           0   0.00000       0.00000    
     17759 MEMB     98       POPE     C214     CD32A     2.07980       11.6110           0  -1.66000       1.30000    
     17760 MEMB     98       POPE     DC214    DRUD     -2.23580      0.400000           0   0.00000       0.00000    
     17761 MEMB     98       POPE     H14R     HDA2A    0.780000E-01   1.00800           0   0.00000       0.00000    
     17762 MEMB     98       POPE     H14S     HDA2A    0.780000E-01   1.00800           0   0.00000       0.00000    
     17763 MEMB     98       POPE     C215     CD32A     2.07980       11.6110           0  -1.66000       1.30000    
     17764 MEMB     98       POPE     DC215    DRUD     -2.23580      0.400000           0   0.00000       0.00000    
     17765 MEMB     98       POPE     H15R     HDA2A    0.780000E-01   1.00800           0   0.00000       0.00000    
     17766 MEMB     98       POPE     H15S     HDA2A    0.780000E-01   1.00800           0   0.00000       0.00000    
     17767 MEMB     98       POPE     C216     CD32A     2.07980       11.6110           0  -1.66000       1.30000    
     17768 MEMB     98       POPE     DC216    DRUD     -2.23580      0.400000           0   0.00000       0.00000    
     17769 MEMB     98       POPE     H16R     HDA2A    0.780000E-01   1.00800           0   0.00000       0.00000    
     17770 MEMB     98       POPE     H16S     HDA2A    0.780000E-01   1.00800           0   0.00000       0.00000    
     17771 MEMB     98       POPE     C217     CD32A     2.07980       11.6110           0  -1.66000       1.30000    
     17772 MEMB     98       POPE     DC217    DRUD     -2.23580      0.400000           0   0.00000       0.00000    
     17773 MEMB     98       POPE     H17R     HDA2A    0.780000E-01   1.00800           0   0.00000       0.00000    
     17774 MEMB     98       POPE     H17S     HDA2A    0.780000E-01   1.00800           0   0.00000       0.00000    
     17775 MEMB     98       POPE     C218     CD33A     2.30820       11.6110           0  -2.05100       1.30000    
     17776 MEMB     98       POPE     DC218    DRUD     -2.48520      0.400000           0   0.00000       0.00000    
     17777 MEMB     98       POPE     H18R     HDA3A    0.590000E-01   1.00800           0   0.00000       0.00000    
     17778 MEMB     98       POPE     H18S     HDA3A    0.590000E-01   1.00800           0   0.00000       0.00000    
     17779 MEMB     98       POPE     H18T     HDA3A    0.590000E-01   1.00800           0   0.00000       0.00000    
     17780 MEMB     98       POPE     C33      CD32A     2.07980       11.6110           0  -1.66000       1.30000    
     17781 MEMB     98       POPE     DC33     DRUD     -2.23580      0.400000           0   0.00000       0.00000    
     17782 MEMB     98       POPE     H3X      HDA2A    0.780000E-01   1.00800           0   0.00000       0.00000    
     17783 MEMB     98       POPE     H3Y      HDA2A    0.780000E-01   1.00800           0   0.00000       0.00000    
     17784 MEMB     98       POPE     C34      CD32A     2.07980       11.6110           0  -1.66000       1.30000    
     17785 MEMB     98       POPE     DC34     DRUD     -2.23580      0.400000           0   0.00000       0.00000    
     17786 MEMB     98       POPE     H4X      HDA2A    0.780000E-01   1.00800           0   0.00000       0.00000    
     17787 MEMB     98       POPE     H4Y      HDA2A    0.780000E-01   1.00800           0   0.00000       0.00000    
     17788 MEMB     98       POPE     C35      CD32A     2.07980       11.6110           0  -1.66000       1.30000    
     17789 MEMB     98       POPE     DC35     DRUD     -2.23580      0.400000           0   0.00000       0.00000    
     17790 MEMB     98       POPE     H5X      HDA2A    0.780000E-01   1.00800           0   0.00000       0.00000    
     17791 MEMB     98       POPE     H5Y      HDA2A    0.780000E-01   1.00800           0   0.00000       0.00000    
     17792 MEMB     98       POPE     C36      CD32A     2.07980       11.6110           0  -1.66000       1.30000    
     17793 MEMB     98       POPE     DC36     DRUD     -2.23580      0.400000           0   0.00000       0.00000    
     17794 MEMB     98       POPE     H6X      HDA2A    0.780000E-01   1.00800           0   0.00000       0.00000    
     17795 MEMB     98       POPE     H6Y      HDA2A    0.780000E-01   1.00800           0   0.00000       0.00000    
     17796 MEMB     98       POPE     C37      CD32A     2.07980       11.6110           0  -1.66000       1.30000    
     17797 MEMB     98       POPE     DC37     DRUD     -2.23580      0.400000           0   0.00000       0.00000    
     17798 MEMB     98       POPE     H7X      HDA2A    0.780000E-01   1.00800           0   0.00000       0.00000    
     17799 MEMB     98       POPE     H7Y      HDA2A    0.780000E-01   1.00800           0   0.00000       0.00000    
     17800 MEMB     98       POPE     C38      CD32A     2.07980       11.6110           0  -1.66000       1.30000    
     17801 MEMB     98       POPE     DC38     DRUD     -2.23580      0.400000           0   0.00000       0.00000    
     17802 MEMB     98       POPE     H8X      HDA2A    0.780000E-01   1.00800           0   0.00000       0.00000    
     17803 MEMB     98       POPE     H8Y      HDA2A    0.780000E-01   1.00800           0   0.00000       0.00000    
     17804 MEMB     98       POPE     C39      CD32A     2.07980       11.6110           0  -1.66000       1.30000    
     17805 MEMB     98       POPE     DC39     DRUD     -2.23580      0.400000           0   0.00000       0.00000    
     17806 MEMB     98       POPE     H9X      HDA2A    0.780000E-01   1.00800           0   0.00000       0.00000    
     17807 MEMB     98       POPE     H9Y      HDA2A    0.780000E-01   1.00800           0   0.00000       0.00000    
     17808 MEMB     98       POPE     C310     CD32A     2.07980       11.6110           0  -1.66000       1.30000    
     17809 MEMB     98       POPE     DC310    DRUD     -2.23580      0.400000           0   0.00000       0.00000    
     17810 MEMB     98       POPE     H10X     HDA2A    0.780000E-01   1.00800           0   0.00000       0.00000    
     17811 MEMB     98       POPE     H10Y     HDA2A    0.780000E-01   1.00800           0   0.00000       0.00000    
     17812 MEMB     98       POPE     C311     CD32A     2.07980       11.6110           0  -1.66000       1.30000    
     17813 MEMB     98       POPE     DC311    DRUD     -2.23580      0.400000           0   0.00000       0.00000    
     17814 MEMB     98       POPE     H11X     HDA2A    0.780000E-01   1.00800           0   0.00000       0.00000    
     17815 MEMB     98       POPE     H11Y     HDA2A    0.780000E-01   1.00800           0   0.00000       0.00000    
     17816 MEMB     98       POPE     C312     CD32A     2.07980       11.6110           0  -1.66000       1.30000    
     17817 MEMB     98       POPE     DC312    DRUD     -2.23580      0.400000           0   0.00000       0.00000    
     17818 MEMB     98       POPE     H12X     HDA2A    0.780000E-01   1.00800           0   0.00000       0.00000    
     17819 MEMB     98       POPE     H12Y     HDA2A    0.780000E-01   1.00800           0   0.00000       0.00000    
     17820 MEMB     98       POPE     C313     CD32A     2.07980       11.6110           0  -1.66000       1.30000    
     17821 MEMB     98       POPE     DC313    DRUD     -2.23580      0.400000           0   0.00000       0.00000    
     17822 MEMB     98       POPE     H13X     HDA2A    0.780000E-01   1.00800           0   0.00000       0.00000    
     17823 MEMB     98       POPE     H13Y     HDA2A    0.780000E-01   1.00800           0   0.00000       0.00000    
     17824 MEMB     98       POPE     C314     CD32A     2.07980       11.6110           0  -1.66000       1.30000    
     17825 MEMB     98       POPE     DC314    DRUD     -2.23580      0.400000           0   0.00000       0.00000    
     17826 MEMB     98       POPE     H14X     HDA2A    0.780000E-01   1.00800           0   0.00000       0.00000    
     17827 MEMB     98       POPE     H14Y     HDA2A    0.780000E-01   1.00800           0   0.00000       0.00000    
     17828 MEMB     98       POPE     C315     CD32A     2.07980       11.6110           0  -1.66000       1.30000    
     17829 MEMB     98       POPE     DC315    DRUD     -2.23580      0.400000           0   0.00000       0.00000    
     17830 MEMB     98       POPE     H15X     HDA2A    0.780000E-01   1.00800           0   0.00000       0.00000    
     17831 MEMB     98       POPE     H15Y     HDA2A    0.780000E-01   1.00800           0   0.00000       0.00000    
     17832 MEMB     98       POPE     C316     CD33A     2.30820       11.6110           0  -2.05100       1.30000    
     17833 MEMB     98       POPE     DC316    DRUD     -2.48520      0.400000           0   0.00000       0.00000    
     17834 MEMB     98       POPE     H16X     HDA3A    0.590000E-01   1.00800           0   0.00000       0.00000    
     17835 MEMB     98       POPE     H16Y     HDA3A    0.590000E-01   1.00800           0   0.00000       0.00000    
     17836 MEMB     98       POPE     H16Z     HDA3A    0.590000E-01   1.00800           0   0.00000       0.00000    
     17837 MEMB     99       POPE     N        ND3P3A    1.62810       13.6070           0  -1.29800      0.895000    
     17838 MEMB     99       POPE     DN       DRUD     -1.97710      0.400000           0   0.00000       0.00000    
     17839 MEMB     99       POPE     HN1      HDP1B    0.340000       1.00800           0   0.00000       0.00000    
     17840 MEMB     99       POPE     HN2      HDP1B    0.340000       1.00800           0   0.00000       0.00000    
     17841 MEMB     99       POPE     HN3      HDP1B    0.340000       1.00800           0   0.00000       0.00000    
     17842 MEMB     99       POPE     C12      CD32A     2.27610       11.6110           0  -1.65600      0.895000    
     17843 MEMB     99       POPE     DC12     DRUD     -2.23310      0.400000           0   0.00000       0.00000    
     17844 MEMB     99       POPE     H12A     HDA2A    0.143000       1.00800           0   0.00000       0.00000    
     17845 MEMB     99       POPE     H12B     HDA2A    0.143000       1.00800           0   0.00000       0.00000    
     17846 MEMB     99       POPE     C11      CD32A     2.42220       11.6110           0  -1.64200      0.862000    
     17847 MEMB     99       POPE     DC11     DRUD     -2.22370      0.400000           0   0.00000       0.00000    
     17848 MEMB     99       POPE     H11A     HDA2A    0.260000E-01   1.00800           0   0.00000       0.00000    
     17849 MEMB     99       POPE     H11B     HDA2A    0.260000E-01   1.00800           0   0.00000       0.00000    
     17850 MEMB     99       POPE     P        PD1A      2.90360       30.5740           0 -0.974000       2.09800    
     17851 MEMB     99       POPE     DP       DRUD     -1.71260      0.400000           0   0.00000       0.00000    
     17852 MEMB     99       POPE     O13      OD2C2B   0.798400       15.5994           0 -0.931000       1.08300    
     17853 MEMB     99       POPE     DO13     DRUD     -1.67440      0.400000           0   0.00000       0.00000    
     17854 MEMB     99       POPE     O14      OD2C2B   0.798400       15.5994           0 -0.931000       1.08300    
     17855 MEMB     99       POPE     DO14     DRUD     -1.67440      0.400000           0   0.00000       0.00000    
     17856 MEMB     99       POPE     O11      OD30B     1.17720       15.5994           0 -0.901000      0.181000    
     17857 MEMB     99       POPE     DO11     DRUD     -1.64720      0.400000           0   0.00000       0.00000    
     17858 MEMB     99       POPE     O12      OD30B     1.17720       15.5994           0 -0.901000      0.181000    
     17859 MEMB     99       POPE     DO12     DRUD     -1.64720      0.400000           0   0.00000       0.00000    
     17860 MEMB     99       POPE     C1       CD32A     2.42220       11.6110           0  -1.64200      0.862000    
     17861 MEMB     99       POPE     DC1      DRUD     -2.22370      0.400000           0   0.00000       0.00000    
     17862 MEMB     99       POPE     HA       HDA2A    0.260000E-01   1.00800           0   0.00000       0.00000    
     17863 MEMB     99       POPE     HB       HDA2A    0.260000E-01   1.00800           0   0.00000       0.00000    
     17864 MEMB     99       POPE     C2       CD31C     2.52830       11.6110           0  -1.79700      0.410000    
     17865 MEMB     99       POPE     DC2      DRUD     -2.32630      0.400000           0   0.00000       0.00000    
     17866 MEMB     99       POPE     HS       HDA1A    0.116000       1.00800           0   0.00000       0.00000    
     17867 MEMB     99       POPE     O21      OD30CL    1.48470       15.5994           0 -0.732000      0.601000    
     17868 MEMB     99       POPE     DO21     DRUD     -1.48470      0.400000           0   0.00000       0.00000    
     17869 MEMB     99       POPE     C21      CD2O3B    2.72820       11.6110           0  -1.37000       1.74700    
     17870 MEMB     99       POPE     DC21     DRUD     -2.03120      0.400000           0   0.00000       0.00000    
     17871 MEMB     99       POPE     O22      OD2C3B    1.64990       15.5994           0 -0.904000      0.565000    
     17872 MEMB     99       POPE     DO22     DRUD     -1.64990      0.400000           0   0.00000       0.00000    
     17873 MEMB     99       POPE     C22      CD32C     2.24380       11.6110           0  -1.99300      0.410000    
     17874 MEMB     99       POPE     DC22     DRUD     -2.44980      0.400000           0   0.00000       0.00000    
     17875 MEMB     99       POPE     H2R      HDA2A    0.690000E-01   1.00800           0   0.00000       0.00000    
     17876 MEMB     99       POPE     H2S      HDA2A    0.690000E-01   1.00800           0   0.00000       0.00000    
     17877 MEMB     99       POPE     LP1A     LPD     -0.349000       0.00000          -1   0.00000       0.00000    
     17878 MEMB     99       POPE     LP1B     LPD     -0.258000       0.00000          -1   0.00000       0.00000    
     17879 MEMB     99       POPE     LPMA     LPD     -0.170000       0.00000          -1   0.00000       0.00000    
     17880 MEMB     99       POPE     LPMB     LPD     -0.170000       0.00000          -1   0.00000       0.00000    
     17881 MEMB     99       POPE     C3       CD32C     2.41230       11.6110           0  -1.79700      0.410000    
     17882 MEMB     99       POPE     DC3      DRUD     -2.32630      0.400000           0   0.00000       0.00000    
     17883 MEMB     99       POPE     HX       HDA2A    0.116000       1.00800           0   0.00000       0.00000    
     17884 MEMB     99       POPE     HY       HDA2A    0.116000       1.00800           0   0.00000       0.00000    
     17885 MEMB     99       POPE     O31      OD30CL    1.48470       15.5994           0 -0.732000      0.601000    
     17886 MEMB     99       POPE     DO31     DRUD     -1.48470      0.400000           0   0.00000       0.00000    
     17887 MEMB     99       POPE     C31      CD2O3B    2.72820       11.6110           0  -1.37000       1.74700    
     17888 MEMB     99       POPE     DC31     DRUD     -2.03120      0.400000           0   0.00000       0.00000    
     17889 MEMB     99       POPE     O32      OD2C3B    1.64990       15.5994           0 -0.904000      0.565000    
     17890 MEMB     99       POPE     DO32     DRUD     -1.64990      0.400000           0   0.00000       0.00000    
     17891 MEMB     99       POPE     C32      CD32C     2.24380       11.6110           0  -1.99300      0.410000    
     17892 MEMB     99       POPE     DC32     DRUD     -2.44980      0.400000           0   0.00000       0.00000    
     17893 MEMB     99       POPE     H2X      HDA2A    0.690000E-01   1.00800           0   0.00000       0.00000    
     17894 MEMB     99       POPE     H2Y      HDA2A    0.690000E-01   1.00800           0   0.00000       0.00000    
     17895 MEMB     99       POPE     LP1C     LPD     -0.349000       0.00000          -1   0.00000       0.00000    
     17896 MEMB     99       POPE     LP1D     LPD     -0.258000       0.00000          -1   0.00000       0.00000    
     17897 MEMB     99       POPE     LPMC     LPD     -0.170000       0.00000          -1   0.00000       0.00000    
     17898 MEMB     99       POPE     LPMD     LPD     -0.170000       0.00000          -1   0.00000       0.00000    
     17899 MEMB     99       POPE     C23      CD32A     2.07980       11.6110           0  -1.66000       1.30000    
     17900 MEMB     99       POPE     DC23     DRUD     -2.23580      0.400000           0   0.00000       0.00000    
     17901 MEMB     99       POPE     H3R      HDA2A    0.780000E-01   1.00800           0   0.00000       0.00000    
     17902 MEMB     99       POPE     H3S      HDA2A    0.780000E-01   1.00800           0   0.00000       0.00000    
     17903 MEMB     99       POPE     C24      CD32A     2.07980       11.6110           0  -1.66000       1.30000    
     17904 MEMB     99       POPE     DC24     DRUD     -2.23580      0.400000           0   0.00000       0.00000    
     17905 MEMB     99       POPE     H4R      HDA2A    0.780000E-01   1.00800           0   0.00000       0.00000    
     17906 MEMB     99       POPE     H4S      HDA2A    0.780000E-01   1.00800           0   0.00000       0.00000    
     17907 MEMB     99       POPE     C25      CD32A     2.07980       11.6110           0  -1.66000       1.30000    
     17908 MEMB     99       POPE     DC25     DRUD     -2.23580      0.400000           0   0.00000       0.00000    
     17909 MEMB     99       POPE     H5R      HDA2A    0.780000E-01   1.00800           0   0.00000       0.00000    
     17910 MEMB     99       POPE     H5S      HDA2A    0.780000E-01   1.00800           0   0.00000       0.00000    
     17911 MEMB     99       POPE     C26      CD32A     2.07980       11.6110           0  -1.66000       1.30000    
     17912 MEMB     99       POPE     DC26     DRUD     -2.23580      0.400000           0   0.00000       0.00000    
     17913 MEMB     99       POPE     H6R      HDA2A    0.780000E-01   1.00800           0   0.00000       0.00000    
     17914 MEMB     99       POPE     H6S      HDA2A    0.780000E-01   1.00800           0   0.00000       0.00000    
     17915 MEMB     99       POPE     C27      CD32A     2.07980       11.6110           0  -1.66000       1.30000    
     17916 MEMB     99       POPE     DC27     DRUD     -2.23580      0.400000           0   0.00000       0.00000    
     17917 MEMB     99       POPE     H7R      HDA2A    0.780000E-01   1.00800           0   0.00000       0.00000    
     17918 MEMB     99       POPE     H7S      HDA2A    0.780000E-01   1.00800           0   0.00000       0.00000    
     17919 MEMB     99       POPE     C28      CD32A     2.07980       11.6110           0  -1.66000       1.30000    
     17920 MEMB     99       POPE     DC28     DRUD     -2.23580      0.400000           0   0.00000       0.00000    
     17921 MEMB     99       POPE     H8R      HDA2A    0.780000E-01   1.00800           0   0.00000       0.00000    
     17922 MEMB     99       POPE     H8S      HDA2A    0.780000E-01   1.00800           0   0.00000       0.00000    
     17923 MEMB     99       POPE     C29      CD2C1A    2.33700       11.6110           0  -1.99000      0.750000    
     17924 MEMB     99       POPE     DC29     DRUD     -2.44800      0.400000           0   0.00000       0.00000    
     17925 MEMB     99       POPE     H91      HD2C1A   0.111000       1.00800           0   0.00000       0.00000    
     17926 MEMB     99       POPE     C210     CD2C1A    2.33700       11.6110           0  -1.99000      0.750000    
     17927 MEMB     99       POPE     DC210    DRUD     -2.44800      0.400000           0   0.00000       0.00000    
     17928 MEMB     99       POPE     H101     HD2C1A   0.111000       1.00800           0   0.00000       0.00000    
     17929 MEMB     99       POPE     C211     CD32A     2.07980       11.6110           0  -1.66000       1.30000    
     17930 MEMB     99       POPE     DC211    DRUD     -2.23580      0.400000           0   0.00000       0.00000    
     17931 MEMB     99       POPE     H11R     HDA2A    0.780000E-01   1.00800           0   0.00000       0.00000    
     17932 MEMB     99       POPE     H11S     HDA2A    0.780000E-01   1.00800           0   0.00000       0.00000    
     17933 MEMB     99       POPE     C212     CD32A     2.07980       11.6110           0  -1.66000       1.30000    
     17934 MEMB     99       POPE     DC212    DRUD     -2.23580      0.400000           0   0.00000       0.00000    
     17935 MEMB     99       POPE     H12R     HDA2A    0.780000E-01   1.00800           0   0.00000       0.00000    
     17936 MEMB     99       POPE     H12S     HDA2A    0.780000E-01   1.00800           0   0.00000       0.00000    
     17937 MEMB     99       POPE     C213     CD32A     2.07980       11.6110           0  -1.66000       1.30000    
     17938 MEMB     99       POPE     DC213    DRUD     -2.23580      0.400000           0   0.00000       0.00000    
     17939 MEMB     99       POPE     H13R     HDA2A    0.780000E-01   1.00800           0   0.00000       0.00000    
     17940 MEMB     99       POPE     H13S     HDA2A    0.780000E-01   1.00800           0   0.00000       0.00000    
     17941 MEMB     99       POPE     C214     CD32A     2.07980       11.6110           0  -1.66000       1.30000    
     17942 MEMB     99       POPE     DC214    DRUD     -2.23580      0.400000           0   0.00000       0.00000    
     17943 MEMB     99       POPE     H14R     HDA2A    0.780000E-01   1.00800           0   0.00000       0.00000    
     17944 MEMB     99       POPE     H14S     HDA2A    0.780000E-01   1.00800           0   0.00000       0.00000    
     17945 MEMB     99       POPE     C215     CD32A     2.07980       11.6110           0  -1.66000       1.30000    
     17946 MEMB     99       POPE     DC215    DRUD     -2.23580      0.400000           0   0.00000       0.00000    
     17947 MEMB     99       POPE     H15R     HDA2A    0.780000E-01   1.00800           0   0.00000       0.00000    
     17948 MEMB     99       POPE     H15S     HDA2A    0.780000E-01   1.00800           0   0.00000       0.00000    
     17949 MEMB     99       POPE     C216     CD32A     2.07980       11.6110           0  -1.66000       1.30000    
     17950 MEMB     99       POPE     DC216    DRUD     -2.23580      0.400000           0   0.00000       0.00000    
     17951 MEMB     99       POPE     H16R     HDA2A    0.780000E-01   1.00800           0   0.00000       0.00000    
     17952 MEMB     99       POPE     H16S     HDA2A    0.780000E-01   1.00800           0   0.00000       0.00000    
     17953 MEMB     99       POPE     C217     CD32A     2.07980       11.6110           0  -1.66000       1.30000    
     17954 MEMB     99       POPE     DC217    DRUD     -2.23580      0.400000           0   0.00000       0.00000    
     17955 MEMB     99       POPE     H17R     HDA2A    0.780000E-01   1.00800           0   0.00000       0.00000    
     17956 MEMB     99       POPE     H17S     HDA2A    0.780000E-01   1.00800           0   0.00000       0.00000    
     17957 MEMB     99       POPE     C218     CD33A     2.30820       11.6110           0  -2.05100       1.30000    
     17958 MEMB     99       POPE     DC218    DRUD     -2.48520      0.400000           0   0.00000       0.00000    
     17959 MEMB     99       POPE     H18R     HDA3A    0.590000E-01   1.00800           0   0.00000       0.00000    
     17960 MEMB     99       POPE     H18S     HDA3A    0.590000E-01   1.00800           0   0.00000       0.00000    
     17961 MEMB     99       POPE     H18T     HDA3A    0.590000E-01   1.00800           0   0.00000       0.00000    
     17962 MEMB     99       POPE     C33      CD32A     2.07980       11.6110           0  -1.66000       1.30000    
     17963 MEMB     99       POPE     DC33     DRUD     -2.23580      0.400000           0   0.00000       0.00000    
     17964 MEMB     99       POPE     H3X      HDA2A    0.780000E-01   1.00800           0   0.00000       0.00000    
     17965 MEMB     99       POPE     H3Y      HDA2A    0.780000E-01   1.00800           0   0.00000       0.00000    
     17966 MEMB     99       POPE     C34      CD32A     2.07980       11.6110           0  -1.66000       1.30000    
     17967 MEMB     99       POPE     DC34     DRUD     -2.23580      0.400000           0   0.00000       0.00000    
     17968 MEMB     99       POPE     H4X      HDA2A    0.780000E-01   1.00800           0   0.00000       0.00000    
     17969 MEMB     99       POPE     H4Y      HDA2A    0.780000E-01   1.00800           0   0.00000       0.00000    
     17970 MEMB     99       POPE     C35      CD32A     2.07980       11.6110           0  -1.66000       1.30000    
     17971 MEMB     99       POPE     DC35     DRUD     -2.23580      0.400000           0   0.00000       0.00000    
     17972 MEMB     99       POPE     H5X      HDA2A    0.780000E-01   1.00800           0   0.00000       0.00000    
     17973 MEMB     99       POPE     H5Y      HDA2A    0.780000E-01   1.00800           0   0.00000       0.00000    
     17974 MEMB     99       POPE     C36      CD32A     2.07980       11.6110           0  -1.66000       1.30000    
     17975 MEMB     99       POPE     DC36     DRUD     -2.23580      0.400000           0   0.00000       0.00000    
     17976 MEMB     99       POPE     H6X      HDA2A    0.780000E-01   1.00800           0   0.00000       0.00000    
     17977 MEMB     99       POPE     H6Y      HDA2A    0.780000E-01   1.00800           0   0.00000       0.00000    
     17978 MEMB     99       POPE     C37      CD32A     2.07980       11.6110           0  -1.66000       1.30000    
     17979 MEMB     99       POPE     DC37     DRUD     -2.23580      0.400000           0   0.00000       0.00000    
     17980 MEMB     99       POPE     H7X      HDA2A    0.780000E-01   1.00800           0   0.00000       0.00000    
     17981 MEMB     99       POPE     H7Y      HDA2A    0.780000E-01   1.00800           0   0.00000       0.00000    
     17982 MEMB     99       POPE     C38      CD32A     2.07980       11.6110           0  -1.66000       1.30000    
     17983 MEMB     99       POPE     DC38     DRUD     -2.23580      0.400000           0   0.00000       0.00000    
     17984 MEMB     99       POPE     H8X      HDA2A    0.780000E-01   1.00800           0   0.00000       0.00000    
     17985 MEMB     99       POPE     H8Y      HDA2A    0.780000E-01   1.00800           0   0.00000       0.00000    
     17986 MEMB     99       POPE     C39      CD32A     2.07980       11.6110           0  -1.66000       1.30000    
     17987 MEMB     99       POPE     DC39     DRUD     -2.23580      0.400000           0   0.00000       0.00000    
     17988 MEMB     99       POPE     H9X      HDA2A    0.780000E-01   1.00800           0   0.00000       0.00000    
     17989 MEMB     99       POPE     H9Y      HDA2A    0.780000E-01   1.00800           0   0.00000       0.00000    
     17990 MEMB     99       POPE     C310     CD32A     2.07980       11.6110           0  -1.66000       1.30000    
     17991 MEMB     99       POPE     DC310    DRUD     -2.23580      0.400000           0   0.00000       0.00000    
     17992 MEMB     99       POPE     H10X     HDA2A    0.780000E-01   1.00800           0   0.00000       0.00000    
     17993 MEMB     99       POPE     H10Y     HDA2A    0.780000E-01   1.00800           0   0.00000       0.00000    
     17994 MEMB     99       POPE     C311     CD32A     2.07980       11.6110           0  -1.66000       1.30000    
     17995 MEMB     99       POPE     DC311    DRUD     -2.23580      0.400000           0   0.00000       0.00000    
     17996 MEMB     99       POPE     H11X     HDA2A    0.780000E-01   1.00800           0   0.00000       0.00000    
     17997 MEMB     99       POPE     H11Y     HDA2A    0.780000E-01   1.00800           0   0.00000       0.00000    
     17998 MEMB     99       POPE     C312     CD32A     2.07980       11.6110           0  -1.66000       1.30000    
     17999 MEMB     99       POPE     DC312    DRUD     -2.23580      0.400000           0   0.00000       0.00000    
     18000 MEMB     99       POPE     H12X     HDA2A    0.780000E-01   1.00800           0   0.00000       0.00000    
     18001 MEMB     99       POPE     H12Y     HDA2A    0.780000E-01   1.00800           0   0.00000       0.00000    
     18002 MEMB     99       POPE     C313     CD32A     2.07980       11.6110           0  -1.66000       1.30000    
     18003 MEMB     99       POPE     DC313    DRUD     -2.23580      0.400000           0   0.00000       0.00000    
     18004 MEMB     99       POPE     H13X     HDA2A    0.780000E-01   1.00800           0   0.00000       0.00000    
     18005 MEMB     99       POPE     H13Y     HDA2A    0.780000E-01   1.00800           0   0.00000       0.00000    
     18006 MEMB     99       POPE     C314     CD32A     2.07980       11.6110           0  -1.66000       1.30000    
     18007 MEMB     99       POPE     DC314    DRUD     -2.23580      0.400000           0   0.00000       0.00000    
     18008 MEMB     99       POPE     H14X     HDA2A    0.780000E-01   1.00800           0   0.00000       0.00000    
     18009 MEMB     99       POPE     H14Y     HDA2A    0.780000E-01   1.00800           0   0.00000       0.00000    
     18010 MEMB     99       POPE     C315     CD32A     2.07980       11.6110           0  -1.66000       1.30000    
     18011 MEMB     99       POPE     DC315    DRUD     -2.23580      0.400000           0   0.00000       0.00000    
     18012 MEMB     99       POPE     H15X     HDA2A    0.780000E-01   1.00800           0   0.00000       0.00000    
     18013 MEMB     99       POPE     H15Y     HDA2A    0.780000E-01   1.00800           0   0.00000       0.00000    
     18014 MEMB     99       POPE     C316     CD33A     2.30820       11.6110           0  -2.05100       1.30000    
     18015 MEMB     99       POPE     DC316    DRUD     -2.48520      0.400000           0   0.00000       0.00000    
     18016 MEMB     99       POPE     H16X     HDA3A    0.590000E-01   1.00800           0   0.00000       0.00000    
     18017 MEMB     99       POPE     H16Y     HDA3A    0.590000E-01   1.00800           0   0.00000       0.00000    
     18018 MEMB     99       POPE     H16Z     HDA3A    0.590000E-01   1.00800           0   0.00000       0.00000    
     18019 MEMB     100      POPE     N        ND3P3A    1.62810       13.6070           0  -1.29800      0.895000    
     18020 MEMB     100      POPE     DN       DRUD     -1.97710      0.400000           0   0.00000       0.00000    
     18021 MEMB     100      POPE     HN1      HDP1B    0.340000       1.00800           0   0.00000       0.00000    
     18022 MEMB     100      POPE     HN2      HDP1B    0.340000       1.00800           0   0.00000       0.00000    
     18023 MEMB     100      POPE     HN3      HDP1B    0.340000       1.00800           0   0.00000       0.00000    
     18024 MEMB     100      POPE     C12      CD32A     2.27610       11.6110           0  -1.65600      0.895000    
     18025 MEMB     100      POPE     DC12     DRUD     -2.23310      0.400000           0   0.00000       0.00000    
     18026 MEMB     100      POPE     H12A     HDA2A    0.143000       1.00800           0   0.00000       0.00000    
     18027 MEMB     100      POPE     H12B     HDA2A    0.143000       1.00800           0   0.00000       0.00000    
     18028 MEMB     100      POPE     C11      CD32A     2.42220       11.6110           0  -1.64200      0.862000    
     18029 MEMB     100      POPE     DC11     DRUD     -2.22370      0.400000           0   0.00000       0.00000    
     18030 MEMB     100      POPE     H11A     HDA2A    0.260000E-01   1.00800           0   0.00000       0.00000    
     18031 MEMB     100      POPE     H11B     HDA2A    0.260000E-01   1.00800           0   0.00000       0.00000    
     18032 MEMB     100      POPE     P        PD1A      2.90360       30.5740           0 -0.974000       2.09800    
     18033 MEMB     100      POPE     DP       DRUD     -1.71260      0.400000           0   0.00000       0.00000    
     18034 MEMB     100      POPE     O13      OD2C2B   0.798400       15.5994           0 -0.931000       1.08300    
     18035 MEMB     100      POPE     DO13     DRUD     -1.67440      0.400000           0   0.00000       0.00000    
     18036 MEMB     100      POPE     O14      OD2C2B   0.798400       15.5994           0 -0.931000       1.08300    
     18037 MEMB     100      POPE     DO14     DRUD     -1.67440      0.400000           0   0.00000       0.00000    
     18038 MEMB     100      POPE     O11      OD30B     1.17720       15.5994           0 -0.901000      0.181000    
     18039 MEMB     100      POPE     DO11     DRUD     -1.64720      0.400000           0   0.00000       0.00000    
     18040 MEMB     100      POPE     O12      OD30B     1.17720       15.5994           0 -0.901000      0.181000    
     18041 MEMB     100      POPE     DO12     DRUD     -1.64720      0.400000           0   0.00000       0.00000    
     18042 MEMB     100      POPE     C1       CD32A     2.42220       11.6110           0  -1.64200      0.862000    
     18043 MEMB     100      POPE     DC1      DRUD     -2.22370      0.400000           0   0.00000       0.00000    
     18044 MEMB     100      POPE     HA       HDA2A    0.260000E-01   1.00800           0   0.00000       0.00000    
     18045 MEMB     100      POPE     HB       HDA2A    0.260000E-01   1.00800           0   0.00000       0.00000    
     18046 MEMB     100      POPE     C2       CD31C     2.52830       11.6110           0  -1.79700      0.410000    
     18047 MEMB     100      POPE     DC2      DRUD     -2.32630      0.400000           0   0.00000       0.00000    
     18048 MEMB     100      POPE     HS       HDA1A    0.116000       1.00800           0   0.00000       0.00000    
     18049 MEMB     100      POPE     O21      OD30CL    1.48470       15.5994           0 -0.732000      0.601000    
     18050 MEMB     100      POPE     DO21     DRUD     -1.48470      0.400000           0   0.00000       0.00000    
     18051 MEMB     100      POPE     C21      CD2O3B    2.72820       11.6110           0  -1.37000       1.74700    
     18052 MEMB     100      POPE     DC21     DRUD     -2.03120      0.400000           0   0.00000       0.00000    
     18053 MEMB     100      POPE     O22      OD2C3B    1.64990       15.5994           0 -0.904000      0.565000    
     18054 MEMB     100      POPE     DO22     DRUD     -1.64990      0.400000           0   0.00000       0.00000    
     18055 MEMB     100      POPE     C22      CD32C     2.24380       11.6110           0  -1.99300      0.410000    
     18056 MEMB     100      POPE     DC22     DRUD     -2.44980      0.400000           0   0.00000       0.00000    
     18057 MEMB     100      POPE     H2R      HDA2A    0.690000E-01   1.00800           0   0.00000       0.00000    
     18058 MEMB     100      POPE     H2S      HDA2A    0.690000E-01   1.00800           0   0.00000       0.00000    
     18059 MEMB     100      POPE     LP1A     LPD     -0.349000       0.00000          -1   0.00000       0.00000    
     18060 MEMB     100      POPE     LP1B     LPD     -0.258000       0.00000          -1   0.00000       0.00000    
     18061 MEMB     100      POPE     LPMA     LPD     -0.170000       0.00000          -1   0.00000       0.00000    
     18062 MEMB     100      POPE     LPMB     LPD     -0.170000       0.00000          -1   0.00000       0.00000    
     18063 MEMB     100      POPE     C3       CD32C     2.41230       11.6110           0  -1.79700      0.410000    
     18064 MEMB     100      POPE     DC3      DRUD     -2.32630      0.400000           0   0.00000       0.00000    
     18065 MEMB     100      POPE     HX       HDA2A    0.116000       1.00800           0   0.00000       0.00000    
     18066 MEMB     100      POPE     HY       HDA2A    0.116000       1.00800           0   0.00000       0.00000    
     18067 MEMB     100      POPE     O31      OD30CL    1.48470       15.5994           0 -0.732000      0.601000    
     18068 MEMB     100      POPE     DO31     DRUD     -1.48470      0.400000           0   0.00000       0.00000    
     18069 MEMB     100      POPE     C31      CD2O3B    2.72820       11.6110           0  -1.37000       1.74700    
     18070 MEMB     100      POPE     DC31     DRUD     -2.03120      0.400000           0   0.00000       0.00000    
     18071 MEMB     100      POPE     O32      OD2C3B    1.64990       15.5994           0 -0.904000      0.565000    
     18072 MEMB     100      POPE     DO32     DRUD     -1.64990      0.400000           0   0.00000       0.00000    
     18073 MEMB     100      POPE     C32      CD32C     2.24380       11.6110           0  -1.99300      0.410000    
     18074 MEMB     100      POPE     DC32     DRUD     -2.44980      0.400000           0   0.00000       0.00000    
     18075 MEMB     100      POPE     H2X      HDA2A    0.690000E-01   1.00800           0   0.00000       0.00000    
     18076 MEMB     100      POPE     H2Y      HDA2A    0.690000E-01   1.00800           0   0.00000       0.00000    
     18077 MEMB     100      POPE     LP1C     LPD     -0.349000       0.00000          -1   0.00000       0.00000    
     18078 MEMB     100      POPE     LP1D     LPD     -0.258000       0.00000          -1   0.00000       0.00000    
     18079 MEMB     100      POPE     LPMC     LPD     -0.170000       0.00000          -1   0.00000       0.00000    
     18080 MEMB     100      POPE     LPMD     LPD     -0.170000       0.00000          -1   0.00000       0.00000    
     18081 MEMB     100      POPE     C23      CD32A     2.07980       11.6110           0  -1.66000       1.30000    
     18082 MEMB     100      POPE     DC23     DRUD     -2.23580      0.400000           0   0.00000       0.00000    
     18083 MEMB     100      POPE     H3R      HDA2A    0.780000E-01   1.00800           0   0.00000       0.00000    
     18084 MEMB     100      POPE     H3S      HDA2A    0.780000E-01   1.00800           0   0.00000       0.00000    
     18085 MEMB     100      POPE     C24      CD32A     2.07980       11.6110           0  -1.66000       1.30000    
     18086 MEMB     100      POPE     DC24     DRUD     -2.23580      0.400000           0   0.00000       0.00000    
     18087 MEMB     100      POPE     H4R      HDA2A    0.780000E-01   1.00800           0   0.00000       0.00000    
     18088 MEMB     100      POPE     H4S      HDA2A    0.780000E-01   1.00800           0   0.00000       0.00000    
     18089 MEMB     100      POPE     C25      CD32A     2.07980       11.6110           0  -1.66000       1.30000    
     18090 MEMB     100      POPE     DC25     DRUD     -2.23580      0.400000           0   0.00000       0.00000    
     18091 MEMB     100      POPE     H5R      HDA2A    0.780000E-01   1.00800           0   0.00000       0.00000    
     18092 MEMB     100      POPE     H5S      HDA2A    0.780000E-01   1.00800           0   0.00000       0.00000    
     18093 MEMB     100      POPE     C26      CD32A     2.07980       11.6110           0  -1.66000       1.30000    
     18094 MEMB     100      POPE     DC26     DRUD     -2.23580      0.400000           0   0.00000       0.00000    
     18095 MEMB     100      POPE     H6R      HDA2A    0.780000E-01   1.00800           0   0.00000       0.00000    
     18096 MEMB     100      POPE     H6S      HDA2A    0.780000E-01   1.00800           0   0.00000       0.00000    
     18097 MEMB     100      POPE     C27      CD32A     2.07980       11.6110           0  -1.66000       1.30000    
     18098 MEMB     100      POPE     DC27     DRUD     -2.23580      0.400000           0   0.00000       0.00000    
     18099 MEMB     100      POPE     H7R      HDA2A    0.780000E-01   1.00800           0   0.00000       0.00000    
     18100 MEMB     100      POPE     H7S      HDA2A    0.780000E-01   1.00800           0   0.00000       0.00000    
     18101 MEMB     100      POPE     C28      CD32A     2.07980       11.6110           0  -1.66000       1.30000    
     18102 MEMB     100      POPE     DC28     DRUD     -2.23580      0.400000           0   0.00000       0.00000    
     18103 MEMB     100      POPE     H8R      HDA2A    0.780000E-01   1.00800           0   0.00000       0.00000    
     18104 MEMB     100      POPE     H8S      HDA2A    0.780000E-01   1.00800           0   0.00000       0.00000    
     18105 MEMB     100      POPE     C29      CD2C1A    2.33700       11.6110           0  -1.99000      0.750000    
     18106 MEMB     100      POPE     DC29     DRUD     -2.44800      0.400000           0   0.00000       0.00000    
     18107 MEMB     100      POPE     H91      HD2C1A   0.111000       1.00800           0   0.00000       0.00000    
     18108 MEMB     100      POPE     C210     CD2C1A    2.33700       11.6110           0  -1.99000      0.750000    
     18109 MEMB     100      POPE     DC210    DRUD     -2.44800      0.400000           0   0.00000       0.00000    
     18110 MEMB     100      POPE     H101     HD2C1A   0.111000       1.00800           0   0.00000       0.00000    
     18111 MEMB     100      POPE     C211     CD32A     2.07980       11.6110           0  -1.66000       1.30000    
     18112 MEMB     100      POPE     DC211    DRUD     -2.23580      0.400000           0   0.00000       0.00000    
     18113 MEMB     100      POPE     H11R     HDA2A    0.780000E-01   1.00800           0   0.00000       0.00000    
     18114 MEMB     100      POPE     H11S     HDA2A    0.780000E-01   1.00800           0   0.00000       0.00000    
     18115 MEMB     100      POPE     C212     CD32A     2.07980       11.6110           0  -1.66000       1.30000    
     18116 MEMB     100      POPE     DC212    DRUD     -2.23580      0.400000           0   0.00000       0.00000    
     18117 MEMB     100      POPE     H12R     HDA2A    0.780000E-01   1.00800           0   0.00000       0.00000    
     18118 MEMB     100      POPE     H12S     HDA2A    0.780000E-01   1.00800           0   0.00000       0.00000    
     18119 MEMB     100      POPE     C213     CD32A     2.07980       11.6110           0  -1.66000       1.30000    
     18120 MEMB     100      POPE     DC213    DRUD     -2.23580      0.400000           0   0.00000       0.00000    
     18121 MEMB     100      POPE     H13R     HDA2A    0.780000E-01   1.00800           0   0.00000       0.00000    
     18122 MEMB     100      POPE     H13S     HDA2A    0.780000E-01   1.00800           0   0.00000       0.00000    
     18123 MEMB     100      POPE     C214     CD32A     2.07980       11.6110           0  -1.66000       1.30000    
     18124 MEMB     100      POPE     DC214    DRUD     -2.23580      0.400000           0   0.00000       0.00000    
     18125 MEMB     100      POPE     H14R     HDA2A    0.780000E-01   1.00800           0   0.00000       0.00000    
     18126 MEMB     100      POPE     H14S     HDA2A    0.780000E-01   1.00800           0   0.00000       0.00000    
     18127 MEMB     100      POPE     C215     CD32A     2.07980       11.6110           0  -1.66000       1.30000    
     18128 MEMB     100      POPE     DC215    DRUD     -2.23580      0.400000           0   0.00000       0.00000    
     18129 MEMB     100      POPE     H15R     HDA2A    0.780000E-01   1.00800           0   0.00000       0.00000    
     18130 MEMB     100      POPE     H15S     HDA2A    0.780000E-01   1.00800           0   0.00000       0.00000    
     18131 MEMB     100      POPE     C216     CD32A     2.07980       11.6110           0  -1.66000       1.30000    
     18132 MEMB     100      POPE     DC216    DRUD     -2.23580      0.400000           0   0.00000       0.00000    
     18133 MEMB     100      POPE     H16R     HDA2A    0.780000E-01   1.00800           0   0.00000       0.00000    
     18134 MEMB     100      POPE     H16S     HDA2A    0.780000E-01   1.00800           0   0.00000       0.00000    
     18135 MEMB     100      POPE     C217     CD32A     2.07980       11.6110           0  -1.66000       1.30000    
     18136 MEMB     100      POPE     DC217    DRUD     -2.23580      0.400000           0   0.00000       0.00000    
     18137 MEMB     100      POPE     H17R     HDA2A    0.780000E-01   1.00800           0   0.00000       0.00000    
     18138 MEMB     100      POPE     H17S     HDA2A    0.780000E-01   1.00800           0   0.00000       0.00000    
     18139 MEMB     100      POPE     C218     CD33A     2.30820       11.6110           0  -2.05100       1.30000    
     18140 MEMB     100      POPE     DC218    DRUD     -2.48520      0.400000           0   0.00000       0.00000    
     18141 MEMB     100      POPE     H18R     HDA3A    0.590000E-01   1.00800           0   0.00000       0.00000    
     18142 MEMB     100      POPE     H18S     HDA3A    0.590000E-01   1.00800           0   0.00000       0.00000    
     18143 MEMB     100      POPE     H18T     HDA3A    0.590000E-01   1.00800           0   0.00000       0.00000    
     18144 MEMB     100      POPE     C33      CD32A     2.07980       11.6110           0  -1.66000       1.30000    
     18145 MEMB     100      POPE     DC33     DRUD     -2.23580      0.400000           0   0.00000       0.00000    
     18146 MEMB     100      POPE     H3X      HDA2A    0.780000E-01   1.00800           0   0.00000       0.00000    
     18147 MEMB     100      POPE     H3Y      HDA2A    0.780000E-01   1.00800           0   0.00000       0.00000    
     18148 MEMB     100      POPE     C34      CD32A     2.07980       11.6110           0  -1.66000       1.30000    
     18149 MEMB     100      POPE     DC34     DRUD     -2.23580      0.400000           0   0.00000       0.00000    
     18150 MEMB     100      POPE     H4X      HDA2A    0.780000E-01   1.00800           0   0.00000       0.00000    
     18151 MEMB     100      POPE     H4Y      HDA2A    0.780000E-01   1.00800           0   0.00000       0.00000    
     18152 MEMB     100      POPE     C35      CD32A     2.07980       11.6110           0  -1.66000       1.30000    
     18153 MEMB     100      POPE     DC35     DRUD     -2.23580      0.400000           0   0.00000       0.00000    
     18154 MEMB     100      POPE     H5X      HDA2A    0.780000E-01   1.00800           0   0.00000       0.00000    
     18155 MEMB     100      POPE     H5Y      HDA2A    0.780000E-01   1.00800           0   0.00000       0.00000    
     18156 MEMB     100      POPE     C36      CD32A     2.07980       11.6110           0  -1.66000       1.30000    
     18157 MEMB     100      POPE     DC36     DRUD     -2.23580      0.400000           0   0.00000       0.00000    
     18158 MEMB     100      POPE     H6X      HDA2A    0.780000E-01   1.00800           0   0.00000       0.00000    
     18159 MEMB     100      POPE     H6Y      HDA2A    0.780000E-01   1.00800           0   0.00000       0.00000    
     18160 MEMB     100      POPE     C37      CD32A     2.07980       11.6110           0  -1.66000       1.30000    
     18161 MEMB     100      POPE     DC37     DRUD     -2.23580      0.400000           0   0.00000       0.00000    
     18162 MEMB     100      POPE     H7X      HDA2A    0.780000E-01   1.00800           0   0.00000       0.00000    
     18163 MEMB     100      POPE     H7Y      HDA2A    0.780000E-01   1.00800           0   0.00000       0.00000    
     18164 MEMB     100      POPE     C38      CD32A     2.07980       11.6110           0  -1.66000       1.30000    
     18165 MEMB     100      POPE     DC38     DRUD     -2.23580      0.400000           0   0.00000       0.00000    
     18166 MEMB     100      POPE     H8X      HDA2A    0.780000E-01   1.00800           0   0.00000       0.00000    
     18167 MEMB     100      POPE     H8Y      HDA2A    0.780000E-01   1.00800           0   0.00000       0.00000    
     18168 MEMB     100      POPE     C39      CD32A     2.07980       11.6110           0  -1.66000       1.30000    
     18169 MEMB     100      POPE     DC39     DRUD     -2.23580      0.400000           0   0.00000       0.00000    
     18170 MEMB     100      POPE     H9X      HDA2A    0.780000E-01   1.00800           0   0.00000       0.00000    
     18171 MEMB     100      POPE     H9Y      HDA2A    0.780000E-01   1.00800           0   0.00000       0.00000    
     18172 MEMB     100      POPE     C310     CD32A     2.07980       11.6110           0  -1.66000       1.30000    
     18173 MEMB     100      POPE     DC310    DRUD     -2.23580      0.400000           0   0.00000       0.00000    
     18174 MEMB     100      POPE     H10X     HDA2A    0.780000E-01   1.00800           0   0.00000       0.00000    
     18175 MEMB     100      POPE     H10Y     HDA2A    0.780000E-01   1.00800           0   0.00000       0.00000    
     18176 MEMB     100      POPE     C311     CD32A     2.07980       11.6110           0  -1.66000       1.30000    
     18177 MEMB     100      POPE     DC311    DRUD     -2.23580      0.400000           0   0.00000       0.00000    
     18178 MEMB     100      POPE     H11X     HDA2A    0.780000E-01   1.00800           0   0.00000       0.00000    
     18179 MEMB     100      POPE     H11Y     HDA2A    0.780000E-01   1.00800           0   0.00000       0.00000    
     18180 MEMB     100      POPE     C312     CD32A     2.07980       11.6110           0  -1.66000       1.30000    
     18181 MEMB     100      POPE     DC312    DRUD     -2.23580      0.400000           0   0.00000       0.00000    
     18182 MEMB     100      POPE     H12X     HDA2A    0.780000E-01   1.00800           0   0.00000       0.00000    
     18183 MEMB     100      POPE     H12Y     HDA2A    0.780000E-01   1.00800           0   0.00000       0.00000    
     18184 MEMB     100      POPE     C313     CD32A     2.07980       11.6110           0  -1.66000       1.30000    
     18185 MEMB     100      POPE     DC313    DRUD     -2.23580      0.400000           0   0.00000       0.00000    
     18186 MEMB     100      POPE     H13X     HDA2A    0.780000E-01   1.00800           0   0.00000       0.00000    
     18187 MEMB     100      POPE     H13Y     HDA2A    0.780000E-01   1.00800           0   0.00000       0.00000    
     18188 MEMB     100      POPE     C314     CD32A     2.07980       11.6110           0  -1.66000       1.30000    
     18189 MEMB     100      POPE     DC314    DRUD     -2.23580      0.400000           0   0.00000       0.00000    
     18190 MEMB     100      POPE     H14X     HDA2A    0.780000E-01   1.00800           0   0.00000       0.00000    
     18191 MEMB     100      POPE     H14Y     HDA2A    0.780000E-01   1.00800           0   0.00000       0.00000    
     18192 MEMB     100      POPE     C315     CD32A     2.07980       11.6110           0  -1.66000       1.30000    
     18193 MEMB     100      POPE     DC315    DRUD     -2.23580      0.400000           0   0.00000       0.00000    
     18194 MEMB     100      POPE     H15X     HDA2A    0.780000E-01   1.00800           0   0.00000       0.00000    
     18195 MEMB     100      POPE     H15Y     HDA2A    0.780000E-01   1.00800           0   0.00000       0.00000    
     18196 MEMB     100      POPE     C316     CD33A     2.30820       11.6110           0  -2.05100       1.30000    
     18197 MEMB     100      POPE     DC316    DRUD     -2.48520      0.400000           0   0.00000       0.00000    
     18198 MEMB     100      POPE     H16X     HDA3A    0.590000E-01   1.00800           0   0.00000       0.00000    
     18199 MEMB     100      POPE     H16Y     HDA3A    0.590000E-01   1.00800           0   0.00000       0.00000    
     18200 MEMB     100      POPE     H16Z     HDA3A    0.590000E-01   1.00800           0   0.00000       0.00000    
     18201 MEMB     101      POPE     N        ND3P3A    1.62810       13.6070           0  -1.29800      0.895000    
     18202 MEMB     101      POPE     DN       DRUD     -1.97710      0.400000           0   0.00000       0.00000    
     18203 MEMB     101      POPE     HN1      HDP1B    0.340000       1.00800           0   0.00000       0.00000    
     18204 MEMB     101      POPE     HN2      HDP1B    0.340000       1.00800           0   0.00000       0.00000    
     18205 MEMB     101      POPE     HN3      HDP1B    0.340000       1.00800           0   0.00000       0.00000    
     18206 MEMB     101      POPE     C12      CD32A     2.27610       11.6110           0  -1.65600      0.895000    
     18207 MEMB     101      POPE     DC12     DRUD     -2.23310      0.400000           0   0.00000       0.00000    
     18208 MEMB     101      POPE     H12A     HDA2A    0.143000       1.00800           0   0.00000       0.00000    
     18209 MEMB     101      POPE     H12B     HDA2A    0.143000       1.00800           0   0.00000       0.00000    
     18210 MEMB     101      POPE     C11      CD32A     2.42220       11.6110           0  -1.64200      0.862000    
     18211 MEMB     101      POPE     DC11     DRUD     -2.22370      0.400000           0   0.00000       0.00000    
     18212 MEMB     101      POPE     H11A     HDA2A    0.260000E-01   1.00800           0   0.00000       0.00000    
     18213 MEMB     101      POPE     H11B     HDA2A    0.260000E-01   1.00800           0   0.00000       0.00000    
     18214 MEMB     101      POPE     P        PD1A      2.90360       30.5740           0 -0.974000       2.09800    
     18215 MEMB     101      POPE     DP       DRUD     -1.71260      0.400000           0   0.00000       0.00000    
     18216 MEMB     101      POPE     O13      OD2C2B   0.798400       15.5994           0 -0.931000       1.08300    
     18217 MEMB     101      POPE     DO13     DRUD     -1.67440      0.400000           0   0.00000       0.00000    
     18218 MEMB     101      POPE     O14      OD2C2B   0.798400       15.5994           0 -0.931000       1.08300    
     18219 MEMB     101      POPE     DO14     DRUD     -1.67440      0.400000           0   0.00000       0.00000    
     18220 MEMB     101      POPE     O11      OD30B     1.17720       15.5994           0 -0.901000      0.181000    
     18221 MEMB     101      POPE     DO11     DRUD     -1.64720      0.400000           0   0.00000       0.00000    
     18222 MEMB     101      POPE     O12      OD30B     1.17720       15.5994           0 -0.901000      0.181000    
     18223 MEMB     101      POPE     DO12     DRUD     -1.64720      0.400000           0   0.00000       0.00000    
     18224 MEMB     101      POPE     C1       CD32A     2.42220       11.6110           0  -1.64200      0.862000    
     18225 MEMB     101      POPE     DC1      DRUD     -2.22370      0.400000           0   0.00000       0.00000    
     18226 MEMB     101      POPE     HA       HDA2A    0.260000E-01   1.00800           0   0.00000       0.00000    
     18227 MEMB     101      POPE     HB       HDA2A    0.260000E-01   1.00800           0   0.00000       0.00000    
     18228 MEMB     101      POPE     C2       CD31C     2.52830       11.6110           0  -1.79700      0.410000    
     18229 MEMB     101      POPE     DC2      DRUD     -2.32630      0.400000           0   0.00000       0.00000    
     18230 MEMB     101      POPE     HS       HDA1A    0.116000       1.00800           0   0.00000       0.00000    
     18231 MEMB     101      POPE     O21      OD30CL    1.48470       15.5994           0 -0.732000      0.601000    
     18232 MEMB     101      POPE     DO21     DRUD     -1.48470      0.400000           0   0.00000       0.00000    
     18233 MEMB     101      POPE     C21      CD2O3B    2.72820       11.6110           0  -1.37000       1.74700    
     18234 MEMB     101      POPE     DC21     DRUD     -2.03120      0.400000           0   0.00000       0.00000    
     18235 MEMB     101      POPE     O22      OD2C3B    1.64990       15.5994           0 -0.904000      0.565000    
     18236 MEMB     101      POPE     DO22     DRUD     -1.64990      0.400000           0   0.00000       0.00000    
     18237 MEMB     101      POPE     C22      CD32C     2.24380       11.6110           0  -1.99300      0.410000    
     18238 MEMB     101      POPE     DC22     DRUD     -2.44980      0.400000           0   0.00000       0.00000    
     18239 MEMB     101      POPE     H2R      HDA2A    0.690000E-01   1.00800           0   0.00000       0.00000    
     18240 MEMB     101      POPE     H2S      HDA2A    0.690000E-01   1.00800           0   0.00000       0.00000    
     18241 MEMB     101      POPE     LP1A     LPD     -0.349000       0.00000          -1   0.00000       0.00000    
     18242 MEMB     101      POPE     LP1B     LPD     -0.258000       0.00000          -1   0.00000       0.00000    
     18243 MEMB     101      POPE     LPMA     LPD     -0.170000       0.00000          -1   0.00000       0.00000    
     18244 MEMB     101      POPE     LPMB     LPD     -0.170000       0.00000          -1   0.00000       0.00000    
     18245 MEMB     101      POPE     C3       CD32C     2.41230       11.6110           0  -1.79700      0.410000    
     18246 MEMB     101      POPE     DC3      DRUD     -2.32630      0.400000           0   0.00000       0.00000    
     18247 MEMB     101      POPE     HX       HDA2A    0.116000       1.00800           0   0.00000       0.00000    
     18248 MEMB     101      POPE     HY       HDA2A    0.116000       1.00800           0   0.00000       0.00000    
     18249 MEMB     101      POPE     O31      OD30CL    1.48470       15.5994           0 -0.732000      0.601000    
     18250 MEMB     101      POPE     DO31     DRUD     -1.48470      0.400000           0   0.00000       0.00000    
     18251 MEMB     101      POPE     C31      CD2O3B    2.72820       11.6110           0  -1.37000       1.74700    
     18252 MEMB     101      POPE     DC31     DRUD     -2.03120      0.400000           0   0.00000       0.00000    
     18253 MEMB     101      POPE     O32      OD2C3B    1.64990       15.5994           0 -0.904000      0.565000    
     18254 MEMB     101      POPE     DO32     DRUD     -1.64990      0.400000           0   0.00000       0.00000    
     18255 MEMB     101      POPE     C32      CD32C     2.24380       11.6110           0  -1.99300      0.410000    
     18256 MEMB     101      POPE     DC32     DRUD     -2.44980      0.400000           0   0.00000       0.00000    
     18257 MEMB     101      POPE     H2X      HDA2A    0.690000E-01   1.00800           0   0.00000       0.00000    
     18258 MEMB     101      POPE     H2Y      HDA2A    0.690000E-01   1.00800           0   0.00000       0.00000    
     18259 MEMB     101      POPE     LP1C     LPD     -0.349000       0.00000          -1   0.00000       0.00000    
     18260 MEMB     101      POPE     LP1D     LPD     -0.258000       0.00000          -1   0.00000       0.00000    
     18261 MEMB     101      POPE     LPMC     LPD     -0.170000       0.00000          -1   0.00000       0.00000    
     18262 MEMB     101      POPE     LPMD     LPD     -0.170000       0.00000          -1   0.00000       0.00000    
     18263 MEMB     101      POPE     C23      CD32A     2.07980       11.6110           0  -1.66000       1.30000    
     18264 MEMB     101      POPE     DC23     DRUD     -2.23580      0.400000           0   0.00000       0.00000    
     18265 MEMB     101      POPE     H3R      HDA2A    0.780000E-01   1.00800           0   0.00000       0.00000    
     18266 MEMB     101      POPE     H3S      HDA2A    0.780000E-01   1.00800           0   0.00000       0.00000    
     18267 MEMB     101      POPE     C24      CD32A     2.07980       11.6110           0  -1.66000       1.30000    
     18268 MEMB     101      POPE     DC24     DRUD     -2.23580      0.400000           0   0.00000       0.00000    
     18269 MEMB     101      POPE     H4R      HDA2A    0.780000E-01   1.00800           0   0.00000       0.00000    
     18270 MEMB     101      POPE     H4S      HDA2A    0.780000E-01   1.00800           0   0.00000       0.00000    
     18271 MEMB     101      POPE     C25      CD32A     2.07980       11.6110           0  -1.66000       1.30000    
     18272 MEMB     101      POPE     DC25     DRUD     -2.23580      0.400000           0   0.00000       0.00000    
     18273 MEMB     101      POPE     H5R      HDA2A    0.780000E-01   1.00800           0   0.00000       0.00000    
     18274 MEMB     101      POPE     H5S      HDA2A    0.780000E-01   1.00800           0   0.00000       0.00000    
     18275 MEMB     101      POPE     C26      CD32A     2.07980       11.6110           0  -1.66000       1.30000    
     18276 MEMB     101      POPE     DC26     DRUD     -2.23580      0.400000           0   0.00000       0.00000    
     18277 MEMB     101      POPE     H6R      HDA2A    0.780000E-01   1.00800           0   0.00000       0.00000    
     18278 MEMB     101      POPE     H6S      HDA2A    0.780000E-01   1.00800           0   0.00000       0.00000    
     18279 MEMB     101      POPE     C27      CD32A     2.07980       11.6110           0  -1.66000       1.30000    
     18280 MEMB     101      POPE     DC27     DRUD     -2.23580      0.400000           0   0.00000       0.00000    
     18281 MEMB     101      POPE     H7R      HDA2A    0.780000E-01   1.00800           0   0.00000       0.00000    
     18282 MEMB     101      POPE     H7S      HDA2A    0.780000E-01   1.00800           0   0.00000       0.00000    
     18283 MEMB     101      POPE     C28      CD32A     2.07980       11.6110           0  -1.66000       1.30000    
     18284 MEMB     101      POPE     DC28     DRUD     -2.23580      0.400000           0   0.00000       0.00000    
     18285 MEMB     101      POPE     H8R      HDA2A    0.780000E-01   1.00800           0   0.00000       0.00000    
     18286 MEMB     101      POPE     H8S      HDA2A    0.780000E-01   1.00800           0   0.00000       0.00000    
     18287 MEMB     101      POPE     C29      CD2C1A    2.33700       11.6110           0  -1.99000      0.750000    
     18288 MEMB     101      POPE     DC29     DRUD     -2.44800      0.400000           0   0.00000       0.00000    
     18289 MEMB     101      POPE     H91      HD2C1A   0.111000       1.00800           0   0.00000       0.00000    
     18290 MEMB     101      POPE     C210     CD2C1A    2.33700       11.6110           0  -1.99000      0.750000    
     18291 MEMB     101      POPE     DC210    DRUD     -2.44800      0.400000           0   0.00000       0.00000    
     18292 MEMB     101      POPE     H101     HD2C1A   0.111000       1.00800           0   0.00000       0.00000    
     18293 MEMB     101      POPE     C211     CD32A     2.07980       11.6110           0  -1.66000       1.30000    
     18294 MEMB     101      POPE     DC211    DRUD     -2.23580      0.400000           0   0.00000       0.00000    
     18295 MEMB     101      POPE     H11R     HDA2A    0.780000E-01   1.00800           0   0.00000       0.00000    
     18296 MEMB     101      POPE     H11S     HDA2A    0.780000E-01   1.00800           0   0.00000       0.00000    
     18297 MEMB     101      POPE     C212     CD32A     2.07980       11.6110           0  -1.66000       1.30000    
     18298 MEMB     101      POPE     DC212    DRUD     -2.23580      0.400000           0   0.00000       0.00000    
     18299 MEMB     101      POPE     H12R     HDA2A    0.780000E-01   1.00800           0   0.00000       0.00000    
     18300 MEMB     101      POPE     H12S     HDA2A    0.780000E-01   1.00800           0   0.00000       0.00000    
     18301 MEMB     101      POPE     C213     CD32A     2.07980       11.6110           0  -1.66000       1.30000    
     18302 MEMB     101      POPE     DC213    DRUD     -2.23580      0.400000           0   0.00000       0.00000    
     18303 MEMB     101      POPE     H13R     HDA2A    0.780000E-01   1.00800           0   0.00000       0.00000    
     18304 MEMB     101      POPE     H13S     HDA2A    0.780000E-01   1.00800           0   0.00000       0.00000    
     18305 MEMB     101      POPE     C214     CD32A     2.07980       11.6110           0  -1.66000       1.30000    
     18306 MEMB     101      POPE     DC214    DRUD     -2.23580      0.400000           0   0.00000       0.00000    
     18307 MEMB     101      POPE     H14R     HDA2A    0.780000E-01   1.00800           0   0.00000       0.00000    
     18308 MEMB     101      POPE     H14S     HDA2A    0.780000E-01   1.00800           0   0.00000       0.00000    
     18309 MEMB     101      POPE     C215     CD32A     2.07980       11.6110           0  -1.66000       1.30000    
     18310 MEMB     101      POPE     DC215    DRUD     -2.23580      0.400000           0   0.00000       0.00000    
     18311 MEMB     101      POPE     H15R     HDA2A    0.780000E-01   1.00800           0   0.00000       0.00000    
     18312 MEMB     101      POPE     H15S     HDA2A    0.780000E-01   1.00800           0   0.00000       0.00000    
     18313 MEMB     101      POPE     C216     CD32A     2.07980       11.6110           0  -1.66000       1.30000    
     18314 MEMB     101      POPE     DC216    DRUD     -2.23580      0.400000           0   0.00000       0.00000    
     18315 MEMB     101      POPE     H16R     HDA2A    0.780000E-01   1.00800           0   0.00000       0.00000    
     18316 MEMB     101      POPE     H16S     HDA2A    0.780000E-01   1.00800           0   0.00000       0.00000    
     18317 MEMB     101      POPE     C217     CD32A     2.07980       11.6110           0  -1.66000       1.30000    
     18318 MEMB     101      POPE     DC217    DRUD     -2.23580      0.400000           0   0.00000       0.00000    
     18319 MEMB     101      POPE     H17R     HDA2A    0.780000E-01   1.00800           0   0.00000       0.00000    
     18320 MEMB     101      POPE     H17S     HDA2A    0.780000E-01   1.00800           0   0.00000       0.00000    
     18321 MEMB     101      POPE     C218     CD33A     2.30820       11.6110           0  -2.05100       1.30000    
     18322 MEMB     101      POPE     DC218    DRUD     -2.48520      0.400000           0   0.00000       0.00000    
     18323 MEMB     101      POPE     H18R     HDA3A    0.590000E-01   1.00800           0   0.00000       0.00000    
     18324 MEMB     101      POPE     H18S     HDA3A    0.590000E-01   1.00800           0   0.00000       0.00000    
     18325 MEMB     101      POPE     H18T     HDA3A    0.590000E-01   1.00800           0   0.00000       0.00000    
     18326 MEMB     101      POPE     C33      CD32A     2.07980       11.6110           0  -1.66000       1.30000    
     18327 MEMB     101      POPE     DC33     DRUD     -2.23580      0.400000           0   0.00000       0.00000    
     18328 MEMB     101      POPE     H3X      HDA2A    0.780000E-01   1.00800           0   0.00000       0.00000    
     18329 MEMB     101      POPE     H3Y      HDA2A    0.780000E-01   1.00800           0   0.00000       0.00000    
     18330 MEMB     101      POPE     C34      CD32A     2.07980       11.6110           0  -1.66000       1.30000    
     18331 MEMB     101      POPE     DC34     DRUD     -2.23580      0.400000           0   0.00000       0.00000    
     18332 MEMB     101      POPE     H4X      HDA2A    0.780000E-01   1.00800           0   0.00000       0.00000    
     18333 MEMB     101      POPE     H4Y      HDA2A    0.780000E-01   1.00800           0   0.00000       0.00000    
     18334 MEMB     101      POPE     C35      CD32A     2.07980       11.6110           0  -1.66000       1.30000    
     18335 MEMB     101      POPE     DC35     DRUD     -2.23580      0.400000           0   0.00000       0.00000    
     18336 MEMB     101      POPE     H5X      HDA2A    0.780000E-01   1.00800           0   0.00000       0.00000    
     18337 MEMB     101      POPE     H5Y      HDA2A    0.780000E-01   1.00800           0   0.00000       0.00000    
     18338 MEMB     101      POPE     C36      CD32A     2.07980       11.6110           0  -1.66000       1.30000    
     18339 MEMB     101      POPE     DC36     DRUD     -2.23580      0.400000           0   0.00000       0.00000    
     18340 MEMB     101      POPE     H6X      HDA2A    0.780000E-01   1.00800           0   0.00000       0.00000    
     18341 MEMB     101      POPE     H6Y      HDA2A    0.780000E-01   1.00800           0   0.00000       0.00000    
     18342 MEMB     101      POPE     C37      CD32A     2.07980       11.6110           0  -1.66000       1.30000    
     18343 MEMB     101      POPE     DC37     DRUD     -2.23580      0.400000           0   0.00000       0.00000    
     18344 MEMB     101      POPE     H7X      HDA2A    0.780000E-01   1.00800           0   0.00000       0.00000    
     18345 MEMB     101      POPE     H7Y      HDA2A    0.780000E-01   1.00800           0   0.00000       0.00000    
     18346 MEMB     101      POPE     C38      CD32A     2.07980       11.6110           0  -1.66000       1.30000    
     18347 MEMB     101      POPE     DC38     DRUD     -2.23580      0.400000           0   0.00000       0.00000    
     18348 MEMB     101      POPE     H8X      HDA2A    0.780000E-01   1.00800           0   0.00000       0.00000    
     18349 MEMB     101      POPE     H8Y      HDA2A    0.780000E-01   1.00800           0   0.00000       0.00000    
     18350 MEMB     101      POPE     C39      CD32A     2.07980       11.6110           0  -1.66000       1.30000    
     18351 MEMB     101      POPE     DC39     DRUD     -2.23580      0.400000           0   0.00000       0.00000    
     18352 MEMB     101      POPE     H9X      HDA2A    0.780000E-01   1.00800           0   0.00000       0.00000    
     18353 MEMB     101      POPE     H9Y      HDA2A    0.780000E-01   1.00800           0   0.00000       0.00000    
     18354 MEMB     101      POPE     C310     CD32A     2.07980       11.6110           0  -1.66000       1.30000    
     18355 MEMB     101      POPE     DC310    DRUD     -2.23580      0.400000           0   0.00000       0.00000    
     18356 MEMB     101      POPE     H10X     HDA2A    0.780000E-01   1.00800           0   0.00000       0.00000    
     18357 MEMB     101      POPE     H10Y     HDA2A    0.780000E-01   1.00800           0   0.00000       0.00000    
     18358 MEMB     101      POPE     C311     CD32A     2.07980       11.6110           0  -1.66000       1.30000    
     18359 MEMB     101      POPE     DC311    DRUD     -2.23580      0.400000           0   0.00000       0.00000    
     18360 MEMB     101      POPE     H11X     HDA2A    0.780000E-01   1.00800           0   0.00000       0.00000    
     18361 MEMB     101      POPE     H11Y     HDA2A    0.780000E-01   1.00800           0   0.00000       0.00000    
     18362 MEMB     101      POPE     C312     CD32A     2.07980       11.6110           0  -1.66000       1.30000    
     18363 MEMB     101      POPE     DC312    DRUD     -2.23580      0.400000           0   0.00000       0.00000    
     18364 MEMB     101      POPE     H12X     HDA2A    0.780000E-01   1.00800           0   0.00000       0.00000    
     18365 MEMB     101      POPE     H12Y     HDA2A    0.780000E-01   1.00800           0   0.00000       0.00000    
     18366 MEMB     101      POPE     C313     CD32A     2.07980       11.6110           0  -1.66000       1.30000    
     18367 MEMB     101      POPE     DC313    DRUD     -2.23580      0.400000           0   0.00000       0.00000    
     18368 MEMB     101      POPE     H13X     HDA2A    0.780000E-01   1.00800           0   0.00000       0.00000    
     18369 MEMB     101      POPE     H13Y     HDA2A    0.780000E-01   1.00800           0   0.00000       0.00000    
     18370 MEMB     101      POPE     C314     CD32A     2.07980       11.6110           0  -1.66000       1.30000    
     18371 MEMB     101      POPE     DC314    DRUD     -2.23580      0.400000           0   0.00000       0.00000    
     18372 MEMB     101      POPE     H14X     HDA2A    0.780000E-01   1.00800           0   0.00000       0.00000    
     18373 MEMB     101      POPE     H14Y     HDA2A    0.780000E-01   1.00800           0   0.00000       0.00000    
     18374 MEMB     101      POPE     C315     CD32A     2.07980       11.6110           0  -1.66000       1.30000    
     18375 MEMB     101      POPE     DC315    DRUD     -2.23580      0.400000           0   0.00000       0.00000    
     18376 MEMB     101      POPE     H15X     HDA2A    0.780000E-01   1.00800           0   0.00000       0.00000    
     18377 MEMB     101      POPE     H15Y     HDA2A    0.780000E-01   1.00800           0   0.00000       0.00000    
     18378 MEMB     101      POPE     C316     CD33A     2.30820       11.6110           0  -2.05100       1.30000    
     18379 MEMB     101      POPE     DC316    DRUD     -2.48520      0.400000           0   0.00000       0.00000    
     18380 MEMB     101      POPE     H16X     HDA3A    0.590000E-01   1.00800           0   0.00000       0.00000    
     18381 MEMB     101      POPE     H16Y     HDA3A    0.590000E-01   1.00800           0   0.00000       0.00000    
     18382 MEMB     101      POPE     H16Z     HDA3A    0.590000E-01   1.00800           0   0.00000       0.00000    
     18383 MEMB     102      POPE     N        ND3P3A    1.62810       13.6070           0  -1.29800      0.895000    
     18384 MEMB     102      POPE     DN       DRUD     -1.97710      0.400000           0   0.00000       0.00000    
     18385 MEMB     102      POPE     HN1      HDP1B    0.340000       1.00800           0   0.00000       0.00000    
     18386 MEMB     102      POPE     HN2      HDP1B    0.340000       1.00800           0   0.00000       0.00000    
     18387 MEMB     102      POPE     HN3      HDP1B    0.340000       1.00800           0   0.00000       0.00000    
     18388 MEMB     102      POPE     C12      CD32A     2.27610       11.6110           0  -1.65600      0.895000    
     18389 MEMB     102      POPE     DC12     DRUD     -2.23310      0.400000           0   0.00000       0.00000    
     18390 MEMB     102      POPE     H12A     HDA2A    0.143000       1.00800           0   0.00000       0.00000    
     18391 MEMB     102      POPE     H12B     HDA2A    0.143000       1.00800           0   0.00000       0.00000    
     18392 MEMB     102      POPE     C11      CD32A     2.42220       11.6110           0  -1.64200      0.862000    
     18393 MEMB     102      POPE     DC11     DRUD     -2.22370      0.400000           0   0.00000       0.00000    
     18394 MEMB     102      POPE     H11A     HDA2A    0.260000E-01   1.00800           0   0.00000       0.00000    
     18395 MEMB     102      POPE     H11B     HDA2A    0.260000E-01   1.00800           0   0.00000       0.00000    
     18396 MEMB     102      POPE     P        PD1A      2.90360       30.5740           0 -0.974000       2.09800    
     18397 MEMB     102      POPE     DP       DRUD     -1.71260      0.400000           0   0.00000       0.00000    
     18398 MEMB     102      POPE     O13      OD2C2B   0.798400       15.5994           0 -0.931000       1.08300    
     18399 MEMB     102      POPE     DO13     DRUD     -1.67440      0.400000           0   0.00000       0.00000    
     18400 MEMB     102      POPE     O14      OD2C2B   0.798400       15.5994           0 -0.931000       1.08300    
     18401 MEMB     102      POPE     DO14     DRUD     -1.67440      0.400000           0   0.00000       0.00000    
     18402 MEMB     102      POPE     O11      OD30B     1.17720       15.5994           0 -0.901000      0.181000    
     18403 MEMB     102      POPE     DO11     DRUD     -1.64720      0.400000           0   0.00000       0.00000    
     18404 MEMB     102      POPE     O12      OD30B     1.17720       15.5994           0 -0.901000      0.181000    
     18405 MEMB     102      POPE     DO12     DRUD     -1.64720      0.400000           0   0.00000       0.00000    
     18406 MEMB     102      POPE     C1       CD32A     2.42220       11.6110           0  -1.64200      0.862000    
     18407 MEMB     102      POPE     DC1      DRUD     -2.22370      0.400000           0   0.00000       0.00000    
     18408 MEMB     102      POPE     HA       HDA2A    0.260000E-01   1.00800           0   0.00000       0.00000    
     18409 MEMB     102      POPE     HB       HDA2A    0.260000E-01   1.00800           0   0.00000       0.00000    
     18410 MEMB     102      POPE     C2       CD31C     2.52830       11.6110           0  -1.79700      0.410000    
     18411 MEMB     102      POPE     DC2      DRUD     -2.32630      0.400000           0   0.00000       0.00000    
     18412 MEMB     102      POPE     HS       HDA1A    0.116000       1.00800           0   0.00000       0.00000    
     18413 MEMB     102      POPE     O21      OD30CL    1.48470       15.5994           0 -0.732000      0.601000    
     18414 MEMB     102      POPE     DO21     DRUD     -1.48470      0.400000           0   0.00000       0.00000    
     18415 MEMB     102      POPE     C21      CD2O3B    2.72820       11.6110           0  -1.37000       1.74700    
     18416 MEMB     102      POPE     DC21     DRUD     -2.03120      0.400000           0   0.00000       0.00000    
     18417 MEMB     102      POPE     O22      OD2C3B    1.64990       15.5994           0 -0.904000      0.565000    
     18418 MEMB     102      POPE     DO22     DRUD     -1.64990      0.400000           0   0.00000       0.00000    
     18419 MEMB     102      POPE     C22      CD32C     2.24380       11.6110           0  -1.99300      0.410000    
     18420 MEMB     102      POPE     DC22     DRUD     -2.44980      0.400000           0   0.00000       0.00000    
     18421 MEMB     102      POPE     H2R      HDA2A    0.690000E-01   1.00800           0   0.00000       0.00000    
     18422 MEMB     102      POPE     H2S      HDA2A    0.690000E-01   1.00800           0   0.00000       0.00000    
     18423 MEMB     102      POPE     LP1A     LPD     -0.349000       0.00000          -1   0.00000       0.00000    
     18424 MEMB     102      POPE     LP1B     LPD     -0.258000       0.00000          -1   0.00000       0.00000    
     18425 MEMB     102      POPE     LPMA     LPD     -0.170000       0.00000          -1   0.00000       0.00000    
     18426 MEMB     102      POPE     LPMB     LPD     -0.170000       0.00000          -1   0.00000       0.00000    
     18427 MEMB     102      POPE     C3       CD32C     2.41230       11.6110           0  -1.79700      0.410000    
     18428 MEMB     102      POPE     DC3      DRUD     -2.32630      0.400000           0   0.00000       0.00000    
     18429 MEMB     102      POPE     HX       HDA2A    0.116000       1.00800           0   0.00000       0.00000    
     18430 MEMB     102      POPE     HY       HDA2A    0.116000       1.00800           0   0.00000       0.00000    
     18431 MEMB     102      POPE     O31      OD30CL    1.48470       15.5994           0 -0.732000      0.601000    
     18432 MEMB     102      POPE     DO31     DRUD     -1.48470      0.400000           0   0.00000       0.00000    
     18433 MEMB     102      POPE     C31      CD2O3B    2.72820       11.6110           0  -1.37000       1.74700    
     18434 MEMB     102      POPE     DC31     DRUD     -2.03120      0.400000           0   0.00000       0.00000    
     18435 MEMB     102      POPE     O32      OD2C3B    1.64990       15.5994           0 -0.904000      0.565000    
     18436 MEMB     102      POPE     DO32     DRUD     -1.64990      0.400000           0   0.00000       0.00000    
     18437 MEMB     102      POPE     C32      CD32C     2.24380       11.6110           0  -1.99300      0.410000    
     18438 MEMB     102      POPE     DC32     DRUD     -2.44980      0.400000           0   0.00000       0.00000    
     18439 MEMB     102      POPE     H2X      HDA2A    0.690000E-01   1.00800           0   0.00000       0.00000    
     18440 MEMB     102      POPE     H2Y      HDA2A    0.690000E-01   1.00800           0   0.00000       0.00000    
     18441 MEMB     102      POPE     LP1C     LPD     -0.349000       0.00000          -1   0.00000       0.00000    
     18442 MEMB     102      POPE     LP1D     LPD     -0.258000       0.00000          -1   0.00000       0.00000    
     18443 MEMB     102      POPE     LPMC     LPD     -0.170000       0.00000          -1   0.00000       0.00000    
     18444 MEMB     102      POPE     LPMD     LPD     -0.170000       0.00000          -1   0.00000       0.00000    
     18445 MEMB     102      POPE     C23      CD32A     2.07980       11.6110           0  -1.66000       1.30000    
     18446 MEMB     102      POPE     DC23     DRUD     -2.23580      0.400000           0   0.00000       0.00000    
     18447 MEMB     102      POPE     H3R      HDA2A    0.780000E-01   1.00800           0   0.00000       0.00000    
     18448 MEMB     102      POPE     H3S      HDA2A    0.780000E-01   1.00800           0   0.00000       0.00000    
     18449 MEMB     102      POPE     C24      CD32A     2.07980       11.6110           0  -1.66000       1.30000    
     18450 MEMB     102      POPE     DC24     DRUD     -2.23580      0.400000           0   0.00000       0.00000    
     18451 MEMB     102      POPE     H4R      HDA2A    0.780000E-01   1.00800           0   0.00000       0.00000    
     18452 MEMB     102      POPE     H4S      HDA2A    0.780000E-01   1.00800           0   0.00000       0.00000    
     18453 MEMB     102      POPE     C25      CD32A     2.07980       11.6110           0  -1.66000       1.30000    
     18454 MEMB     102      POPE     DC25     DRUD     -2.23580      0.400000           0   0.00000       0.00000    
     18455 MEMB     102      POPE     H5R      HDA2A    0.780000E-01   1.00800           0   0.00000       0.00000    
     18456 MEMB     102      POPE     H5S      HDA2A    0.780000E-01   1.00800           0   0.00000       0.00000    
     18457 MEMB     102      POPE     C26      CD32A     2.07980       11.6110           0  -1.66000       1.30000    
     18458 MEMB     102      POPE     DC26     DRUD     -2.23580      0.400000           0   0.00000       0.00000    
     18459 MEMB     102      POPE     H6R      HDA2A    0.780000E-01   1.00800           0   0.00000       0.00000    
     18460 MEMB     102      POPE     H6S      HDA2A    0.780000E-01   1.00800           0   0.00000       0.00000    
     18461 MEMB     102      POPE     C27      CD32A     2.07980       11.6110           0  -1.66000       1.30000    
     18462 MEMB     102      POPE     DC27     DRUD     -2.23580      0.400000           0   0.00000       0.00000    
     18463 MEMB     102      POPE     H7R      HDA2A    0.780000E-01   1.00800           0   0.00000       0.00000    
     18464 MEMB     102      POPE     H7S      HDA2A    0.780000E-01   1.00800           0   0.00000       0.00000    
     18465 MEMB     102      POPE     C28      CD32A     2.07980       11.6110           0  -1.66000       1.30000    
     18466 MEMB     102      POPE     DC28     DRUD     -2.23580      0.400000           0   0.00000       0.00000    
     18467 MEMB     102      POPE     H8R      HDA2A    0.780000E-01   1.00800           0   0.00000       0.00000    
     18468 MEMB     102      POPE     H8S      HDA2A    0.780000E-01   1.00800           0   0.00000       0.00000    
     18469 MEMB     102      POPE     C29      CD2C1A    2.33700       11.6110           0  -1.99000      0.750000    
     18470 MEMB     102      POPE     DC29     DRUD     -2.44800      0.400000           0   0.00000       0.00000    
     18471 MEMB     102      POPE     H91      HD2C1A   0.111000       1.00800           0   0.00000       0.00000    
     18472 MEMB     102      POPE     C210     CD2C1A    2.33700       11.6110           0  -1.99000      0.750000    
     18473 MEMB     102      POPE     DC210    DRUD     -2.44800      0.400000           0   0.00000       0.00000    
     18474 MEMB     102      POPE     H101     HD2C1A   0.111000       1.00800           0   0.00000       0.00000    
     18475 MEMB     102      POPE     C211     CD32A     2.07980       11.6110           0  -1.66000       1.30000    
     18476 MEMB     102      POPE     DC211    DRUD     -2.23580      0.400000           0   0.00000       0.00000    
     18477 MEMB     102      POPE     H11R     HDA2A    0.780000E-01   1.00800           0   0.00000       0.00000    
     18478 MEMB     102      POPE     H11S     HDA2A    0.780000E-01   1.00800           0   0.00000       0.00000    
     18479 MEMB     102      POPE     C212     CD32A     2.07980       11.6110           0  -1.66000       1.30000    
     18480 MEMB     102      POPE     DC212    DRUD     -2.23580      0.400000           0   0.00000       0.00000    
     18481 MEMB     102      POPE     H12R     HDA2A    0.780000E-01   1.00800           0   0.00000       0.00000    
     18482 MEMB     102      POPE     H12S     HDA2A    0.780000E-01   1.00800           0   0.00000       0.00000    
     18483 MEMB     102      POPE     C213     CD32A     2.07980       11.6110           0  -1.66000       1.30000    
     18484 MEMB     102      POPE     DC213    DRUD     -2.23580      0.400000           0   0.00000       0.00000    
     18485 MEMB     102      POPE     H13R     HDA2A    0.780000E-01   1.00800           0   0.00000       0.00000    
     18486 MEMB     102      POPE     H13S     HDA2A    0.780000E-01   1.00800           0   0.00000       0.00000    
     18487 MEMB     102      POPE     C214     CD32A     2.07980       11.6110           0  -1.66000       1.30000    
     18488 MEMB     102      POPE     DC214    DRUD     -2.23580      0.400000           0   0.00000       0.00000    
     18489 MEMB     102      POPE     H14R     HDA2A    0.780000E-01   1.00800           0   0.00000       0.00000    
     18490 MEMB     102      POPE     H14S     HDA2A    0.780000E-01   1.00800           0   0.00000       0.00000    
     18491 MEMB     102      POPE     C215     CD32A     2.07980       11.6110           0  -1.66000       1.30000    
     18492 MEMB     102      POPE     DC215    DRUD     -2.23580      0.400000           0   0.00000       0.00000    
     18493 MEMB     102      POPE     H15R     HDA2A    0.780000E-01   1.00800           0   0.00000       0.00000    
     18494 MEMB     102      POPE     H15S     HDA2A    0.780000E-01   1.00800           0   0.00000       0.00000    
     18495 MEMB     102      POPE     C216     CD32A     2.07980       11.6110           0  -1.66000       1.30000    
     18496 MEMB     102      POPE     DC216    DRUD     -2.23580      0.400000           0   0.00000       0.00000    
     18497 MEMB     102      POPE     H16R     HDA2A    0.780000E-01   1.00800           0   0.00000       0.00000    
     18498 MEMB     102      POPE     H16S     HDA2A    0.780000E-01   1.00800           0   0.00000       0.00000    
     18499 MEMB     102      POPE     C217     CD32A     2.07980       11.6110           0  -1.66000       1.30000    
     18500 MEMB     102      POPE     DC217    DRUD     -2.23580      0.400000           0   0.00000       0.00000    
     18501 MEMB     102      POPE     H17R     HDA2A    0.780000E-01   1.00800           0   0.00000       0.00000    
     18502 MEMB     102      POPE     H17S     HDA2A    0.780000E-01   1.00800           0   0.00000       0.00000    
     18503 MEMB     102      POPE     C218     CD33A     2.30820       11.6110           0  -2.05100       1.30000    
     18504 MEMB     102      POPE     DC218    DRUD     -2.48520      0.400000           0   0.00000       0.00000    
     18505 MEMB     102      POPE     H18R     HDA3A    0.590000E-01   1.00800           0   0.00000       0.00000    
     18506 MEMB     102      POPE     H18S     HDA3A    0.590000E-01   1.00800           0   0.00000       0.00000    
     18507 MEMB     102      POPE     H18T     HDA3A    0.590000E-01   1.00800           0   0.00000       0.00000    
     18508 MEMB     102      POPE     C33      CD32A     2.07980       11.6110           0  -1.66000       1.30000    
     18509 MEMB     102      POPE     DC33     DRUD     -2.23580      0.400000           0   0.00000       0.00000    
     18510 MEMB     102      POPE     H3X      HDA2A    0.780000E-01   1.00800           0   0.00000       0.00000    
     18511 MEMB     102      POPE     H3Y      HDA2A    0.780000E-01   1.00800           0   0.00000       0.00000    
     18512 MEMB     102      POPE     C34      CD32A     2.07980       11.6110           0  -1.66000       1.30000    
     18513 MEMB     102      POPE     DC34     DRUD     -2.23580      0.400000           0   0.00000       0.00000    
     18514 MEMB     102      POPE     H4X      HDA2A    0.780000E-01   1.00800           0   0.00000       0.00000    
     18515 MEMB     102      POPE     H4Y      HDA2A    0.780000E-01   1.00800           0   0.00000       0.00000    
     18516 MEMB     102      POPE     C35      CD32A     2.07980       11.6110           0  -1.66000       1.30000    
     18517 MEMB     102      POPE     DC35     DRUD     -2.23580      0.400000           0   0.00000       0.00000    
     18518 MEMB     102      POPE     H5X      HDA2A    0.780000E-01   1.00800           0   0.00000       0.00000    
     18519 MEMB     102      POPE     H5Y      HDA2A    0.780000E-01   1.00800           0   0.00000       0.00000    
     18520 MEMB     102      POPE     C36      CD32A     2.07980       11.6110           0  -1.66000       1.30000    
     18521 MEMB     102      POPE     DC36     DRUD     -2.23580      0.400000           0   0.00000       0.00000    
     18522 MEMB     102      POPE     H6X      HDA2A    0.780000E-01   1.00800           0   0.00000       0.00000    
     18523 MEMB     102      POPE     H6Y      HDA2A    0.780000E-01   1.00800           0   0.00000       0.00000    
     18524 MEMB     102      POPE     C37      CD32A     2.07980       11.6110           0  -1.66000       1.30000    
     18525 MEMB     102      POPE     DC37     DRUD     -2.23580      0.400000           0   0.00000       0.00000    
     18526 MEMB     102      POPE     H7X      HDA2A    0.780000E-01   1.00800           0   0.00000       0.00000    
     18527 MEMB     102      POPE     H7Y      HDA2A    0.780000E-01   1.00800           0   0.00000       0.00000    
     18528 MEMB     102      POPE     C38      CD32A     2.07980       11.6110           0  -1.66000       1.30000    
     18529 MEMB     102      POPE     DC38     DRUD     -2.23580      0.400000           0   0.00000       0.00000    
     18530 MEMB     102      POPE     H8X      HDA2A    0.780000E-01   1.00800           0   0.00000       0.00000    
     18531 MEMB     102      POPE     H8Y      HDA2A    0.780000E-01   1.00800           0   0.00000       0.00000    
     18532 MEMB     102      POPE     C39      CD32A     2.07980       11.6110           0  -1.66000       1.30000    
     18533 MEMB     102      POPE     DC39     DRUD     -2.23580      0.400000           0   0.00000       0.00000    
     18534 MEMB     102      POPE     H9X      HDA2A    0.780000E-01   1.00800           0   0.00000       0.00000    
     18535 MEMB     102      POPE     H9Y      HDA2A    0.780000E-01   1.00800           0   0.00000       0.00000    
     18536 MEMB     102      POPE     C310     CD32A     2.07980       11.6110           0  -1.66000       1.30000    
     18537 MEMB     102      POPE     DC310    DRUD     -2.23580      0.400000           0   0.00000       0.00000    
     18538 MEMB     102      POPE     H10X     HDA2A    0.780000E-01   1.00800           0   0.00000       0.00000    
     18539 MEMB     102      POPE     H10Y     HDA2A    0.780000E-01   1.00800           0   0.00000       0.00000    
     18540 MEMB     102      POPE     C311     CD32A     2.07980       11.6110           0  -1.66000       1.30000    
     18541 MEMB     102      POPE     DC311    DRUD     -2.23580      0.400000           0   0.00000       0.00000    
     18542 MEMB     102      POPE     H11X     HDA2A    0.780000E-01   1.00800           0   0.00000       0.00000    
     18543 MEMB     102      POPE     H11Y     HDA2A    0.780000E-01   1.00800           0   0.00000       0.00000    
     18544 MEMB     102      POPE     C312     CD32A     2.07980       11.6110           0  -1.66000       1.30000    
     18545 MEMB     102      POPE     DC312    DRUD     -2.23580      0.400000           0   0.00000       0.00000    
     18546 MEMB     102      POPE     H12X     HDA2A    0.780000E-01   1.00800           0   0.00000       0.00000    
     18547 MEMB     102      POPE     H12Y     HDA2A    0.780000E-01   1.00800           0   0.00000       0.00000    
     18548 MEMB     102      POPE     C313     CD32A     2.07980       11.6110           0  -1.66000       1.30000    
     18549 MEMB     102      POPE     DC313    DRUD     -2.23580      0.400000           0   0.00000       0.00000    
     18550 MEMB     102      POPE     H13X     HDA2A    0.780000E-01   1.00800           0   0.00000       0.00000    
     18551 MEMB     102      POPE     H13Y     HDA2A    0.780000E-01   1.00800           0   0.00000       0.00000    
     18552 MEMB     102      POPE     C314     CD32A     2.07980       11.6110           0  -1.66000       1.30000    
     18553 MEMB     102      POPE     DC314    DRUD     -2.23580      0.400000           0   0.00000       0.00000    
     18554 MEMB     102      POPE     H14X     HDA2A    0.780000E-01   1.00800           0   0.00000       0.00000    
     18555 MEMB     102      POPE     H14Y     HDA2A    0.780000E-01   1.00800           0   0.00000       0.00000    
     18556 MEMB     102      POPE     C315     CD32A     2.07980       11.6110           0  -1.66000       1.30000    
     18557 MEMB     102      POPE     DC315    DRUD     -2.23580      0.400000           0   0.00000       0.00000    
     18558 MEMB     102      POPE     H15X     HDA2A    0.780000E-01   1.00800           0   0.00000       0.00000    
     18559 MEMB     102      POPE     H15Y     HDA2A    0.780000E-01   1.00800           0   0.00000       0.00000    
     18560 MEMB     102      POPE     C316     CD33A     2.30820       11.6110           0  -2.05100       1.30000    
     18561 MEMB     102      POPE     DC316    DRUD     -2.48520      0.400000           0   0.00000       0.00000    
     18562 MEMB     102      POPE     H16X     HDA3A    0.590000E-01   1.00800           0   0.00000       0.00000    
     18563 MEMB     102      POPE     H16Y     HDA3A    0.590000E-01   1.00800           0   0.00000       0.00000    
     18564 MEMB     102      POPE     H16Z     HDA3A    0.590000E-01   1.00800           0   0.00000       0.00000    
     18565 MEMB     103      POPE     N        ND3P3A    1.62810       13.6070           0  -1.29800      0.895000    
     18566 MEMB     103      POPE     DN       DRUD     -1.97710      0.400000           0   0.00000       0.00000    
     18567 MEMB     103      POPE     HN1      HDP1B    0.340000       1.00800           0   0.00000       0.00000    
     18568 MEMB     103      POPE     HN2      HDP1B    0.340000       1.00800           0   0.00000       0.00000    
     18569 MEMB     103      POPE     HN3      HDP1B    0.340000       1.00800           0   0.00000       0.00000    
     18570 MEMB     103      POPE     C12      CD32A     2.27610       11.6110           0  -1.65600      0.895000    
     18571 MEMB     103      POPE     DC12     DRUD     -2.23310      0.400000           0   0.00000       0.00000    
     18572 MEMB     103      POPE     H12A     HDA2A    0.143000       1.00800           0   0.00000       0.00000    
     18573 MEMB     103      POPE     H12B     HDA2A    0.143000       1.00800           0   0.00000       0.00000    
     18574 MEMB     103      POPE     C11      CD32A     2.42220       11.6110           0  -1.64200      0.862000    
     18575 MEMB     103      POPE     DC11     DRUD     -2.22370      0.400000           0   0.00000       0.00000    
     18576 MEMB     103      POPE     H11A     HDA2A    0.260000E-01   1.00800           0   0.00000       0.00000    
     18577 MEMB     103      POPE     H11B     HDA2A    0.260000E-01   1.00800           0   0.00000       0.00000    
     18578 MEMB     103      POPE     P        PD1A      2.90360       30.5740           0 -0.974000       2.09800    
     18579 MEMB     103      POPE     DP       DRUD     -1.71260      0.400000           0   0.00000       0.00000    
     18580 MEMB     103      POPE     O13      OD2C2B   0.798400       15.5994           0 -0.931000       1.08300    
     18581 MEMB     103      POPE     DO13     DRUD     -1.67440      0.400000           0   0.00000       0.00000    
     18582 MEMB     103      POPE     O14      OD2C2B   0.798400       15.5994           0 -0.931000       1.08300    
     18583 MEMB     103      POPE     DO14     DRUD     -1.67440      0.400000           0   0.00000       0.00000    
     18584 MEMB     103      POPE     O11      OD30B     1.17720       15.5994           0 -0.901000      0.181000    
     18585 MEMB     103      POPE     DO11     DRUD     -1.64720      0.400000           0   0.00000       0.00000    
     18586 MEMB     103      POPE     O12      OD30B     1.17720       15.5994           0 -0.901000      0.181000    
     18587 MEMB     103      POPE     DO12     DRUD     -1.64720      0.400000           0   0.00000       0.00000    
     18588 MEMB     103      POPE     C1       CD32A     2.42220       11.6110           0  -1.64200      0.862000    
     18589 MEMB     103      POPE     DC1      DRUD     -2.22370      0.400000           0   0.00000       0.00000    
     18590 MEMB     103      POPE     HA       HDA2A    0.260000E-01   1.00800           0   0.00000       0.00000    
     18591 MEMB     103      POPE     HB       HDA2A    0.260000E-01   1.00800           0   0.00000       0.00000    
     18592 MEMB     103      POPE     C2       CD31C     2.52830       11.6110           0  -1.79700      0.410000    
     18593 MEMB     103      POPE     DC2      DRUD     -2.32630      0.400000           0   0.00000       0.00000    
     18594 MEMB     103      POPE     HS       HDA1A    0.116000       1.00800           0   0.00000       0.00000    
     18595 MEMB     103      POPE     O21      OD30CL    1.48470       15.5994           0 -0.732000      0.601000    
     18596 MEMB     103      POPE     DO21     DRUD     -1.48470      0.400000           0   0.00000       0.00000    
     18597 MEMB     103      POPE     C21      CD2O3B    2.72820       11.6110           0  -1.37000       1.74700    
     18598 MEMB     103      POPE     DC21     DRUD     -2.03120      0.400000           0   0.00000       0.00000    
     18599 MEMB     103      POPE     O22      OD2C3B    1.64990       15.5994           0 -0.904000      0.565000    
     18600 MEMB     103      POPE     DO22     DRUD     -1.64990      0.400000           0   0.00000       0.00000    
     18601 MEMB     103      POPE     C22      CD32C     2.24380       11.6110           0  -1.99300      0.410000    
     18602 MEMB     103      POPE     DC22     DRUD     -2.44980      0.400000           0   0.00000       0.00000    
     18603 MEMB     103      POPE     H2R      HDA2A    0.690000E-01   1.00800           0   0.00000       0.00000    
     18604 MEMB     103      POPE     H2S      HDA2A    0.690000E-01   1.00800           0   0.00000       0.00000    
     18605 MEMB     103      POPE     LP1A     LPD     -0.349000       0.00000          -1   0.00000       0.00000    
     18606 MEMB     103      POPE     LP1B     LPD     -0.258000       0.00000          -1   0.00000       0.00000    
     18607 MEMB     103      POPE     LPMA     LPD     -0.170000       0.00000          -1   0.00000       0.00000    
     18608 MEMB     103      POPE     LPMB     LPD     -0.170000       0.00000          -1   0.00000       0.00000    
     18609 MEMB     103      POPE     C3       CD32C     2.41230       11.6110           0  -1.79700      0.410000    
     18610 MEMB     103      POPE     DC3      DRUD     -2.32630      0.400000           0   0.00000       0.00000    
     18611 MEMB     103      POPE     HX       HDA2A    0.116000       1.00800           0   0.00000       0.00000    
     18612 MEMB     103      POPE     HY       HDA2A    0.116000       1.00800           0   0.00000       0.00000    
     18613 MEMB     103      POPE     O31      OD30CL    1.48470       15.5994           0 -0.732000      0.601000    
     18614 MEMB     103      POPE     DO31     DRUD     -1.48470      0.400000           0   0.00000       0.00000    
     18615 MEMB     103      POPE     C31      CD2O3B    2.72820       11.6110           0  -1.37000       1.74700    
     18616 MEMB     103      POPE     DC31     DRUD     -2.03120      0.400000           0   0.00000       0.00000    
     18617 MEMB     103      POPE     O32      OD2C3B    1.64990       15.5994           0 -0.904000      0.565000    
     18618 MEMB     103      POPE     DO32     DRUD     -1.64990      0.400000           0   0.00000       0.00000    
     18619 MEMB     103      POPE     C32      CD32C     2.24380       11.6110           0  -1.99300      0.410000    
     18620 MEMB     103      POPE     DC32     DRUD     -2.44980      0.400000           0   0.00000       0.00000    
     18621 MEMB     103      POPE     H2X      HDA2A    0.690000E-01   1.00800           0   0.00000       0.00000    
     18622 MEMB     103      POPE     H2Y      HDA2A    0.690000E-01   1.00800           0   0.00000       0.00000    
     18623 MEMB     103      POPE     LP1C     LPD     -0.349000       0.00000          -1   0.00000       0.00000    
     18624 MEMB     103      POPE     LP1D     LPD     -0.258000       0.00000          -1   0.00000       0.00000    
     18625 MEMB     103      POPE     LPMC     LPD     -0.170000       0.00000          -1   0.00000       0.00000    
     18626 MEMB     103      POPE     LPMD     LPD     -0.170000       0.00000          -1   0.00000       0.00000    
     18627 MEMB     103      POPE     C23      CD32A     2.07980       11.6110           0  -1.66000       1.30000    
     18628 MEMB     103      POPE     DC23     DRUD     -2.23580      0.400000           0   0.00000       0.00000    
     18629 MEMB     103      POPE     H3R      HDA2A    0.780000E-01   1.00800           0   0.00000       0.00000    
     18630 MEMB     103      POPE     H3S      HDA2A    0.780000E-01   1.00800           0   0.00000       0.00000    
     18631 MEMB     103      POPE     C24      CD32A     2.07980       11.6110           0  -1.66000       1.30000    
     18632 MEMB     103      POPE     DC24     DRUD     -2.23580      0.400000           0   0.00000       0.00000    
     18633 MEMB     103      POPE     H4R      HDA2A    0.780000E-01   1.00800           0   0.00000       0.00000    
     18634 MEMB     103      POPE     H4S      HDA2A    0.780000E-01   1.00800           0   0.00000       0.00000    
     18635 MEMB     103      POPE     C25      CD32A     2.07980       11.6110           0  -1.66000       1.30000    
     18636 MEMB     103      POPE     DC25     DRUD     -2.23580      0.400000           0   0.00000       0.00000    
     18637 MEMB     103      POPE     H5R      HDA2A    0.780000E-01   1.00800           0   0.00000       0.00000    
     18638 MEMB     103      POPE     H5S      HDA2A    0.780000E-01   1.00800           0   0.00000       0.00000    
     18639 MEMB     103      POPE     C26      CD32A     2.07980       11.6110           0  -1.66000       1.30000    
     18640 MEMB     103      POPE     DC26     DRUD     -2.23580      0.400000           0   0.00000       0.00000    
     18641 MEMB     103      POPE     H6R      HDA2A    0.780000E-01   1.00800           0   0.00000       0.00000    
     18642 MEMB     103      POPE     H6S      HDA2A    0.780000E-01   1.00800           0   0.00000       0.00000    
     18643 MEMB     103      POPE     C27      CD32A     2.07980       11.6110           0  -1.66000       1.30000    
     18644 MEMB     103      POPE     DC27     DRUD     -2.23580      0.400000           0   0.00000       0.00000    
     18645 MEMB     103      POPE     H7R      HDA2A    0.780000E-01   1.00800           0   0.00000       0.00000    
     18646 MEMB     103      POPE     H7S      HDA2A    0.780000E-01   1.00800           0   0.00000       0.00000    
     18647 MEMB     103      POPE     C28      CD32A     2.07980       11.6110           0  -1.66000       1.30000    
     18648 MEMB     103      POPE     DC28     DRUD     -2.23580      0.400000           0   0.00000       0.00000    
     18649 MEMB     103      POPE     H8R      HDA2A    0.780000E-01   1.00800           0   0.00000       0.00000    
     18650 MEMB     103      POPE     H8S      HDA2A    0.780000E-01   1.00800           0   0.00000       0.00000    
     18651 MEMB     103      POPE     C29      CD2C1A    2.33700       11.6110           0  -1.99000      0.750000    
     18652 MEMB     103      POPE     DC29     DRUD     -2.44800      0.400000           0   0.00000       0.00000    
     18653 MEMB     103      POPE     H91      HD2C1A   0.111000       1.00800           0   0.00000       0.00000    
     18654 MEMB     103      POPE     C210     CD2C1A    2.33700       11.6110           0  -1.99000      0.750000    
     18655 MEMB     103      POPE     DC210    DRUD     -2.44800      0.400000           0   0.00000       0.00000    
     18656 MEMB     103      POPE     H101     HD2C1A   0.111000       1.00800           0   0.00000       0.00000    
     18657 MEMB     103      POPE     C211     CD32A     2.07980       11.6110           0  -1.66000       1.30000    
     18658 MEMB     103      POPE     DC211    DRUD     -2.23580      0.400000           0   0.00000       0.00000    
     18659 MEMB     103      POPE     H11R     HDA2A    0.780000E-01   1.00800           0   0.00000       0.00000    
     18660 MEMB     103      POPE     H11S     HDA2A    0.780000E-01   1.00800           0   0.00000       0.00000    
     18661 MEMB     103      POPE     C212     CD32A     2.07980       11.6110           0  -1.66000       1.30000    
     18662 MEMB     103      POPE     DC212    DRUD     -2.23580      0.400000           0   0.00000       0.00000    
     18663 MEMB     103      POPE     H12R     HDA2A    0.780000E-01   1.00800           0   0.00000       0.00000    
     18664 MEMB     103      POPE     H12S     HDA2A    0.780000E-01   1.00800           0   0.00000       0.00000    
     18665 MEMB     103      POPE     C213     CD32A     2.07980       11.6110           0  -1.66000       1.30000    
     18666 MEMB     103      POPE     DC213    DRUD     -2.23580      0.400000           0   0.00000       0.00000    
     18667 MEMB     103      POPE     H13R     HDA2A    0.780000E-01   1.00800           0   0.00000       0.00000    
     18668 MEMB     103      POPE     H13S     HDA2A    0.780000E-01   1.00800           0   0.00000       0.00000    
     18669 MEMB     103      POPE     C214     CD32A     2.07980       11.6110           0  -1.66000       1.30000    
     18670 MEMB     103      POPE     DC214    DRUD     -2.23580      0.400000           0   0.00000       0.00000    
     18671 MEMB     103      POPE     H14R     HDA2A    0.780000E-01   1.00800           0   0.00000       0.00000    
     18672 MEMB     103      POPE     H14S     HDA2A    0.780000E-01   1.00800           0   0.00000       0.00000    
     18673 MEMB     103      POPE     C215     CD32A     2.07980       11.6110           0  -1.66000       1.30000    
     18674 MEMB     103      POPE     DC215    DRUD     -2.23580      0.400000           0   0.00000       0.00000    
     18675 MEMB     103      POPE     H15R     HDA2A    0.780000E-01   1.00800           0   0.00000       0.00000    
     18676 MEMB     103      POPE     H15S     HDA2A    0.780000E-01   1.00800           0   0.00000       0.00000    
     18677 MEMB     103      POPE     C216     CD32A     2.07980       11.6110           0  -1.66000       1.30000    
     18678 MEMB     103      POPE     DC216    DRUD     -2.23580      0.400000           0   0.00000       0.00000    
     18679 MEMB     103      POPE     H16R     HDA2A    0.780000E-01   1.00800           0   0.00000       0.00000    
     18680 MEMB     103      POPE     H16S     HDA2A    0.780000E-01   1.00800           0   0.00000       0.00000    
     18681 MEMB     103      POPE     C217     CD32A     2.07980       11.6110           0  -1.66000       1.30000    
     18682 MEMB     103      POPE     DC217    DRUD     -2.23580      0.400000           0   0.00000       0.00000    
     18683 MEMB     103      POPE     H17R     HDA2A    0.780000E-01   1.00800           0   0.00000       0.00000    
     18684 MEMB     103      POPE     H17S     HDA2A    0.780000E-01   1.00800           0   0.00000       0.00000    
     18685 MEMB     103      POPE     C218     CD33A     2.30820       11.6110           0  -2.05100       1.30000    
     18686 MEMB     103      POPE     DC218    DRUD     -2.48520      0.400000           0   0.00000       0.00000    
     18687 MEMB     103      POPE     H18R     HDA3A    0.590000E-01   1.00800           0   0.00000       0.00000    
     18688 MEMB     103      POPE     H18S     HDA3A    0.590000E-01   1.00800           0   0.00000       0.00000    
     18689 MEMB     103      POPE     H18T     HDA3A    0.590000E-01   1.00800           0   0.00000       0.00000    
     18690 MEMB     103      POPE     C33      CD32A     2.07980       11.6110           0  -1.66000       1.30000    
     18691 MEMB     103      POPE     DC33     DRUD     -2.23580      0.400000           0   0.00000       0.00000    
     18692 MEMB     103      POPE     H3X      HDA2A    0.780000E-01   1.00800           0   0.00000       0.00000    
     18693 MEMB     103      POPE     H3Y      HDA2A    0.780000E-01   1.00800           0   0.00000       0.00000    
     18694 MEMB     103      POPE     C34      CD32A     2.07980       11.6110           0  -1.66000       1.30000    
     18695 MEMB     103      POPE     DC34     DRUD     -2.23580      0.400000           0   0.00000       0.00000    
     18696 MEMB     103      POPE     H4X      HDA2A    0.780000E-01   1.00800           0   0.00000       0.00000    
     18697 MEMB     103      POPE     H4Y      HDA2A    0.780000E-01   1.00800           0   0.00000       0.00000    
     18698 MEMB     103      POPE     C35      CD32A     2.07980       11.6110           0  -1.66000       1.30000    
     18699 MEMB     103      POPE     DC35     DRUD     -2.23580      0.400000           0   0.00000       0.00000    
     18700 MEMB     103      POPE     H5X      HDA2A    0.780000E-01   1.00800           0   0.00000       0.00000    
     18701 MEMB     103      POPE     H5Y      HDA2A    0.780000E-01   1.00800           0   0.00000       0.00000    
     18702 MEMB     103      POPE     C36      CD32A     2.07980       11.6110           0  -1.66000       1.30000    
     18703 MEMB     103      POPE     DC36     DRUD     -2.23580      0.400000           0   0.00000       0.00000    
     18704 MEMB     103      POPE     H6X      HDA2A    0.780000E-01   1.00800           0   0.00000       0.00000    
     18705 MEMB     103      POPE     H6Y      HDA2A    0.780000E-01   1.00800           0   0.00000       0.00000    
     18706 MEMB     103      POPE     C37      CD32A     2.07980       11.6110           0  -1.66000       1.30000    
     18707 MEMB     103      POPE     DC37     DRUD     -2.23580      0.400000           0   0.00000       0.00000    
     18708 MEMB     103      POPE     H7X      HDA2A    0.780000E-01   1.00800           0   0.00000       0.00000    
     18709 MEMB     103      POPE     H7Y      HDA2A    0.780000E-01   1.00800           0   0.00000       0.00000    
     18710 MEMB     103      POPE     C38      CD32A     2.07980       11.6110           0  -1.66000       1.30000    
     18711 MEMB     103      POPE     DC38     DRUD     -2.23580      0.400000           0   0.00000       0.00000    
     18712 MEMB     103      POPE     H8X      HDA2A    0.780000E-01   1.00800           0   0.00000       0.00000    
     18713 MEMB     103      POPE     H8Y      HDA2A    0.780000E-01   1.00800           0   0.00000       0.00000    
     18714 MEMB     103      POPE     C39      CD32A     2.07980       11.6110           0  -1.66000       1.30000    
     18715 MEMB     103      POPE     DC39     DRUD     -2.23580      0.400000           0   0.00000       0.00000    
     18716 MEMB     103      POPE     H9X      HDA2A    0.780000E-01   1.00800           0   0.00000       0.00000    
     18717 MEMB     103      POPE     H9Y      HDA2A    0.780000E-01   1.00800           0   0.00000       0.00000    
     18718 MEMB     103      POPE     C310     CD32A     2.07980       11.6110           0  -1.66000       1.30000    
     18719 MEMB     103      POPE     DC310    DRUD     -2.23580      0.400000           0   0.00000       0.00000    
     18720 MEMB     103      POPE     H10X     HDA2A    0.780000E-01   1.00800           0   0.00000       0.00000    
     18721 MEMB     103      POPE     H10Y     HDA2A    0.780000E-01   1.00800           0   0.00000       0.00000    
     18722 MEMB     103      POPE     C311     CD32A     2.07980       11.6110           0  -1.66000       1.30000    
     18723 MEMB     103      POPE     DC311    DRUD     -2.23580      0.400000           0   0.00000       0.00000    
     18724 MEMB     103      POPE     H11X     HDA2A    0.780000E-01   1.00800           0   0.00000       0.00000    
     18725 MEMB     103      POPE     H11Y     HDA2A    0.780000E-01   1.00800           0   0.00000       0.00000    
     18726 MEMB     103      POPE     C312     CD32A     2.07980       11.6110           0  -1.66000       1.30000    
     18727 MEMB     103      POPE     DC312    DRUD     -2.23580      0.400000           0   0.00000       0.00000    
     18728 MEMB     103      POPE     H12X     HDA2A    0.780000E-01   1.00800           0   0.00000       0.00000    
     18729 MEMB     103      POPE     H12Y     HDA2A    0.780000E-01   1.00800           0   0.00000       0.00000    
     18730 MEMB     103      POPE     C313     CD32A     2.07980       11.6110           0  -1.66000       1.30000    
     18731 MEMB     103      POPE     DC313    DRUD     -2.23580      0.400000           0   0.00000       0.00000    
     18732 MEMB     103      POPE     H13X     HDA2A    0.780000E-01   1.00800           0   0.00000       0.00000    
     18733 MEMB     103      POPE     H13Y     HDA2A    0.780000E-01   1.00800           0   0.00000       0.00000    
     18734 MEMB     103      POPE     C314     CD32A     2.07980       11.6110           0  -1.66000       1.30000    
     18735 MEMB     103      POPE     DC314    DRUD     -2.23580      0.400000           0   0.00000       0.00000    
     18736 MEMB     103      POPE     H14X     HDA2A    0.780000E-01   1.00800           0   0.00000       0.00000    
     18737 MEMB     103      POPE     H14Y     HDA2A    0.780000E-01   1.00800           0   0.00000       0.00000    
     18738 MEMB     103      POPE     C315     CD32A     2.07980       11.6110           0  -1.66000       1.30000    
     18739 MEMB     103      POPE     DC315    DRUD     -2.23580      0.400000           0   0.00000       0.00000    
     18740 MEMB     103      POPE     H15X     HDA2A    0.780000E-01   1.00800           0   0.00000       0.00000    
     18741 MEMB     103      POPE     H15Y     HDA2A    0.780000E-01   1.00800           0   0.00000       0.00000    
     18742 MEMB     103      POPE     C316     CD33A     2.30820       11.6110           0  -2.05100       1.30000    
     18743 MEMB     103      POPE     DC316    DRUD     -2.48520      0.400000           0   0.00000       0.00000    
     18744 MEMB     103      POPE     H16X     HDA3A    0.590000E-01   1.00800           0   0.00000       0.00000    
     18745 MEMB     103      POPE     H16Y     HDA3A    0.590000E-01   1.00800           0   0.00000       0.00000    
     18746 MEMB     103      POPE     H16Z     HDA3A    0.590000E-01   1.00800           0   0.00000       0.00000    
     18747 MEMB     104      POPE     N        ND3P3A    1.62810       13.6070           0  -1.29800      0.895000    
     18748 MEMB     104      POPE     DN       DRUD     -1.97710      0.400000           0   0.00000       0.00000    
     18749 MEMB     104      POPE     HN1      HDP1B    0.340000       1.00800           0   0.00000       0.00000    
     18750 MEMB     104      POPE     HN2      HDP1B    0.340000       1.00800           0   0.00000       0.00000    
     18751 MEMB     104      POPE     HN3      HDP1B    0.340000       1.00800           0   0.00000       0.00000    
     18752 MEMB     104      POPE     C12      CD32A     2.27610       11.6110           0  -1.65600      0.895000    
     18753 MEMB     104      POPE     DC12     DRUD     -2.23310      0.400000           0   0.00000       0.00000    
     18754 MEMB     104      POPE     H12A     HDA2A    0.143000       1.00800           0   0.00000       0.00000    
     18755 MEMB     104      POPE     H12B     HDA2A    0.143000       1.00800           0   0.00000       0.00000    
     18756 MEMB     104      POPE     C11      CD32A     2.42220       11.6110           0  -1.64200      0.862000    
     18757 MEMB     104      POPE     DC11     DRUD     -2.22370      0.400000           0   0.00000       0.00000    
     18758 MEMB     104      POPE     H11A     HDA2A    0.260000E-01   1.00800           0   0.00000       0.00000    
     18759 MEMB     104      POPE     H11B     HDA2A    0.260000E-01   1.00800           0   0.00000       0.00000    
     18760 MEMB     104      POPE     P        PD1A      2.90360       30.5740           0 -0.974000       2.09800    
     18761 MEMB     104      POPE     DP       DRUD     -1.71260      0.400000           0   0.00000       0.00000    
     18762 MEMB     104      POPE     O13      OD2C2B   0.798400       15.5994           0 -0.931000       1.08300    
     18763 MEMB     104      POPE     DO13     DRUD     -1.67440      0.400000           0   0.00000       0.00000    
     18764 MEMB     104      POPE     O14      OD2C2B   0.798400       15.5994           0 -0.931000       1.08300    
     18765 MEMB     104      POPE     DO14     DRUD     -1.67440      0.400000           0   0.00000       0.00000    
     18766 MEMB     104      POPE     O11      OD30B     1.17720       15.5994           0 -0.901000      0.181000    
     18767 MEMB     104      POPE     DO11     DRUD     -1.64720      0.400000           0   0.00000       0.00000    
     18768 MEMB     104      POPE     O12      OD30B     1.17720       15.5994           0 -0.901000      0.181000    
     18769 MEMB     104      POPE     DO12     DRUD     -1.64720      0.400000           0   0.00000       0.00000    
     18770 MEMB     104      POPE     C1       CD32A     2.42220       11.6110           0  -1.64200      0.862000    
     18771 MEMB     104      POPE     DC1      DRUD     -2.22370      0.400000           0   0.00000       0.00000    
     18772 MEMB     104      POPE     HA       HDA2A    0.260000E-01   1.00800           0   0.00000       0.00000    
     18773 MEMB     104      POPE     HB       HDA2A    0.260000E-01   1.00800           0   0.00000       0.00000    
     18774 MEMB     104      POPE     C2       CD31C     2.52830       11.6110           0  -1.79700      0.410000    
     18775 MEMB     104      POPE     DC2      DRUD     -2.32630      0.400000           0   0.00000       0.00000    
     18776 MEMB     104      POPE     HS       HDA1A    0.116000       1.00800           0   0.00000       0.00000    
     18777 MEMB     104      POPE     O21      OD30CL    1.48470       15.5994           0 -0.732000      0.601000    
     18778 MEMB     104      POPE     DO21     DRUD     -1.48470      0.400000           0   0.00000       0.00000    
     18779 MEMB     104      POPE     C21      CD2O3B    2.72820       11.6110           0  -1.37000       1.74700    
     18780 MEMB     104      POPE     DC21     DRUD     -2.03120      0.400000           0   0.00000       0.00000    
     18781 MEMB     104      POPE     O22      OD2C3B    1.64990       15.5994           0 -0.904000      0.565000    
     18782 MEMB     104      POPE     DO22     DRUD     -1.64990      0.400000           0   0.00000       0.00000    
     18783 MEMB     104      POPE     C22      CD32C     2.24380       11.6110           0  -1.99300      0.410000    
     18784 MEMB     104      POPE     DC22     DRUD     -2.44980      0.400000           0   0.00000       0.00000    
     18785 MEMB     104      POPE     H2R      HDA2A    0.690000E-01   1.00800           0   0.00000       0.00000    
     18786 MEMB     104      POPE     H2S      HDA2A    0.690000E-01   1.00800           0   0.00000       0.00000    
     18787 MEMB     104      POPE     LP1A     LPD     -0.349000       0.00000          -1   0.00000       0.00000    
     18788 MEMB     104      POPE     LP1B     LPD     -0.258000       0.00000          -1   0.00000       0.00000    
     18789 MEMB     104      POPE     LPMA     LPD     -0.170000       0.00000          -1   0.00000       0.00000    
     18790 MEMB     104      POPE     LPMB     LPD     -0.170000       0.00000          -1   0.00000       0.00000    
     18791 MEMB     104      POPE     C3       CD32C     2.41230       11.6110           0  -1.79700      0.410000    
     18792 MEMB     104      POPE     DC3      DRUD     -2.32630      0.400000           0   0.00000       0.00000    
     18793 MEMB     104      POPE     HX       HDA2A    0.116000       1.00800           0   0.00000       0.00000    
     18794 MEMB     104      POPE     HY       HDA2A    0.116000       1.00800           0   0.00000       0.00000    
     18795 MEMB     104      POPE     O31      OD30CL    1.48470       15.5994           0 -0.732000      0.601000    
     18796 MEMB     104      POPE     DO31     DRUD     -1.48470      0.400000           0   0.00000       0.00000    
     18797 MEMB     104      POPE     C31      CD2O3B    2.72820       11.6110           0  -1.37000       1.74700    
     18798 MEMB     104      POPE     DC31     DRUD     -2.03120      0.400000           0   0.00000       0.00000    
     18799 MEMB     104      POPE     O32      OD2C3B    1.64990       15.5994           0 -0.904000      0.565000    
     18800 MEMB     104      POPE     DO32     DRUD     -1.64990      0.400000           0   0.00000       0.00000    
     18801 MEMB     104      POPE     C32      CD32C     2.24380       11.6110           0  -1.99300      0.410000    
     18802 MEMB     104      POPE     DC32     DRUD     -2.44980      0.400000           0   0.00000       0.00000    
     18803 MEMB     104      POPE     H2X      HDA2A    0.690000E-01   1.00800           0   0.00000       0.00000    
     18804 MEMB     104      POPE     H2Y      HDA2A    0.690000E-01   1.00800           0   0.00000       0.00000    
     18805 MEMB     104      POPE     LP1C     LPD     -0.349000       0.00000          -1   0.00000       0.00000    
     18806 MEMB     104      POPE     LP1D     LPD     -0.258000       0.00000          -1   0.00000       0.00000    
     18807 MEMB     104      POPE     LPMC     LPD     -0.170000       0.00000          -1   0.00000       0.00000    
     18808 MEMB     104      POPE     LPMD     LPD     -0.170000       0.00000          -1   0.00000       0.00000    
     18809 MEMB     104      POPE     C23      CD32A     2.07980       11.6110           0  -1.66000       1.30000    
     18810 MEMB     104      POPE     DC23     DRUD     -2.23580      0.400000           0   0.00000       0.00000    
     18811 MEMB     104      POPE     H3R      HDA2A    0.780000E-01   1.00800           0   0.00000       0.00000    
     18812 MEMB     104      POPE     H3S      HDA2A    0.780000E-01   1.00800           0   0.00000       0.00000    
     18813 MEMB     104      POPE     C24      CD32A     2.07980       11.6110           0  -1.66000       1.30000    
     18814 MEMB     104      POPE     DC24     DRUD     -2.23580      0.400000           0   0.00000       0.00000    
     18815 MEMB     104      POPE     H4R      HDA2A    0.780000E-01   1.00800           0   0.00000       0.00000    
     18816 MEMB     104      POPE     H4S      HDA2A    0.780000E-01   1.00800           0   0.00000       0.00000    
     18817 MEMB     104      POPE     C25      CD32A     2.07980       11.6110           0  -1.66000       1.30000    
     18818 MEMB     104      POPE     DC25     DRUD     -2.23580      0.400000           0   0.00000       0.00000    
     18819 MEMB     104      POPE     H5R      HDA2A    0.780000E-01   1.00800           0   0.00000       0.00000    
     18820 MEMB     104      POPE     H5S      HDA2A    0.780000E-01   1.00800           0   0.00000       0.00000    
     18821 MEMB     104      POPE     C26      CD32A     2.07980       11.6110           0  -1.66000       1.30000    
     18822 MEMB     104      POPE     DC26     DRUD     -2.23580      0.400000           0   0.00000       0.00000    
     18823 MEMB     104      POPE     H6R      HDA2A    0.780000E-01   1.00800           0   0.00000       0.00000    
     18824 MEMB     104      POPE     H6S      HDA2A    0.780000E-01   1.00800           0   0.00000       0.00000    
     18825 MEMB     104      POPE     C27      CD32A     2.07980       11.6110           0  -1.66000       1.30000    
     18826 MEMB     104      POPE     DC27     DRUD     -2.23580      0.400000           0   0.00000       0.00000    
     18827 MEMB     104      POPE     H7R      HDA2A    0.780000E-01   1.00800           0   0.00000       0.00000    
     18828 MEMB     104      POPE     H7S      HDA2A    0.780000E-01   1.00800           0   0.00000       0.00000    
     18829 MEMB     104      POPE     C28      CD32A     2.07980       11.6110           0  -1.66000       1.30000    
     18830 MEMB     104      POPE     DC28     DRUD     -2.23580      0.400000           0   0.00000       0.00000    
     18831 MEMB     104      POPE     H8R      HDA2A    0.780000E-01   1.00800           0   0.00000       0.00000    
     18832 MEMB     104      POPE     H8S      HDA2A    0.780000E-01   1.00800           0   0.00000       0.00000    
     18833 MEMB     104      POPE     C29      CD2C1A    2.33700       11.6110           0  -1.99000      0.750000    
     18834 MEMB     104      POPE     DC29     DRUD     -2.44800      0.400000           0   0.00000       0.00000    
     18835 MEMB     104      POPE     H91      HD2C1A   0.111000       1.00800           0   0.00000       0.00000    
     18836 MEMB     104      POPE     C210     CD2C1A    2.33700       11.6110           0  -1.99000      0.750000    
     18837 MEMB     104      POPE     DC210    DRUD     -2.44800      0.400000           0   0.00000       0.00000    
     18838 MEMB     104      POPE     H101     HD2C1A   0.111000       1.00800           0   0.00000       0.00000    
     18839 MEMB     104      POPE     C211     CD32A     2.07980       11.6110           0  -1.66000       1.30000    
     18840 MEMB     104      POPE     DC211    DRUD     -2.23580      0.400000           0   0.00000       0.00000    
     18841 MEMB     104      POPE     H11R     HDA2A    0.780000E-01   1.00800           0   0.00000       0.00000    
     18842 MEMB     104      POPE     H11S     HDA2A    0.780000E-01   1.00800           0   0.00000       0.00000    
     18843 MEMB     104      POPE     C212     CD32A     2.07980       11.6110           0  -1.66000       1.30000    
     18844 MEMB     104      POPE     DC212    DRUD     -2.23580      0.400000           0   0.00000       0.00000    
     18845 MEMB     104      POPE     H12R     HDA2A    0.780000E-01   1.00800           0   0.00000       0.00000    
     18846 MEMB     104      POPE     H12S     HDA2A    0.780000E-01   1.00800           0   0.00000       0.00000    
     18847 MEMB     104      POPE     C213     CD32A     2.07980       11.6110           0  -1.66000       1.30000    
     18848 MEMB     104      POPE     DC213    DRUD     -2.23580      0.400000           0   0.00000       0.00000    
     18849 MEMB     104      POPE     H13R     HDA2A    0.780000E-01   1.00800           0   0.00000       0.00000    
     18850 MEMB     104      POPE     H13S     HDA2A    0.780000E-01   1.00800           0   0.00000       0.00000    
     18851 MEMB     104      POPE     C214     CD32A     2.07980       11.6110           0  -1.66000       1.30000    
     18852 MEMB     104      POPE     DC214    DRUD     -2.23580      0.400000           0   0.00000       0.00000    
     18853 MEMB     104      POPE     H14R     HDA2A    0.780000E-01   1.00800           0   0.00000       0.00000    
     18854 MEMB     104      POPE     H14S     HDA2A    0.780000E-01   1.00800           0   0.00000       0.00000    
     18855 MEMB     104      POPE     C215     CD32A     2.07980       11.6110           0  -1.66000       1.30000    
     18856 MEMB     104      POPE     DC215    DRUD     -2.23580      0.400000           0   0.00000       0.00000    
     18857 MEMB     104      POPE     H15R     HDA2A    0.780000E-01   1.00800           0   0.00000       0.00000    
     18858 MEMB     104      POPE     H15S     HDA2A    0.780000E-01   1.00800           0   0.00000       0.00000    
     18859 MEMB     104      POPE     C216     CD32A     2.07980       11.6110           0  -1.66000       1.30000    
     18860 MEMB     104      POPE     DC216    DRUD     -2.23580      0.400000           0   0.00000       0.00000    
     18861 MEMB     104      POPE     H16R     HDA2A    0.780000E-01   1.00800           0   0.00000       0.00000    
     18862 MEMB     104      POPE     H16S     HDA2A    0.780000E-01   1.00800           0   0.00000       0.00000    
     18863 MEMB     104      POPE     C217     CD32A     2.07980       11.6110           0  -1.66000       1.30000    
     18864 MEMB     104      POPE     DC217    DRUD     -2.23580      0.400000           0   0.00000       0.00000    
     18865 MEMB     104      POPE     H17R     HDA2A    0.780000E-01   1.00800           0   0.00000       0.00000    
     18866 MEMB     104      POPE     H17S     HDA2A    0.780000E-01   1.00800           0   0.00000       0.00000    
     18867 MEMB     104      POPE     C218     CD33A     2.30820       11.6110           0  -2.05100       1.30000    
     18868 MEMB     104      POPE     DC218    DRUD     -2.48520      0.400000           0   0.00000       0.00000    
     18869 MEMB     104      POPE     H18R     HDA3A    0.590000E-01   1.00800           0   0.00000       0.00000    
     18870 MEMB     104      POPE     H18S     HDA3A    0.590000E-01   1.00800           0   0.00000       0.00000    
     18871 MEMB     104      POPE     H18T     HDA3A    0.590000E-01   1.00800           0   0.00000       0.00000    
     18872 MEMB     104      POPE     C33      CD32A     2.07980       11.6110           0  -1.66000       1.30000    
     18873 MEMB     104      POPE     DC33     DRUD     -2.23580      0.400000           0   0.00000       0.00000    
     18874 MEMB     104      POPE     H3X      HDA2A    0.780000E-01   1.00800           0   0.00000       0.00000    
     18875 MEMB     104      POPE     H3Y      HDA2A    0.780000E-01   1.00800           0   0.00000       0.00000    
     18876 MEMB     104      POPE     C34      CD32A     2.07980       11.6110           0  -1.66000       1.30000    
     18877 MEMB     104      POPE     DC34     DRUD     -2.23580      0.400000           0   0.00000       0.00000    
     18878 MEMB     104      POPE     H4X      HDA2A    0.780000E-01   1.00800           0   0.00000       0.00000    
     18879 MEMB     104      POPE     H4Y      HDA2A    0.780000E-01   1.00800           0   0.00000       0.00000    
     18880 MEMB     104      POPE     C35      CD32A     2.07980       11.6110           0  -1.66000       1.30000    
     18881 MEMB     104      POPE     DC35     DRUD     -2.23580      0.400000           0   0.00000       0.00000    
     18882 MEMB     104      POPE     H5X      HDA2A    0.780000E-01   1.00800           0   0.00000       0.00000    
     18883 MEMB     104      POPE     H5Y      HDA2A    0.780000E-01   1.00800           0   0.00000       0.00000    
     18884 MEMB     104      POPE     C36      CD32A     2.07980       11.6110           0  -1.66000       1.30000    
     18885 MEMB     104      POPE     DC36     DRUD     -2.23580      0.400000           0   0.00000       0.00000    
     18886 MEMB     104      POPE     H6X      HDA2A    0.780000E-01   1.00800           0   0.00000       0.00000    
     18887 MEMB     104      POPE     H6Y      HDA2A    0.780000E-01   1.00800           0   0.00000       0.00000    
     18888 MEMB     104      POPE     C37      CD32A     2.07980       11.6110           0  -1.66000       1.30000    
     18889 MEMB     104      POPE     DC37     DRUD     -2.23580      0.400000           0   0.00000       0.00000    
     18890 MEMB     104      POPE     H7X      HDA2A    0.780000E-01   1.00800           0   0.00000       0.00000    
     18891 MEMB     104      POPE     H7Y      HDA2A    0.780000E-01   1.00800           0   0.00000       0.00000    
     18892 MEMB     104      POPE     C38      CD32A     2.07980       11.6110           0  -1.66000       1.30000    
     18893 MEMB     104      POPE     DC38     DRUD     -2.23580      0.400000           0   0.00000       0.00000    
     18894 MEMB     104      POPE     H8X      HDA2A    0.780000E-01   1.00800           0   0.00000       0.00000    
     18895 MEMB     104      POPE     H8Y      HDA2A    0.780000E-01   1.00800           0   0.00000       0.00000    
     18896 MEMB     104      POPE     C39      CD32A     2.07980       11.6110           0  -1.66000       1.30000    
     18897 MEMB     104      POPE     DC39     DRUD     -2.23580      0.400000           0   0.00000       0.00000    
     18898 MEMB     104      POPE     H9X      HDA2A    0.780000E-01   1.00800           0   0.00000       0.00000    
     18899 MEMB     104      POPE     H9Y      HDA2A    0.780000E-01   1.00800           0   0.00000       0.00000    
     18900 MEMB     104      POPE     C310     CD32A     2.07980       11.6110           0  -1.66000       1.30000    
     18901 MEMB     104      POPE     DC310    DRUD     -2.23580      0.400000           0   0.00000       0.00000    
     18902 MEMB     104      POPE     H10X     HDA2A    0.780000E-01   1.00800           0   0.00000       0.00000    
     18903 MEMB     104      POPE     H10Y     HDA2A    0.780000E-01   1.00800           0   0.00000       0.00000    
     18904 MEMB     104      POPE     C311     CD32A     2.07980       11.6110           0  -1.66000       1.30000    
     18905 MEMB     104      POPE     DC311    DRUD     -2.23580      0.400000           0   0.00000       0.00000    
     18906 MEMB     104      POPE     H11X     HDA2A    0.780000E-01   1.00800           0   0.00000       0.00000    
     18907 MEMB     104      POPE     H11Y     HDA2A    0.780000E-01   1.00800           0   0.00000       0.00000    
     18908 MEMB     104      POPE     C312     CD32A     2.07980       11.6110           0  -1.66000       1.30000    
     18909 MEMB     104      POPE     DC312    DRUD     -2.23580      0.400000           0   0.00000       0.00000    
     18910 MEMB     104      POPE     H12X     HDA2A    0.780000E-01   1.00800           0   0.00000       0.00000    
     18911 MEMB     104      POPE     H12Y     HDA2A    0.780000E-01   1.00800           0   0.00000       0.00000    
     18912 MEMB     104      POPE     C313     CD32A     2.07980       11.6110           0  -1.66000       1.30000    
     18913 MEMB     104      POPE     DC313    DRUD     -2.23580      0.400000           0   0.00000       0.00000    
     18914 MEMB     104      POPE     H13X     HDA2A    0.780000E-01   1.00800           0   0.00000       0.00000    
     18915 MEMB     104      POPE     H13Y     HDA2A    0.780000E-01   1.00800           0   0.00000       0.00000    
     18916 MEMB     104      POPE     C314     CD32A     2.07980       11.6110           0  -1.66000       1.30000    
     18917 MEMB     104      POPE     DC314    DRUD     -2.23580      0.400000           0   0.00000       0.00000    
     18918 MEMB     104      POPE     H14X     HDA2A    0.780000E-01   1.00800           0   0.00000       0.00000    
     18919 MEMB     104      POPE     H14Y     HDA2A    0.780000E-01   1.00800           0   0.00000       0.00000    
     18920 MEMB     104      POPE     C315     CD32A     2.07980       11.6110           0  -1.66000       1.30000    
     18921 MEMB     104      POPE     DC315    DRUD     -2.23580      0.400000           0   0.00000       0.00000    
     18922 MEMB     104      POPE     H15X     HDA2A    0.780000E-01   1.00800           0   0.00000       0.00000    
     18923 MEMB     104      POPE     H15Y     HDA2A    0.780000E-01   1.00800           0   0.00000       0.00000    
     18924 MEMB     104      POPE     C316     CD33A     2.30820       11.6110           0  -2.05100       1.30000    
     18925 MEMB     104      POPE     DC316    DRUD     -2.48520      0.400000           0   0.00000       0.00000    
     18926 MEMB     104      POPE     H16X     HDA3A    0.590000E-01   1.00800           0   0.00000       0.00000    
     18927 MEMB     104      POPE     H16Y     HDA3A    0.590000E-01   1.00800           0   0.00000       0.00000    
     18928 MEMB     104      POPE     H16Z     HDA3A    0.590000E-01   1.00800           0   0.00000       0.00000    
     18929 MEMB     105      POPE     N        ND3P3A    1.62810       13.6070           0  -1.29800      0.895000    
     18930 MEMB     105      POPE     DN       DRUD     -1.97710      0.400000           0   0.00000       0.00000    
     18931 MEMB     105      POPE     HN1      HDP1B    0.340000       1.00800           0   0.00000       0.00000    
     18932 MEMB     105      POPE     HN2      HDP1B    0.340000       1.00800           0   0.00000       0.00000    
     18933 MEMB     105      POPE     HN3      HDP1B    0.340000       1.00800           0   0.00000       0.00000    
     18934 MEMB     105      POPE     C12      CD32A     2.27610       11.6110           0  -1.65600      0.895000    
     18935 MEMB     105      POPE     DC12     DRUD     -2.23310      0.400000           0   0.00000       0.00000    
     18936 MEMB     105      POPE     H12A     HDA2A    0.143000       1.00800           0   0.00000       0.00000    
     18937 MEMB     105      POPE     H12B     HDA2A    0.143000       1.00800           0   0.00000       0.00000    
     18938 MEMB     105      POPE     C11      CD32A     2.42220       11.6110           0  -1.64200      0.862000    
     18939 MEMB     105      POPE     DC11     DRUD     -2.22370      0.400000           0   0.00000       0.00000    
     18940 MEMB     105      POPE     H11A     HDA2A    0.260000E-01   1.00800           0   0.00000       0.00000    
     18941 MEMB     105      POPE     H11B     HDA2A    0.260000E-01   1.00800           0   0.00000       0.00000    
     18942 MEMB     105      POPE     P        PD1A      2.90360       30.5740           0 -0.974000       2.09800    
     18943 MEMB     105      POPE     DP       DRUD     -1.71260      0.400000           0   0.00000       0.00000    
     18944 MEMB     105      POPE     O13      OD2C2B   0.798400       15.5994           0 -0.931000       1.08300    
     18945 MEMB     105      POPE     DO13     DRUD     -1.67440      0.400000           0   0.00000       0.00000    
     18946 MEMB     105      POPE     O14      OD2C2B   0.798400       15.5994           0 -0.931000       1.08300    
     18947 MEMB     105      POPE     DO14     DRUD     -1.67440      0.400000           0   0.00000       0.00000    
     18948 MEMB     105      POPE     O11      OD30B     1.17720       15.5994           0 -0.901000      0.181000    
     18949 MEMB     105      POPE     DO11     DRUD     -1.64720      0.400000           0   0.00000       0.00000    
     18950 MEMB     105      POPE     O12      OD30B     1.17720       15.5994           0 -0.901000      0.181000    
     18951 MEMB     105      POPE     DO12     DRUD     -1.64720      0.400000           0   0.00000       0.00000    
     18952 MEMB     105      POPE     C1       CD32A     2.42220       11.6110           0  -1.64200      0.862000    
     18953 MEMB     105      POPE     DC1      DRUD     -2.22370      0.400000           0   0.00000       0.00000    
     18954 MEMB     105      POPE     HA       HDA2A    0.260000E-01   1.00800           0   0.00000       0.00000    
     18955 MEMB     105      POPE     HB       HDA2A    0.260000E-01   1.00800           0   0.00000       0.00000    
     18956 MEMB     105      POPE     C2       CD31C     2.52830       11.6110           0  -1.79700      0.410000    
     18957 MEMB     105      POPE     DC2      DRUD     -2.32630      0.400000           0   0.00000       0.00000    
     18958 MEMB     105      POPE     HS       HDA1A    0.116000       1.00800           0   0.00000       0.00000    
     18959 MEMB     105      POPE     O21      OD30CL    1.48470       15.5994           0 -0.732000      0.601000    
     18960 MEMB     105      POPE     DO21     DRUD     -1.48470      0.400000           0   0.00000       0.00000    
     18961 MEMB     105      POPE     C21      CD2O3B    2.72820       11.6110           0  -1.37000       1.74700    
     18962 MEMB     105      POPE     DC21     DRUD     -2.03120      0.400000           0   0.00000       0.00000    
     18963 MEMB     105      POPE     O22      OD2C3B    1.64990       15.5994           0 -0.904000      0.565000    
     18964 MEMB     105      POPE     DO22     DRUD     -1.64990      0.400000           0   0.00000       0.00000    
     18965 MEMB     105      POPE     C22      CD32C     2.24380       11.6110           0  -1.99300      0.410000    
     18966 MEMB     105      POPE     DC22     DRUD     -2.44980      0.400000           0   0.00000       0.00000    
     18967 MEMB     105      POPE     H2R      HDA2A    0.690000E-01   1.00800           0   0.00000       0.00000    
     18968 MEMB     105      POPE     H2S      HDA2A    0.690000E-01   1.00800           0   0.00000       0.00000    
     18969 MEMB     105      POPE     LP1A     LPD     -0.349000       0.00000          -1   0.00000       0.00000    
     18970 MEMB     105      POPE     LP1B     LPD     -0.258000       0.00000          -1   0.00000       0.00000    
     18971 MEMB     105      POPE     LPMA     LPD     -0.170000       0.00000          -1   0.00000       0.00000    
     18972 MEMB     105      POPE     LPMB     LPD     -0.170000       0.00000          -1   0.00000       0.00000    
     18973 MEMB     105      POPE     C3       CD32C     2.41230       11.6110           0  -1.79700      0.410000    
     18974 MEMB     105      POPE     DC3      DRUD     -2.32630      0.400000           0   0.00000       0.00000    
     18975 MEMB     105      POPE     HX       HDA2A    0.116000       1.00800           0   0.00000       0.00000    
     18976 MEMB     105      POPE     HY       HDA2A    0.116000       1.00800           0   0.00000       0.00000    
     18977 MEMB     105      POPE     O31      OD30CL    1.48470       15.5994           0 -0.732000      0.601000    
     18978 MEMB     105      POPE     DO31     DRUD     -1.48470      0.400000           0   0.00000       0.00000    
     18979 MEMB     105      POPE     C31      CD2O3B    2.72820       11.6110           0  -1.37000       1.74700    
     18980 MEMB     105      POPE     DC31     DRUD     -2.03120      0.400000           0   0.00000       0.00000    
     18981 MEMB     105      POPE     O32      OD2C3B    1.64990       15.5994           0 -0.904000      0.565000    
     18982 MEMB     105      POPE     DO32     DRUD     -1.64990      0.400000           0   0.00000       0.00000    
     18983 MEMB     105      POPE     C32      CD32C     2.24380       11.6110           0  -1.99300      0.410000    
     18984 MEMB     105      POPE     DC32     DRUD     -2.44980      0.400000           0   0.00000       0.00000    
     18985 MEMB     105      POPE     H2X      HDA2A    0.690000E-01   1.00800           0   0.00000       0.00000    
     18986 MEMB     105      POPE     H2Y      HDA2A    0.690000E-01   1.00800           0   0.00000       0.00000    
     18987 MEMB     105      POPE     LP1C     LPD     -0.349000       0.00000          -1   0.00000       0.00000    
     18988 MEMB     105      POPE     LP1D     LPD     -0.258000       0.00000          -1   0.00000       0.00000    
     18989 MEMB     105      POPE     LPMC     LPD     -0.170000       0.00000          -1   0.00000       0.00000    
     18990 MEMB     105      POPE     LPMD     LPD     -0.170000       0.00000          -1   0.00000       0.00000    
     18991 MEMB     105      POPE     C23      CD32A     2.07980       11.6110           0  -1.66000       1.30000    
     18992 MEMB     105      POPE     DC23     DRUD     -2.23580      0.400000           0   0.00000       0.00000    
     18993 MEMB     105      POPE     H3R      HDA2A    0.780000E-01   1.00800           0   0.00000       0.00000    
     18994 MEMB     105      POPE     H3S      HDA2A    0.780000E-01   1.00800           0   0.00000       0.00000    
     18995 MEMB     105      POPE     C24      CD32A     2.07980       11.6110           0  -1.66000       1.30000    
     18996 MEMB     105      POPE     DC24     DRUD     -2.23580      0.400000           0   0.00000       0.00000    
     18997 MEMB     105      POPE     H4R      HDA2A    0.780000E-01   1.00800           0   0.00000       0.00000    
     18998 MEMB     105      POPE     H4S      HDA2A    0.780000E-01   1.00800           0   0.00000       0.00000    
     18999 MEMB     105      POPE     C25      CD32A     2.07980       11.6110           0  -1.66000       1.30000    
     19000 MEMB     105      POPE     DC25     DRUD     -2.23580      0.400000           0   0.00000       0.00000    
     19001 MEMB     105      POPE     H5R      HDA2A    0.780000E-01   1.00800           0   0.00000       0.00000    
     19002 MEMB     105      POPE     H5S      HDA2A    0.780000E-01   1.00800           0   0.00000       0.00000    
     19003 MEMB     105      POPE     C26      CD32A     2.07980       11.6110           0  -1.66000       1.30000    
     19004 MEMB     105      POPE     DC26     DRUD     -2.23580      0.400000           0   0.00000       0.00000    
     19005 MEMB     105      POPE     H6R      HDA2A    0.780000E-01   1.00800           0   0.00000       0.00000    
     19006 MEMB     105      POPE     H6S      HDA2A    0.780000E-01   1.00800           0   0.00000       0.00000    
     19007 MEMB     105      POPE     C27      CD32A     2.07980       11.6110           0  -1.66000       1.30000    
     19008 MEMB     105      POPE     DC27     DRUD     -2.23580      0.400000           0   0.00000       0.00000    
     19009 MEMB     105      POPE     H7R      HDA2A    0.780000E-01   1.00800           0   0.00000       0.00000    
     19010 MEMB     105      POPE     H7S      HDA2A    0.780000E-01   1.00800           0   0.00000       0.00000    
     19011 MEMB     105      POPE     C28      CD32A     2.07980       11.6110           0  -1.66000       1.30000    
     19012 MEMB     105      POPE     DC28     DRUD     -2.23580      0.400000           0   0.00000       0.00000    
     19013 MEMB     105      POPE     H8R      HDA2A    0.780000E-01   1.00800           0   0.00000       0.00000    
     19014 MEMB     105      POPE     H8S      HDA2A    0.780000E-01   1.00800           0   0.00000       0.00000    
     19015 MEMB     105      POPE     C29      CD2C1A    2.33700       11.6110           0  -1.99000      0.750000    
     19016 MEMB     105      POPE     DC29     DRUD     -2.44800      0.400000           0   0.00000       0.00000    
     19017 MEMB     105      POPE     H91      HD2C1A   0.111000       1.00800           0   0.00000       0.00000    
     19018 MEMB     105      POPE     C210     CD2C1A    2.33700       11.6110           0  -1.99000      0.750000    
     19019 MEMB     105      POPE     DC210    DRUD     -2.44800      0.400000           0   0.00000       0.00000    
     19020 MEMB     105      POPE     H101     HD2C1A   0.111000       1.00800           0   0.00000       0.00000    
     19021 MEMB     105      POPE     C211     CD32A     2.07980       11.6110           0  -1.66000       1.30000    
     19022 MEMB     105      POPE     DC211    DRUD     -2.23580      0.400000           0   0.00000       0.00000    
     19023 MEMB     105      POPE     H11R     HDA2A    0.780000E-01   1.00800           0   0.00000       0.00000    
     19024 MEMB     105      POPE     H11S     HDA2A    0.780000E-01   1.00800           0   0.00000       0.00000    
     19025 MEMB     105      POPE     C212     CD32A     2.07980       11.6110           0  -1.66000       1.30000    
     19026 MEMB     105      POPE     DC212    DRUD     -2.23580      0.400000           0   0.00000       0.00000    
     19027 MEMB     105      POPE     H12R     HDA2A    0.780000E-01   1.00800           0   0.00000       0.00000    
     19028 MEMB     105      POPE     H12S     HDA2A    0.780000E-01   1.00800           0   0.00000       0.00000    
     19029 MEMB     105      POPE     C213     CD32A     2.07980       11.6110           0  -1.66000       1.30000    
     19030 MEMB     105      POPE     DC213    DRUD     -2.23580      0.400000           0   0.00000       0.00000    
     19031 MEMB     105      POPE     H13R     HDA2A    0.780000E-01   1.00800           0   0.00000       0.00000    
     19032 MEMB     105      POPE     H13S     HDA2A    0.780000E-01   1.00800           0   0.00000       0.00000    
     19033 MEMB     105      POPE     C214     CD32A     2.07980       11.6110           0  -1.66000       1.30000    
     19034 MEMB     105      POPE     DC214    DRUD     -2.23580      0.400000           0   0.00000       0.00000    
     19035 MEMB     105      POPE     H14R     HDA2A    0.780000E-01   1.00800           0   0.00000       0.00000    
     19036 MEMB     105      POPE     H14S     HDA2A    0.780000E-01   1.00800           0   0.00000       0.00000    
     19037 MEMB     105      POPE     C215     CD32A     2.07980       11.6110           0  -1.66000       1.30000    
     19038 MEMB     105      POPE     DC215    DRUD     -2.23580      0.400000           0   0.00000       0.00000    
     19039 MEMB     105      POPE     H15R     HDA2A    0.780000E-01   1.00800           0   0.00000       0.00000    
     19040 MEMB     105      POPE     H15S     HDA2A    0.780000E-01   1.00800           0   0.00000       0.00000    
     19041 MEMB     105      POPE     C216     CD32A     2.07980       11.6110           0  -1.66000       1.30000    
     19042 MEMB     105      POPE     DC216    DRUD     -2.23580      0.400000           0   0.00000       0.00000    
     19043 MEMB     105      POPE     H16R     HDA2A    0.780000E-01   1.00800           0   0.00000       0.00000    
     19044 MEMB     105      POPE     H16S     HDA2A    0.780000E-01   1.00800           0   0.00000       0.00000    
     19045 MEMB     105      POPE     C217     CD32A     2.07980       11.6110           0  -1.66000       1.30000    
     19046 MEMB     105      POPE     DC217    DRUD     -2.23580      0.400000           0   0.00000       0.00000    
     19047 MEMB     105      POPE     H17R     HDA2A    0.780000E-01   1.00800           0   0.00000       0.00000    
     19048 MEMB     105      POPE     H17S     HDA2A    0.780000E-01   1.00800           0   0.00000       0.00000    
     19049 MEMB     105      POPE     C218     CD33A     2.30820       11.6110           0  -2.05100       1.30000    
     19050 MEMB     105      POPE     DC218    DRUD     -2.48520      0.400000           0   0.00000       0.00000    
     19051 MEMB     105      POPE     H18R     HDA3A    0.590000E-01   1.00800           0   0.00000       0.00000    
     19052 MEMB     105      POPE     H18S     HDA3A    0.590000E-01   1.00800           0   0.00000       0.00000    
     19053 MEMB     105      POPE     H18T     HDA3A    0.590000E-01   1.00800           0   0.00000       0.00000    
     19054 MEMB     105      POPE     C33      CD32A     2.07980       11.6110           0  -1.66000       1.30000    
     19055 MEMB     105      POPE     DC33     DRUD     -2.23580      0.400000           0   0.00000       0.00000    
     19056 MEMB     105      POPE     H3X      HDA2A    0.780000E-01   1.00800           0   0.00000       0.00000    
     19057 MEMB     105      POPE     H3Y      HDA2A    0.780000E-01   1.00800           0   0.00000       0.00000    
     19058 MEMB     105      POPE     C34      CD32A     2.07980       11.6110           0  -1.66000       1.30000    
     19059 MEMB     105      POPE     DC34     DRUD     -2.23580      0.400000           0   0.00000       0.00000    
     19060 MEMB     105      POPE     H4X      HDA2A    0.780000E-01   1.00800           0   0.00000       0.00000    
     19061 MEMB     105      POPE     H4Y      HDA2A    0.780000E-01   1.00800           0   0.00000       0.00000    
     19062 MEMB     105      POPE     C35      CD32A     2.07980       11.6110           0  -1.66000       1.30000    
     19063 MEMB     105      POPE     DC35     DRUD     -2.23580      0.400000           0   0.00000       0.00000    
     19064 MEMB     105      POPE     H5X      HDA2A    0.780000E-01   1.00800           0   0.00000       0.00000    
     19065 MEMB     105      POPE     H5Y      HDA2A    0.780000E-01   1.00800           0   0.00000       0.00000    
     19066 MEMB     105      POPE     C36      CD32A     2.07980       11.6110           0  -1.66000       1.30000    
     19067 MEMB     105      POPE     DC36     DRUD     -2.23580      0.400000           0   0.00000       0.00000    
     19068 MEMB     105      POPE     H6X      HDA2A    0.780000E-01   1.00800           0   0.00000       0.00000    
     19069 MEMB     105      POPE     H6Y      HDA2A    0.780000E-01   1.00800           0   0.00000       0.00000    
     19070 MEMB     105      POPE     C37      CD32A     2.07980       11.6110           0  -1.66000       1.30000    
     19071 MEMB     105      POPE     DC37     DRUD     -2.23580      0.400000           0   0.00000       0.00000    
     19072 MEMB     105      POPE     H7X      HDA2A    0.780000E-01   1.00800           0   0.00000       0.00000    
     19073 MEMB     105      POPE     H7Y      HDA2A    0.780000E-01   1.00800           0   0.00000       0.00000    
     19074 MEMB     105      POPE     C38      CD32A     2.07980       11.6110           0  -1.66000       1.30000    
     19075 MEMB     105      POPE     DC38     DRUD     -2.23580      0.400000           0   0.00000       0.00000    
     19076 MEMB     105      POPE     H8X      HDA2A    0.780000E-01   1.00800           0   0.00000       0.00000    
     19077 MEMB     105      POPE     H8Y      HDA2A    0.780000E-01   1.00800           0   0.00000       0.00000    
     19078 MEMB     105      POPE     C39      CD32A     2.07980       11.6110           0  -1.66000       1.30000    
     19079 MEMB     105      POPE     DC39     DRUD     -2.23580      0.400000           0   0.00000       0.00000    
     19080 MEMB     105      POPE     H9X      HDA2A    0.780000E-01   1.00800           0   0.00000       0.00000    
     19081 MEMB     105      POPE     H9Y      HDA2A    0.780000E-01   1.00800           0   0.00000       0.00000    
     19082 MEMB     105      POPE     C310     CD32A     2.07980       11.6110           0  -1.66000       1.30000    
     19083 MEMB     105      POPE     DC310    DRUD     -2.23580      0.400000           0   0.00000       0.00000    
     19084 MEMB     105      POPE     H10X     HDA2A    0.780000E-01   1.00800           0   0.00000       0.00000    
     19085 MEMB     105      POPE     H10Y     HDA2A    0.780000E-01   1.00800           0   0.00000       0.00000    
     19086 MEMB     105      POPE     C311     CD32A     2.07980       11.6110           0  -1.66000       1.30000    
     19087 MEMB     105      POPE     DC311    DRUD     -2.23580      0.400000           0   0.00000       0.00000    
     19088 MEMB     105      POPE     H11X     HDA2A    0.780000E-01   1.00800           0   0.00000       0.00000    
     19089 MEMB     105      POPE     H11Y     HDA2A    0.780000E-01   1.00800           0   0.00000       0.00000    
     19090 MEMB     105      POPE     C312     CD32A     2.07980       11.6110           0  -1.66000       1.30000    
     19091 MEMB     105      POPE     DC312    DRUD     -2.23580      0.400000           0   0.00000       0.00000    
     19092 MEMB     105      POPE     H12X     HDA2A    0.780000E-01   1.00800           0   0.00000       0.00000    
     19093 MEMB     105      POPE     H12Y     HDA2A    0.780000E-01   1.00800           0   0.00000       0.00000    
     19094 MEMB     105      POPE     C313     CD32A     2.07980       11.6110           0  -1.66000       1.30000    
     19095 MEMB     105      POPE     DC313    DRUD     -2.23580      0.400000           0   0.00000       0.00000    
     19096 MEMB     105      POPE     H13X     HDA2A    0.780000E-01   1.00800           0   0.00000       0.00000    
     19097 MEMB     105      POPE     H13Y     HDA2A    0.780000E-01   1.00800           0   0.00000       0.00000    
     19098 MEMB     105      POPE     C314     CD32A     2.07980       11.6110           0  -1.66000       1.30000    
     19099 MEMB     105      POPE     DC314    DRUD     -2.23580      0.400000           0   0.00000       0.00000    
     19100 MEMB     105      POPE     H14X     HDA2A    0.780000E-01   1.00800           0   0.00000       0.00000    
     19101 MEMB     105      POPE     H14Y     HDA2A    0.780000E-01   1.00800           0   0.00000       0.00000    
     19102 MEMB     105      POPE     C315     CD32A     2.07980       11.6110           0  -1.66000       1.30000    
     19103 MEMB     105      POPE     DC315    DRUD     -2.23580      0.400000           0   0.00000       0.00000    
     19104 MEMB     105      POPE     H15X     HDA2A    0.780000E-01   1.00800           0   0.00000       0.00000    
     19105 MEMB     105      POPE     H15Y     HDA2A    0.780000E-01   1.00800           0   0.00000       0.00000    
     19106 MEMB     105      POPE     C316     CD33A     2.30820       11.6110           0  -2.05100       1.30000    
     19107 MEMB     105      POPE     DC316    DRUD     -2.48520      0.400000           0   0.00000       0.00000    
     19108 MEMB     105      POPE     H16X     HDA3A    0.590000E-01   1.00800           0   0.00000       0.00000    
     19109 MEMB     105      POPE     H16Y     HDA3A    0.590000E-01   1.00800           0   0.00000       0.00000    
     19110 MEMB     105      POPE     H16Z     HDA3A    0.590000E-01   1.00800           0   0.00000       0.00000    
     19111 MEMB     106      POPE     N        ND3P3A    1.62810       13.6070           0  -1.29800      0.895000    
     19112 MEMB     106      POPE     DN       DRUD     -1.97710      0.400000           0   0.00000       0.00000    
     19113 MEMB     106      POPE     HN1      HDP1B    0.340000       1.00800           0   0.00000       0.00000    
     19114 MEMB     106      POPE     HN2      HDP1B    0.340000       1.00800           0   0.00000       0.00000    
     19115 MEMB     106      POPE     HN3      HDP1B    0.340000       1.00800           0   0.00000       0.00000    
     19116 MEMB     106      POPE     C12      CD32A     2.27610       11.6110           0  -1.65600      0.895000    
     19117 MEMB     106      POPE     DC12     DRUD     -2.23310      0.400000           0   0.00000       0.00000    
     19118 MEMB     106      POPE     H12A     HDA2A    0.143000       1.00800           0   0.00000       0.00000    
     19119 MEMB     106      POPE     H12B     HDA2A    0.143000       1.00800           0   0.00000       0.00000    
     19120 MEMB     106      POPE     C11      CD32A     2.42220       11.6110           0  -1.64200      0.862000    
     19121 MEMB     106      POPE     DC11     DRUD     -2.22370      0.400000           0   0.00000       0.00000    
     19122 MEMB     106      POPE     H11A     HDA2A    0.260000E-01   1.00800           0   0.00000       0.00000    
     19123 MEMB     106      POPE     H11B     HDA2A    0.260000E-01   1.00800           0   0.00000       0.00000    
     19124 MEMB     106      POPE     P        PD1A      2.90360       30.5740           0 -0.974000       2.09800    
     19125 MEMB     106      POPE     DP       DRUD     -1.71260      0.400000           0   0.00000       0.00000    
     19126 MEMB     106      POPE     O13      OD2C2B   0.798400       15.5994           0 -0.931000       1.08300    
     19127 MEMB     106      POPE     DO13     DRUD     -1.67440      0.400000           0   0.00000       0.00000    
     19128 MEMB     106      POPE     O14      OD2C2B   0.798400       15.5994           0 -0.931000       1.08300    
     19129 MEMB     106      POPE     DO14     DRUD     -1.67440      0.400000           0   0.00000       0.00000    
     19130 MEMB     106      POPE     O11      OD30B     1.17720       15.5994           0 -0.901000      0.181000    
     19131 MEMB     106      POPE     DO11     DRUD     -1.64720      0.400000           0   0.00000       0.00000    
     19132 MEMB     106      POPE     O12      OD30B     1.17720       15.5994           0 -0.901000      0.181000    
     19133 MEMB     106      POPE     DO12     DRUD     -1.64720      0.400000           0   0.00000       0.00000    
     19134 MEMB     106      POPE     C1       CD32A     2.42220       11.6110           0  -1.64200      0.862000    
     19135 MEMB     106      POPE     DC1      DRUD     -2.22370      0.400000           0   0.00000       0.00000    
     19136 MEMB     106      POPE     HA       HDA2A    0.260000E-01   1.00800           0   0.00000       0.00000    
     19137 MEMB     106      POPE     HB       HDA2A    0.260000E-01   1.00800           0   0.00000       0.00000    
     19138 MEMB     106      POPE     C2       CD31C     2.52830       11.6110           0  -1.79700      0.410000    
     19139 MEMB     106      POPE     DC2      DRUD     -2.32630      0.400000           0   0.00000       0.00000    
     19140 MEMB     106      POPE     HS       HDA1A    0.116000       1.00800           0   0.00000       0.00000    
     19141 MEMB     106      POPE     O21      OD30CL    1.48470       15.5994           0 -0.732000      0.601000    
     19142 MEMB     106      POPE     DO21     DRUD     -1.48470      0.400000           0   0.00000       0.00000    
     19143 MEMB     106      POPE     C21      CD2O3B    2.72820       11.6110           0  -1.37000       1.74700    
     19144 MEMB     106      POPE     DC21     DRUD     -2.03120      0.400000           0   0.00000       0.00000    
     19145 MEMB     106      POPE     O22      OD2C3B    1.64990       15.5994           0 -0.904000      0.565000    
     19146 MEMB     106      POPE     DO22     DRUD     -1.64990      0.400000           0   0.00000       0.00000    
     19147 MEMB     106      POPE     C22      CD32C     2.24380       11.6110           0  -1.99300      0.410000    
     19148 MEMB     106      POPE     DC22     DRUD     -2.44980      0.400000           0   0.00000       0.00000    
     19149 MEMB     106      POPE     H2R      HDA2A    0.690000E-01   1.00800           0   0.00000       0.00000    
     19150 MEMB     106      POPE     H2S      HDA2A    0.690000E-01   1.00800           0   0.00000       0.00000    
     19151 MEMB     106      POPE     LP1A     LPD     -0.349000       0.00000          -1   0.00000       0.00000    
     19152 MEMB     106      POPE     LP1B     LPD     -0.258000       0.00000          -1   0.00000       0.00000    
     19153 MEMB     106      POPE     LPMA     LPD     -0.170000       0.00000          -1   0.00000       0.00000    
     19154 MEMB     106      POPE     LPMB     LPD     -0.170000       0.00000          -1   0.00000       0.00000    
     19155 MEMB     106      POPE     C3       CD32C     2.41230       11.6110           0  -1.79700      0.410000    
     19156 MEMB     106      POPE     DC3      DRUD     -2.32630      0.400000           0   0.00000       0.00000    
     19157 MEMB     106      POPE     HX       HDA2A    0.116000       1.00800           0   0.00000       0.00000    
     19158 MEMB     106      POPE     HY       HDA2A    0.116000       1.00800           0   0.00000       0.00000    
     19159 MEMB     106      POPE     O31      OD30CL    1.48470       15.5994           0 -0.732000      0.601000    
     19160 MEMB     106      POPE     DO31     DRUD     -1.48470      0.400000           0   0.00000       0.00000    
     19161 MEMB     106      POPE     C31      CD2O3B    2.72820       11.6110           0  -1.37000       1.74700    
     19162 MEMB     106      POPE     DC31     DRUD     -2.03120      0.400000           0   0.00000       0.00000    
     19163 MEMB     106      POPE     O32      OD2C3B    1.64990       15.5994           0 -0.904000      0.565000    
     19164 MEMB     106      POPE     DO32     DRUD     -1.64990      0.400000           0   0.00000       0.00000    
     19165 MEMB     106      POPE     C32      CD32C     2.24380       11.6110           0  -1.99300      0.410000    
     19166 MEMB     106      POPE     DC32     DRUD     -2.44980      0.400000           0   0.00000       0.00000    
     19167 MEMB     106      POPE     H2X      HDA2A    0.690000E-01   1.00800           0   0.00000       0.00000    
     19168 MEMB     106      POPE     H2Y      HDA2A    0.690000E-01   1.00800           0   0.00000       0.00000    
     19169 MEMB     106      POPE     LP1C     LPD     -0.349000       0.00000          -1   0.00000       0.00000    
     19170 MEMB     106      POPE     LP1D     LPD     -0.258000       0.00000          -1   0.00000       0.00000    
     19171 MEMB     106      POPE     LPMC     LPD     -0.170000       0.00000          -1   0.00000       0.00000    
     19172 MEMB     106      POPE     LPMD     LPD     -0.170000       0.00000          -1   0.00000       0.00000    
     19173 MEMB     106      POPE     C23      CD32A     2.07980       11.6110           0  -1.66000       1.30000    
     19174 MEMB     106      POPE     DC23     DRUD     -2.23580      0.400000           0   0.00000       0.00000    
     19175 MEMB     106      POPE     H3R      HDA2A    0.780000E-01   1.00800           0   0.00000       0.00000    
     19176 MEMB     106      POPE     H3S      HDA2A    0.780000E-01   1.00800           0   0.00000       0.00000    
     19177 MEMB     106      POPE     C24      CD32A     2.07980       11.6110           0  -1.66000       1.30000    
     19178 MEMB     106      POPE     DC24     DRUD     -2.23580      0.400000           0   0.00000       0.00000    
     19179 MEMB     106      POPE     H4R      HDA2A    0.780000E-01   1.00800           0   0.00000       0.00000    
     19180 MEMB     106      POPE     H4S      HDA2A    0.780000E-01   1.00800           0   0.00000       0.00000    
     19181 MEMB     106      POPE     C25      CD32A     2.07980       11.6110           0  -1.66000       1.30000    
     19182 MEMB     106      POPE     DC25     DRUD     -2.23580      0.400000           0   0.00000       0.00000    
     19183 MEMB     106      POPE     H5R      HDA2A    0.780000E-01   1.00800           0   0.00000       0.00000    
     19184 MEMB     106      POPE     H5S      HDA2A    0.780000E-01   1.00800           0   0.00000       0.00000    
     19185 MEMB     106      POPE     C26      CD32A     2.07980       11.6110           0  -1.66000       1.30000    
     19186 MEMB     106      POPE     DC26     DRUD     -2.23580      0.400000           0   0.00000       0.00000    
     19187 MEMB     106      POPE     H6R      HDA2A    0.780000E-01   1.00800           0   0.00000       0.00000    
     19188 MEMB     106      POPE     H6S      HDA2A    0.780000E-01   1.00800           0   0.00000       0.00000    
     19189 MEMB     106      POPE     C27      CD32A     2.07980       11.6110           0  -1.66000       1.30000    
     19190 MEMB     106      POPE     DC27     DRUD     -2.23580      0.400000           0   0.00000       0.00000    
     19191 MEMB     106      POPE     H7R      HDA2A    0.780000E-01   1.00800           0   0.00000       0.00000    
     19192 MEMB     106      POPE     H7S      HDA2A    0.780000E-01   1.00800           0   0.00000       0.00000    
     19193 MEMB     106      POPE     C28      CD32A     2.07980       11.6110           0  -1.66000       1.30000    
     19194 MEMB     106      POPE     DC28     DRUD     -2.23580      0.400000           0   0.00000       0.00000    
     19195 MEMB     106      POPE     H8R      HDA2A    0.780000E-01   1.00800           0   0.00000       0.00000    
     19196 MEMB     106      POPE     H8S      HDA2A    0.780000E-01   1.00800           0   0.00000       0.00000    
     19197 MEMB     106      POPE     C29      CD2C1A    2.33700       11.6110           0  -1.99000      0.750000    
     19198 MEMB     106      POPE     DC29     DRUD     -2.44800      0.400000           0   0.00000       0.00000    
     19199 MEMB     106      POPE     H91      HD2C1A   0.111000       1.00800           0   0.00000       0.00000    
     19200 MEMB     106      POPE     C210     CD2C1A    2.33700       11.6110           0  -1.99000      0.750000    
     19201 MEMB     106      POPE     DC210    DRUD     -2.44800      0.400000           0   0.00000       0.00000    
     19202 MEMB     106      POPE     H101     HD2C1A   0.111000       1.00800           0   0.00000       0.00000    
     19203 MEMB     106      POPE     C211     CD32A     2.07980       11.6110           0  -1.66000       1.30000    
     19204 MEMB     106      POPE     DC211    DRUD     -2.23580      0.400000           0   0.00000       0.00000    
     19205 MEMB     106      POPE     H11R     HDA2A    0.780000E-01   1.00800           0   0.00000       0.00000    
     19206 MEMB     106      POPE     H11S     HDA2A    0.780000E-01   1.00800           0   0.00000       0.00000    
     19207 MEMB     106      POPE     C212     CD32A     2.07980       11.6110           0  -1.66000       1.30000    
     19208 MEMB     106      POPE     DC212    DRUD     -2.23580      0.400000           0   0.00000       0.00000    
     19209 MEMB     106      POPE     H12R     HDA2A    0.780000E-01   1.00800           0   0.00000       0.00000    
     19210 MEMB     106      POPE     H12S     HDA2A    0.780000E-01   1.00800           0   0.00000       0.00000    
     19211 MEMB     106      POPE     C213     CD32A     2.07980       11.6110           0  -1.66000       1.30000    
     19212 MEMB     106      POPE     DC213    DRUD     -2.23580      0.400000           0   0.00000       0.00000    
     19213 MEMB     106      POPE     H13R     HDA2A    0.780000E-01   1.00800           0   0.00000       0.00000    
     19214 MEMB     106      POPE     H13S     HDA2A    0.780000E-01   1.00800           0   0.00000       0.00000    
     19215 MEMB     106      POPE     C214     CD32A     2.07980       11.6110           0  -1.66000       1.30000    
     19216 MEMB     106      POPE     DC214    DRUD     -2.23580      0.400000           0   0.00000       0.00000    
     19217 MEMB     106      POPE     H14R     HDA2A    0.780000E-01   1.00800           0   0.00000       0.00000    
     19218 MEMB     106      POPE     H14S     HDA2A    0.780000E-01   1.00800           0   0.00000       0.00000    
     19219 MEMB     106      POPE     C215     CD32A     2.07980       11.6110           0  -1.66000       1.30000    
     19220 MEMB     106      POPE     DC215    DRUD     -2.23580      0.400000           0   0.00000       0.00000    
     19221 MEMB     106      POPE     H15R     HDA2A    0.780000E-01   1.00800           0   0.00000       0.00000    
     19222 MEMB     106      POPE     H15S     HDA2A    0.780000E-01   1.00800           0   0.00000       0.00000    
     19223 MEMB     106      POPE     C216     CD32A     2.07980       11.6110           0  -1.66000       1.30000    
     19224 MEMB     106      POPE     DC216    DRUD     -2.23580      0.400000           0   0.00000       0.00000    
     19225 MEMB     106      POPE     H16R     HDA2A    0.780000E-01   1.00800           0   0.00000       0.00000    
     19226 MEMB     106      POPE     H16S     HDA2A    0.780000E-01   1.00800           0   0.00000       0.00000    
     19227 MEMB     106      POPE     C217     CD32A     2.07980       11.6110           0  -1.66000       1.30000    
     19228 MEMB     106      POPE     DC217    DRUD     -2.23580      0.400000           0   0.00000       0.00000    
     19229 MEMB     106      POPE     H17R     HDA2A    0.780000E-01   1.00800           0   0.00000       0.00000    
     19230 MEMB     106      POPE     H17S     HDA2A    0.780000E-01   1.00800           0   0.00000       0.00000    
     19231 MEMB     106      POPE     C218     CD33A     2.30820       11.6110           0  -2.05100       1.30000    
     19232 MEMB     106      POPE     DC218    DRUD     -2.48520      0.400000           0   0.00000       0.00000    
     19233 MEMB     106      POPE     H18R     HDA3A    0.590000E-01   1.00800           0   0.00000       0.00000    
     19234 MEMB     106      POPE     H18S     HDA3A    0.590000E-01   1.00800           0   0.00000       0.00000    
     19235 MEMB     106      POPE     H18T     HDA3A    0.590000E-01   1.00800           0   0.00000       0.00000    
     19236 MEMB     106      POPE     C33      CD32A     2.07980       11.6110           0  -1.66000       1.30000    
     19237 MEMB     106      POPE     DC33     DRUD     -2.23580      0.400000           0   0.00000       0.00000    
     19238 MEMB     106      POPE     H3X      HDA2A    0.780000E-01   1.00800           0   0.00000       0.00000    
     19239 MEMB     106      POPE     H3Y      HDA2A    0.780000E-01   1.00800           0   0.00000       0.00000    
     19240 MEMB     106      POPE     C34      CD32A     2.07980       11.6110           0  -1.66000       1.30000    
     19241 MEMB     106      POPE     DC34     DRUD     -2.23580      0.400000           0   0.00000       0.00000    
     19242 MEMB     106      POPE     H4X      HDA2A    0.780000E-01   1.00800           0   0.00000       0.00000    
     19243 MEMB     106      POPE     H4Y      HDA2A    0.780000E-01   1.00800           0   0.00000       0.00000    
     19244 MEMB     106      POPE     C35      CD32A     2.07980       11.6110           0  -1.66000       1.30000    
     19245 MEMB     106      POPE     DC35     DRUD     -2.23580      0.400000           0   0.00000       0.00000    
     19246 MEMB     106      POPE     H5X      HDA2A    0.780000E-01   1.00800           0   0.00000       0.00000    
     19247 MEMB     106      POPE     H5Y      HDA2A    0.780000E-01   1.00800           0   0.00000       0.00000    
     19248 MEMB     106      POPE     C36      CD32A     2.07980       11.6110           0  -1.66000       1.30000    
     19249 MEMB     106      POPE     DC36     DRUD     -2.23580      0.400000           0   0.00000       0.00000    
     19250 MEMB     106      POPE     H6X      HDA2A    0.780000E-01   1.00800           0   0.00000       0.00000    
     19251 MEMB     106      POPE     H6Y      HDA2A    0.780000E-01   1.00800           0   0.00000       0.00000    
     19252 MEMB     106      POPE     C37      CD32A     2.07980       11.6110           0  -1.66000       1.30000    
     19253 MEMB     106      POPE     DC37     DRUD     -2.23580      0.400000           0   0.00000       0.00000    
     19254 MEMB     106      POPE     H7X      HDA2A    0.780000E-01   1.00800           0   0.00000       0.00000    
     19255 MEMB     106      POPE     H7Y      HDA2A    0.780000E-01   1.00800           0   0.00000       0.00000    
     19256 MEMB     106      POPE     C38      CD32A     2.07980       11.6110           0  -1.66000       1.30000    
     19257 MEMB     106      POPE     DC38     DRUD     -2.23580      0.400000           0   0.00000       0.00000    
     19258 MEMB     106      POPE     H8X      HDA2A    0.780000E-01   1.00800           0   0.00000       0.00000    
     19259 MEMB     106      POPE     H8Y      HDA2A    0.780000E-01   1.00800           0   0.00000       0.00000    
     19260 MEMB     106      POPE     C39      CD32A     2.07980       11.6110           0  -1.66000       1.30000    
     19261 MEMB     106      POPE     DC39     DRUD     -2.23580      0.400000           0   0.00000       0.00000    
     19262 MEMB     106      POPE     H9X      HDA2A    0.780000E-01   1.00800           0   0.00000       0.00000    
     19263 MEMB     106      POPE     H9Y      HDA2A    0.780000E-01   1.00800           0   0.00000       0.00000    
     19264 MEMB     106      POPE     C310     CD32A     2.07980       11.6110           0  -1.66000       1.30000    
     19265 MEMB     106      POPE     DC310    DRUD     -2.23580      0.400000           0   0.00000       0.00000    
     19266 MEMB     106      POPE     H10X     HDA2A    0.780000E-01   1.00800           0   0.00000       0.00000    
     19267 MEMB     106      POPE     H10Y     HDA2A    0.780000E-01   1.00800           0   0.00000       0.00000    
     19268 MEMB     106      POPE     C311     CD32A     2.07980       11.6110           0  -1.66000       1.30000    
     19269 MEMB     106      POPE     DC311    DRUD     -2.23580      0.400000           0   0.00000       0.00000    
     19270 MEMB     106      POPE     H11X     HDA2A    0.780000E-01   1.00800           0   0.00000       0.00000    
     19271 MEMB     106      POPE     H11Y     HDA2A    0.780000E-01   1.00800           0   0.00000       0.00000    
     19272 MEMB     106      POPE     C312     CD32A     2.07980       11.6110           0  -1.66000       1.30000    
     19273 MEMB     106      POPE     DC312    DRUD     -2.23580      0.400000           0   0.00000       0.00000    
     19274 MEMB     106      POPE     H12X     HDA2A    0.780000E-01   1.00800           0   0.00000       0.00000    
     19275 MEMB     106      POPE     H12Y     HDA2A    0.780000E-01   1.00800           0   0.00000       0.00000    
     19276 MEMB     106      POPE     C313     CD32A     2.07980       11.6110           0  -1.66000       1.30000    
     19277 MEMB     106      POPE     DC313    DRUD     -2.23580      0.400000           0   0.00000       0.00000    
     19278 MEMB     106      POPE     H13X     HDA2A    0.780000E-01   1.00800           0   0.00000       0.00000    
     19279 MEMB     106      POPE     H13Y     HDA2A    0.780000E-01   1.00800           0   0.00000       0.00000    
     19280 MEMB     106      POPE     C314     CD32A     2.07980       11.6110           0  -1.66000       1.30000    
     19281 MEMB     106      POPE     DC314    DRUD     -2.23580      0.400000           0   0.00000       0.00000    
     19282 MEMB     106      POPE     H14X     HDA2A    0.780000E-01   1.00800           0   0.00000       0.00000    
     19283 MEMB     106      POPE     H14Y     HDA2A    0.780000E-01   1.00800           0   0.00000       0.00000    
     19284 MEMB     106      POPE     C315     CD32A     2.07980       11.6110           0  -1.66000       1.30000    
     19285 MEMB     106      POPE     DC315    DRUD     -2.23580      0.400000           0   0.00000       0.00000    
     19286 MEMB     106      POPE     H15X     HDA2A    0.780000E-01   1.00800           0   0.00000       0.00000    
     19287 MEMB     106      POPE     H15Y     HDA2A    0.780000E-01   1.00800           0   0.00000       0.00000    
     19288 MEMB     106      POPE     C316     CD33A     2.30820       11.6110           0  -2.05100       1.30000    
     19289 MEMB     106      POPE     DC316    DRUD     -2.48520      0.400000           0   0.00000       0.00000    
     19290 MEMB     106      POPE     H16X     HDA3A    0.590000E-01   1.00800           0   0.00000       0.00000    
     19291 MEMB     106      POPE     H16Y     HDA3A    0.590000E-01   1.00800           0   0.00000       0.00000    
     19292 MEMB     106      POPE     H16Z     HDA3A    0.590000E-01   1.00800           0   0.00000       0.00000    
     19293 MEMB     107      POPE     N        ND3P3A    1.62810       13.6070           0  -1.29800      0.895000    
     19294 MEMB     107      POPE     DN       DRUD     -1.97710      0.400000           0   0.00000       0.00000    
     19295 MEMB     107      POPE     HN1      HDP1B    0.340000       1.00800           0   0.00000       0.00000    
     19296 MEMB     107      POPE     HN2      HDP1B    0.340000       1.00800           0   0.00000       0.00000    
     19297 MEMB     107      POPE     HN3      HDP1B    0.340000       1.00800           0   0.00000       0.00000    
     19298 MEMB     107      POPE     C12      CD32A     2.27610       11.6110           0  -1.65600      0.895000    
     19299 MEMB     107      POPE     DC12     DRUD     -2.23310      0.400000           0   0.00000       0.00000    
     19300 MEMB     107      POPE     H12A     HDA2A    0.143000       1.00800           0   0.00000       0.00000    
     19301 MEMB     107      POPE     H12B     HDA2A    0.143000       1.00800           0   0.00000       0.00000    
     19302 MEMB     107      POPE     C11      CD32A     2.42220       11.6110           0  -1.64200      0.862000    
     19303 MEMB     107      POPE     DC11     DRUD     -2.22370      0.400000           0   0.00000       0.00000    
     19304 MEMB     107      POPE     H11A     HDA2A    0.260000E-01   1.00800           0   0.00000       0.00000    
     19305 MEMB     107      POPE     H11B     HDA2A    0.260000E-01   1.00800           0   0.00000       0.00000    
     19306 MEMB     107      POPE     P        PD1A      2.90360       30.5740           0 -0.974000       2.09800    
     19307 MEMB     107      POPE     DP       DRUD     -1.71260      0.400000           0   0.00000       0.00000    
     19308 MEMB     107      POPE     O13      OD2C2B   0.798400       15.5994           0 -0.931000       1.08300    
     19309 MEMB     107      POPE     DO13     DRUD     -1.67440      0.400000           0   0.00000       0.00000    
     19310 MEMB     107      POPE     O14      OD2C2B   0.798400       15.5994           0 -0.931000       1.08300    
     19311 MEMB     107      POPE     DO14     DRUD     -1.67440      0.400000           0   0.00000       0.00000    
     19312 MEMB     107      POPE     O11      OD30B     1.17720       15.5994           0 -0.901000      0.181000    
     19313 MEMB     107      POPE     DO11     DRUD     -1.64720      0.400000           0   0.00000       0.00000    
     19314 MEMB     107      POPE     O12      OD30B     1.17720       15.5994           0 -0.901000      0.181000    
     19315 MEMB     107      POPE     DO12     DRUD     -1.64720      0.400000           0   0.00000       0.00000    
     19316 MEMB     107      POPE     C1       CD32A     2.42220       11.6110           0  -1.64200      0.862000    
     19317 MEMB     107      POPE     DC1      DRUD     -2.22370      0.400000           0   0.00000       0.00000    
     19318 MEMB     107      POPE     HA       HDA2A    0.260000E-01   1.00800           0   0.00000       0.00000    
     19319 MEMB     107      POPE     HB       HDA2A    0.260000E-01   1.00800           0   0.00000       0.00000    
     19320 MEMB     107      POPE     C2       CD31C     2.52830       11.6110           0  -1.79700      0.410000    
     19321 MEMB     107      POPE     DC2      DRUD     -2.32630      0.400000           0   0.00000       0.00000    
     19322 MEMB     107      POPE     HS       HDA1A    0.116000       1.00800           0   0.00000       0.00000    
     19323 MEMB     107      POPE     O21      OD30CL    1.48470       15.5994           0 -0.732000      0.601000    
     19324 MEMB     107      POPE     DO21     DRUD     -1.48470      0.400000           0   0.00000       0.00000    
     19325 MEMB     107      POPE     C21      CD2O3B    2.72820       11.6110           0  -1.37000       1.74700    
     19326 MEMB     107      POPE     DC21     DRUD     -2.03120      0.400000           0   0.00000       0.00000    
     19327 MEMB     107      POPE     O22      OD2C3B    1.64990       15.5994           0 -0.904000      0.565000    
     19328 MEMB     107      POPE     DO22     DRUD     -1.64990      0.400000           0   0.00000       0.00000    
     19329 MEMB     107      POPE     C22      CD32C     2.24380       11.6110           0  -1.99300      0.410000    
     19330 MEMB     107      POPE     DC22     DRUD     -2.44980      0.400000           0   0.00000       0.00000    
     19331 MEMB     107      POPE     H2R      HDA2A    0.690000E-01   1.00800           0   0.00000       0.00000    
     19332 MEMB     107      POPE     H2S      HDA2A    0.690000E-01   1.00800           0   0.00000       0.00000    
     19333 MEMB     107      POPE     LP1A     LPD     -0.349000       0.00000          -1   0.00000       0.00000    
     19334 MEMB     107      POPE     LP1B     LPD     -0.258000       0.00000          -1   0.00000       0.00000    
     19335 MEMB     107      POPE     LPMA     LPD     -0.170000       0.00000          -1   0.00000       0.00000    
     19336 MEMB     107      POPE     LPMB     LPD     -0.170000       0.00000          -1   0.00000       0.00000    
     19337 MEMB     107      POPE     C3       CD32C     2.41230       11.6110           0  -1.79700      0.410000    
     19338 MEMB     107      POPE     DC3      DRUD     -2.32630      0.400000           0   0.00000       0.00000    
     19339 MEMB     107      POPE     HX       HDA2A    0.116000       1.00800           0   0.00000       0.00000    
     19340 MEMB     107      POPE     HY       HDA2A    0.116000       1.00800           0   0.00000       0.00000    
     19341 MEMB     107      POPE     O31      OD30CL    1.48470       15.5994           0 -0.732000      0.601000    
     19342 MEMB     107      POPE     DO31     DRUD     -1.48470      0.400000           0   0.00000       0.00000    
     19343 MEMB     107      POPE     C31      CD2O3B    2.72820       11.6110           0  -1.37000       1.74700    
     19344 MEMB     107      POPE     DC31     DRUD     -2.03120      0.400000           0   0.00000       0.00000    
     19345 MEMB     107      POPE     O32      OD2C3B    1.64990       15.5994           0 -0.904000      0.565000    
     19346 MEMB     107      POPE     DO32     DRUD     -1.64990      0.400000           0   0.00000       0.00000    
     19347 MEMB     107      POPE     C32      CD32C     2.24380       11.6110           0  -1.99300      0.410000    
     19348 MEMB     107      POPE     DC32     DRUD     -2.44980      0.400000           0   0.00000       0.00000    
     19349 MEMB     107      POPE     H2X      HDA2A    0.690000E-01   1.00800           0   0.00000       0.00000    
     19350 MEMB     107      POPE     H2Y      HDA2A    0.690000E-01   1.00800           0   0.00000       0.00000    
     19351 MEMB     107      POPE     LP1C     LPD     -0.349000       0.00000          -1   0.00000       0.00000    
     19352 MEMB     107      POPE     LP1D     LPD     -0.258000       0.00000          -1   0.00000       0.00000    
     19353 MEMB     107      POPE     LPMC     LPD     -0.170000       0.00000          -1   0.00000       0.00000    
     19354 MEMB     107      POPE     LPMD     LPD     -0.170000       0.00000          -1   0.00000       0.00000    
     19355 MEMB     107      POPE     C23      CD32A     2.07980       11.6110           0  -1.66000       1.30000    
     19356 MEMB     107      POPE     DC23     DRUD     -2.23580      0.400000           0   0.00000       0.00000    
     19357 MEMB     107      POPE     H3R      HDA2A    0.780000E-01   1.00800           0   0.00000       0.00000    
     19358 MEMB     107      POPE     H3S      HDA2A    0.780000E-01   1.00800           0   0.00000       0.00000    
     19359 MEMB     107      POPE     C24      CD32A     2.07980       11.6110           0  -1.66000       1.30000    
     19360 MEMB     107      POPE     DC24     DRUD     -2.23580      0.400000           0   0.00000       0.00000    
     19361 MEMB     107      POPE     H4R      HDA2A    0.780000E-01   1.00800           0   0.00000       0.00000    
     19362 MEMB     107      POPE     H4S      HDA2A    0.780000E-01   1.00800           0   0.00000       0.00000    
     19363 MEMB     107      POPE     C25      CD32A     2.07980       11.6110           0  -1.66000       1.30000    
     19364 MEMB     107      POPE     DC25     DRUD     -2.23580      0.400000           0   0.00000       0.00000    
     19365 MEMB     107      POPE     H5R      HDA2A    0.780000E-01   1.00800           0   0.00000       0.00000    
     19366 MEMB     107      POPE     H5S      HDA2A    0.780000E-01   1.00800           0   0.00000       0.00000    
     19367 MEMB     107      POPE     C26      CD32A     2.07980       11.6110           0  -1.66000       1.30000    
     19368 MEMB     107      POPE     DC26     DRUD     -2.23580      0.400000           0   0.00000       0.00000    
     19369 MEMB     107      POPE     H6R      HDA2A    0.780000E-01   1.00800           0   0.00000       0.00000    
     19370 MEMB     107      POPE     H6S      HDA2A    0.780000E-01   1.00800           0   0.00000       0.00000    
     19371 MEMB     107      POPE     C27      CD32A     2.07980       11.6110           0  -1.66000       1.30000    
     19372 MEMB     107      POPE     DC27     DRUD     -2.23580      0.400000           0   0.00000       0.00000    
     19373 MEMB     107      POPE     H7R      HDA2A    0.780000E-01   1.00800           0   0.00000       0.00000    
     19374 MEMB     107      POPE     H7S      HDA2A    0.780000E-01   1.00800           0   0.00000       0.00000    
     19375 MEMB     107      POPE     C28      CD32A     2.07980       11.6110           0  -1.66000       1.30000    
     19376 MEMB     107      POPE     DC28     DRUD     -2.23580      0.400000           0   0.00000       0.00000    
     19377 MEMB     107      POPE     H8R      HDA2A    0.780000E-01   1.00800           0   0.00000       0.00000    
     19378 MEMB     107      POPE     H8S      HDA2A    0.780000E-01   1.00800           0   0.00000       0.00000    
     19379 MEMB     107      POPE     C29      CD2C1A    2.33700       11.6110           0  -1.99000      0.750000    
     19380 MEMB     107      POPE     DC29     DRUD     -2.44800      0.400000           0   0.00000       0.00000    
     19381 MEMB     107      POPE     H91      HD2C1A   0.111000       1.00800           0   0.00000       0.00000    
     19382 MEMB     107      POPE     C210     CD2C1A    2.33700       11.6110           0  -1.99000      0.750000    
     19383 MEMB     107      POPE     DC210    DRUD     -2.44800      0.400000           0   0.00000       0.00000    
     19384 MEMB     107      POPE     H101     HD2C1A   0.111000       1.00800           0   0.00000       0.00000    
     19385 MEMB     107      POPE     C211     CD32A     2.07980       11.6110           0  -1.66000       1.30000    
     19386 MEMB     107      POPE     DC211    DRUD     -2.23580      0.400000           0   0.00000       0.00000    
     19387 MEMB     107      POPE     H11R     HDA2A    0.780000E-01   1.00800           0   0.00000       0.00000    
     19388 MEMB     107      POPE     H11S     HDA2A    0.780000E-01   1.00800           0   0.00000       0.00000    
     19389 MEMB     107      POPE     C212     CD32A     2.07980       11.6110           0  -1.66000       1.30000    
     19390 MEMB     107      POPE     DC212    DRUD     -2.23580      0.400000           0   0.00000       0.00000    
     19391 MEMB     107      POPE     H12R     HDA2A    0.780000E-01   1.00800           0   0.00000       0.00000    
     19392 MEMB     107      POPE     H12S     HDA2A    0.780000E-01   1.00800           0   0.00000       0.00000    
     19393 MEMB     107      POPE     C213     CD32A     2.07980       11.6110           0  -1.66000       1.30000    
     19394 MEMB     107      POPE     DC213    DRUD     -2.23580      0.400000           0   0.00000       0.00000    
     19395 MEMB     107      POPE     H13R     HDA2A    0.780000E-01   1.00800           0   0.00000       0.00000    
     19396 MEMB     107      POPE     H13S     HDA2A    0.780000E-01   1.00800           0   0.00000       0.00000    
     19397 MEMB     107      POPE     C214     CD32A     2.07980       11.6110           0  -1.66000       1.30000    
     19398 MEMB     107      POPE     DC214    DRUD     -2.23580      0.400000           0   0.00000       0.00000    
     19399 MEMB     107      POPE     H14R     HDA2A    0.780000E-01   1.00800           0   0.00000       0.00000    
     19400 MEMB     107      POPE     H14S     HDA2A    0.780000E-01   1.00800           0   0.00000       0.00000    
     19401 MEMB     107      POPE     C215     CD32A     2.07980       11.6110           0  -1.66000       1.30000    
     19402 MEMB     107      POPE     DC215    DRUD     -2.23580      0.400000           0   0.00000       0.00000    
     19403 MEMB     107      POPE     H15R     HDA2A    0.780000E-01   1.00800           0   0.00000       0.00000    
     19404 MEMB     107      POPE     H15S     HDA2A    0.780000E-01   1.00800           0   0.00000       0.00000    
     19405 MEMB     107      POPE     C216     CD32A     2.07980       11.6110           0  -1.66000       1.30000    
     19406 MEMB     107      POPE     DC216    DRUD     -2.23580      0.400000           0   0.00000       0.00000    
     19407 MEMB     107      POPE     H16R     HDA2A    0.780000E-01   1.00800           0   0.00000       0.00000    
     19408 MEMB     107      POPE     H16S     HDA2A    0.780000E-01   1.00800           0   0.00000       0.00000    
     19409 MEMB     107      POPE     C217     CD32A     2.07980       11.6110           0  -1.66000       1.30000    
     19410 MEMB     107      POPE     DC217    DRUD     -2.23580      0.400000           0   0.00000       0.00000    
     19411 MEMB     107      POPE     H17R     HDA2A    0.780000E-01   1.00800           0   0.00000       0.00000    
     19412 MEMB     107      POPE     H17S     HDA2A    0.780000E-01   1.00800           0   0.00000       0.00000    
     19413 MEMB     107      POPE     C218     CD33A     2.30820       11.6110           0  -2.05100       1.30000    
     19414 MEMB     107      POPE     DC218    DRUD     -2.48520      0.400000           0   0.00000       0.00000    
     19415 MEMB     107      POPE     H18R     HDA3A    0.590000E-01   1.00800           0   0.00000       0.00000    
     19416 MEMB     107      POPE     H18S     HDA3A    0.590000E-01   1.00800           0   0.00000       0.00000    
     19417 MEMB     107      POPE     H18T     HDA3A    0.590000E-01   1.00800           0   0.00000       0.00000    
     19418 MEMB     107      POPE     C33      CD32A     2.07980       11.6110           0  -1.66000       1.30000    
     19419 MEMB     107      POPE     DC33     DRUD     -2.23580      0.400000           0   0.00000       0.00000    
     19420 MEMB     107      POPE     H3X      HDA2A    0.780000E-01   1.00800           0   0.00000       0.00000    
     19421 MEMB     107      POPE     H3Y      HDA2A    0.780000E-01   1.00800           0   0.00000       0.00000    
     19422 MEMB     107      POPE     C34      CD32A     2.07980       11.6110           0  -1.66000       1.30000    
     19423 MEMB     107      POPE     DC34     DRUD     -2.23580      0.400000           0   0.00000       0.00000    
     19424 MEMB     107      POPE     H4X      HDA2A    0.780000E-01   1.00800           0   0.00000       0.00000    
     19425 MEMB     107      POPE     H4Y      HDA2A    0.780000E-01   1.00800           0   0.00000       0.00000    
     19426 MEMB     107      POPE     C35      CD32A     2.07980       11.6110           0  -1.66000       1.30000    
     19427 MEMB     107      POPE     DC35     DRUD     -2.23580      0.400000           0   0.00000       0.00000    
     19428 MEMB     107      POPE     H5X      HDA2A    0.780000E-01   1.00800           0   0.00000       0.00000    
     19429 MEMB     107      POPE     H5Y      HDA2A    0.780000E-01   1.00800           0   0.00000       0.00000    
     19430 MEMB     107      POPE     C36      CD32A     2.07980       11.6110           0  -1.66000       1.30000    
     19431 MEMB     107      POPE     DC36     DRUD     -2.23580      0.400000           0   0.00000       0.00000    
     19432 MEMB     107      POPE     H6X      HDA2A    0.780000E-01   1.00800           0   0.00000       0.00000    
     19433 MEMB     107      POPE     H6Y      HDA2A    0.780000E-01   1.00800           0   0.00000       0.00000    
     19434 MEMB     107      POPE     C37      CD32A     2.07980       11.6110           0  -1.66000       1.30000    
     19435 MEMB     107      POPE     DC37     DRUD     -2.23580      0.400000           0   0.00000       0.00000    
     19436 MEMB     107      POPE     H7X      HDA2A    0.780000E-01   1.00800           0   0.00000       0.00000    
     19437 MEMB     107      POPE     H7Y      HDA2A    0.780000E-01   1.00800           0   0.00000       0.00000    
     19438 MEMB     107      POPE     C38      CD32A     2.07980       11.6110           0  -1.66000       1.30000    
     19439 MEMB     107      POPE     DC38     DRUD     -2.23580      0.400000           0   0.00000       0.00000    
     19440 MEMB     107      POPE     H8X      HDA2A    0.780000E-01   1.00800           0   0.00000       0.00000    
     19441 MEMB     107      POPE     H8Y      HDA2A    0.780000E-01   1.00800           0   0.00000       0.00000    
     19442 MEMB     107      POPE     C39      CD32A     2.07980       11.6110           0  -1.66000       1.30000    
     19443 MEMB     107      POPE     DC39     DRUD     -2.23580      0.400000           0   0.00000       0.00000    
     19444 MEMB     107      POPE     H9X      HDA2A    0.780000E-01   1.00800           0   0.00000       0.00000    
     19445 MEMB     107      POPE     H9Y      HDA2A    0.780000E-01   1.00800           0   0.00000       0.00000    
     19446 MEMB     107      POPE     C310     CD32A     2.07980       11.6110           0  -1.66000       1.30000    
     19447 MEMB     107      POPE     DC310    DRUD     -2.23580      0.400000           0   0.00000       0.00000    
     19448 MEMB     107      POPE     H10X     HDA2A    0.780000E-01   1.00800           0   0.00000       0.00000    
     19449 MEMB     107      POPE     H10Y     HDA2A    0.780000E-01   1.00800           0   0.00000       0.00000    
     19450 MEMB     107      POPE     C311     CD32A     2.07980       11.6110           0  -1.66000       1.30000    
     19451 MEMB     107      POPE     DC311    DRUD     -2.23580      0.400000           0   0.00000       0.00000    
     19452 MEMB     107      POPE     H11X     HDA2A    0.780000E-01   1.00800           0   0.00000       0.00000    
     19453 MEMB     107      POPE     H11Y     HDA2A    0.780000E-01   1.00800           0   0.00000       0.00000    
     19454 MEMB     107      POPE     C312     CD32A     2.07980       11.6110           0  -1.66000       1.30000    
     19455 MEMB     107      POPE     DC312    DRUD     -2.23580      0.400000           0   0.00000       0.00000    
     19456 MEMB     107      POPE     H12X     HDA2A    0.780000E-01   1.00800           0   0.00000       0.00000    
     19457 MEMB     107      POPE     H12Y     HDA2A    0.780000E-01   1.00800           0   0.00000       0.00000    
     19458 MEMB     107      POPE     C313     CD32A     2.07980       11.6110           0  -1.66000       1.30000    
     19459 MEMB     107      POPE     DC313    DRUD     -2.23580      0.400000           0   0.00000       0.00000    
     19460 MEMB     107      POPE     H13X     HDA2A    0.780000E-01   1.00800           0   0.00000       0.00000    
     19461 MEMB     107      POPE     H13Y     HDA2A    0.780000E-01   1.00800           0   0.00000       0.00000    
     19462 MEMB     107      POPE     C314     CD32A     2.07980       11.6110           0  -1.66000       1.30000    
     19463 MEMB     107      POPE     DC314    DRUD     -2.23580      0.400000           0   0.00000       0.00000    
     19464 MEMB     107      POPE     H14X     HDA2A    0.780000E-01   1.00800           0   0.00000       0.00000    
     19465 MEMB     107      POPE     H14Y     HDA2A    0.780000E-01   1.00800           0   0.00000       0.00000    
     19466 MEMB     107      POPE     C315     CD32A     2.07980       11.6110           0  -1.66000       1.30000    
     19467 MEMB     107      POPE     DC315    DRUD     -2.23580      0.400000           0   0.00000       0.00000    
     19468 MEMB     107      POPE     H15X     HDA2A    0.780000E-01   1.00800           0   0.00000       0.00000    
     19469 MEMB     107      POPE     H15Y     HDA2A    0.780000E-01   1.00800           0   0.00000       0.00000    
     19470 MEMB     107      POPE     C316     CD33A     2.30820       11.6110           0  -2.05100       1.30000    
     19471 MEMB     107      POPE     DC316    DRUD     -2.48520      0.400000           0   0.00000       0.00000    
     19472 MEMB     107      POPE     H16X     HDA3A    0.590000E-01   1.00800           0   0.00000       0.00000    
     19473 MEMB     107      POPE     H16Y     HDA3A    0.590000E-01   1.00800           0   0.00000       0.00000    
     19474 MEMB     107      POPE     H16Z     HDA3A    0.590000E-01   1.00800           0   0.00000       0.00000    
     19475 MEMB     108      POPE     N        ND3P3A    1.62810       13.6070           0  -1.29800      0.895000    
     19476 MEMB     108      POPE     DN       DRUD     -1.97710      0.400000           0   0.00000       0.00000    
     19477 MEMB     108      POPE     HN1      HDP1B    0.340000       1.00800           0   0.00000       0.00000    
     19478 MEMB     108      POPE     HN2      HDP1B    0.340000       1.00800           0   0.00000       0.00000    
     19479 MEMB     108      POPE     HN3      HDP1B    0.340000       1.00800           0   0.00000       0.00000    
     19480 MEMB     108      POPE     C12      CD32A     2.27610       11.6110           0  -1.65600      0.895000    
     19481 MEMB     108      POPE     DC12     DRUD     -2.23310      0.400000           0   0.00000       0.00000    
     19482 MEMB     108      POPE     H12A     HDA2A    0.143000       1.00800           0   0.00000       0.00000    
     19483 MEMB     108      POPE     H12B     HDA2A    0.143000       1.00800           0   0.00000       0.00000    
     19484 MEMB     108      POPE     C11      CD32A     2.42220       11.6110           0  -1.64200      0.862000    
     19485 MEMB     108      POPE     DC11     DRUD     -2.22370      0.400000           0   0.00000       0.00000    
     19486 MEMB     108      POPE     H11A     HDA2A    0.260000E-01   1.00800           0   0.00000       0.00000    
     19487 MEMB     108      POPE     H11B     HDA2A    0.260000E-01   1.00800           0   0.00000       0.00000    
     19488 MEMB     108      POPE     P        PD1A      2.90360       30.5740           0 -0.974000       2.09800    
     19489 MEMB     108      POPE     DP       DRUD     -1.71260      0.400000           0   0.00000       0.00000    
     19490 MEMB     108      POPE     O13      OD2C2B   0.798400       15.5994           0 -0.931000       1.08300    
     19491 MEMB     108      POPE     DO13     DRUD     -1.67440      0.400000           0   0.00000       0.00000    
     19492 MEMB     108      POPE     O14      OD2C2B   0.798400       15.5994           0 -0.931000       1.08300    
     19493 MEMB     108      POPE     DO14     DRUD     -1.67440      0.400000           0   0.00000       0.00000    
     19494 MEMB     108      POPE     O11      OD30B     1.17720       15.5994           0 -0.901000      0.181000    
     19495 MEMB     108      POPE     DO11     DRUD     -1.64720      0.400000           0   0.00000       0.00000    
     19496 MEMB     108      POPE     O12      OD30B     1.17720       15.5994           0 -0.901000      0.181000    
     19497 MEMB     108      POPE     DO12     DRUD     -1.64720      0.400000           0   0.00000       0.00000    
     19498 MEMB     108      POPE     C1       CD32A     2.42220       11.6110           0  -1.64200      0.862000    
     19499 MEMB     108      POPE     DC1      DRUD     -2.22370      0.400000           0   0.00000       0.00000    
     19500 MEMB     108      POPE     HA       HDA2A    0.260000E-01   1.00800           0   0.00000       0.00000    
     19501 MEMB     108      POPE     HB       HDA2A    0.260000E-01   1.00800           0   0.00000       0.00000    
     19502 MEMB     108      POPE     C2       CD31C     2.52830       11.6110           0  -1.79700      0.410000    
     19503 MEMB     108      POPE     DC2      DRUD     -2.32630      0.400000           0   0.00000       0.00000    
     19504 MEMB     108      POPE     HS       HDA1A    0.116000       1.00800           0   0.00000       0.00000    
     19505 MEMB     108      POPE     O21      OD30CL    1.48470       15.5994           0 -0.732000      0.601000    
     19506 MEMB     108      POPE     DO21     DRUD     -1.48470      0.400000           0   0.00000       0.00000    
     19507 MEMB     108      POPE     C21      CD2O3B    2.72820       11.6110           0  -1.37000       1.74700    
     19508 MEMB     108      POPE     DC21     DRUD     -2.03120      0.400000           0   0.00000       0.00000    
     19509 MEMB     108      POPE     O22      OD2C3B    1.64990       15.5994           0 -0.904000      0.565000    
     19510 MEMB     108      POPE     DO22     DRUD     -1.64990      0.400000           0   0.00000       0.00000    
     19511 MEMB     108      POPE     C22      CD32C     2.24380       11.6110           0  -1.99300      0.410000    
     19512 MEMB     108      POPE     DC22     DRUD     -2.44980      0.400000           0   0.00000       0.00000    
     19513 MEMB     108      POPE     H2R      HDA2A    0.690000E-01   1.00800           0   0.00000       0.00000    
     19514 MEMB     108      POPE     H2S      HDA2A    0.690000E-01   1.00800           0   0.00000       0.00000    
     19515 MEMB     108      POPE     LP1A     LPD     -0.349000       0.00000          -1   0.00000       0.00000    
     19516 MEMB     108      POPE     LP1B     LPD     -0.258000       0.00000          -1   0.00000       0.00000    
     19517 MEMB     108      POPE     LPMA     LPD     -0.170000       0.00000          -1   0.00000       0.00000    
     19518 MEMB     108      POPE     LPMB     LPD     -0.170000       0.00000          -1   0.00000       0.00000    
     19519 MEMB     108      POPE     C3       CD32C     2.41230       11.6110           0  -1.79700      0.410000    
     19520 MEMB     108      POPE     DC3      DRUD     -2.32630      0.400000           0   0.00000       0.00000    
     19521 MEMB     108      POPE     HX       HDA2A    0.116000       1.00800           0   0.00000       0.00000    
     19522 MEMB     108      POPE     HY       HDA2A    0.116000       1.00800           0   0.00000       0.00000    
     19523 MEMB     108      POPE     O31      OD30CL    1.48470       15.5994           0 -0.732000      0.601000    
     19524 MEMB     108      POPE     DO31     DRUD     -1.48470      0.400000           0   0.00000       0.00000    
     19525 MEMB     108      POPE     C31      CD2O3B    2.72820       11.6110           0  -1.37000       1.74700    
     19526 MEMB     108      POPE     DC31     DRUD     -2.03120      0.400000           0   0.00000       0.00000    
     19527 MEMB     108      POPE     O32      OD2C3B    1.64990       15.5994           0 -0.904000      0.565000    
     19528 MEMB     108      POPE     DO32     DRUD     -1.64990      0.400000           0   0.00000       0.00000    
     19529 MEMB     108      POPE     C32      CD32C     2.24380       11.6110           0  -1.99300      0.410000    
     19530 MEMB     108      POPE     DC32     DRUD     -2.44980      0.400000           0   0.00000       0.00000    
     19531 MEMB     108      POPE     H2X      HDA2A    0.690000E-01   1.00800           0   0.00000       0.00000    
     19532 MEMB     108      POPE     H2Y      HDA2A    0.690000E-01   1.00800           0   0.00000       0.00000    
     19533 MEMB     108      POPE     LP1C     LPD     -0.349000       0.00000          -1   0.00000       0.00000    
     19534 MEMB     108      POPE     LP1D     LPD     -0.258000       0.00000          -1   0.00000       0.00000    
     19535 MEMB     108      POPE     LPMC     LPD     -0.170000       0.00000          -1   0.00000       0.00000    
     19536 MEMB     108      POPE     LPMD     LPD     -0.170000       0.00000          -1   0.00000       0.00000    
     19537 MEMB     108      POPE     C23      CD32A     2.07980       11.6110           0  -1.66000       1.30000    
     19538 MEMB     108      POPE     DC23     DRUD     -2.23580      0.400000           0   0.00000       0.00000    
     19539 MEMB     108      POPE     H3R      HDA2A    0.780000E-01   1.00800           0   0.00000       0.00000    
     19540 MEMB     108      POPE     H3S      HDA2A    0.780000E-01   1.00800           0   0.00000       0.00000    
     19541 MEMB     108      POPE     C24      CD32A     2.07980       11.6110           0  -1.66000       1.30000    
     19542 MEMB     108      POPE     DC24     DRUD     -2.23580      0.400000           0   0.00000       0.00000    
     19543 MEMB     108      POPE     H4R      HDA2A    0.780000E-01   1.00800           0   0.00000       0.00000    
     19544 MEMB     108      POPE     H4S      HDA2A    0.780000E-01   1.00800           0   0.00000       0.00000    
     19545 MEMB     108      POPE     C25      CD32A     2.07980       11.6110           0  -1.66000       1.30000    
     19546 MEMB     108      POPE     DC25     DRUD     -2.23580      0.400000           0   0.00000       0.00000    
     19547 MEMB     108      POPE     H5R      HDA2A    0.780000E-01   1.00800           0   0.00000       0.00000    
     19548 MEMB     108      POPE     H5S      HDA2A    0.780000E-01   1.00800           0   0.00000       0.00000    
     19549 MEMB     108      POPE     C26      CD32A     2.07980       11.6110           0  -1.66000       1.30000    
     19550 MEMB     108      POPE     DC26     DRUD     -2.23580      0.400000           0   0.00000       0.00000    
     19551 MEMB     108      POPE     H6R      HDA2A    0.780000E-01   1.00800           0   0.00000       0.00000    
     19552 MEMB     108      POPE     H6S      HDA2A    0.780000E-01   1.00800           0   0.00000       0.00000    
     19553 MEMB     108      POPE     C27      CD32A     2.07980       11.6110           0  -1.66000       1.30000    
     19554 MEMB     108      POPE     DC27     DRUD     -2.23580      0.400000           0   0.00000       0.00000    
     19555 MEMB     108      POPE     H7R      HDA2A    0.780000E-01   1.00800           0   0.00000       0.00000    
     19556 MEMB     108      POPE     H7S      HDA2A    0.780000E-01   1.00800           0   0.00000       0.00000    
     19557 MEMB     108      POPE     C28      CD32A     2.07980       11.6110           0  -1.66000       1.30000    
     19558 MEMB     108      POPE     DC28     DRUD     -2.23580      0.400000           0   0.00000       0.00000    
     19559 MEMB     108      POPE     H8R      HDA2A    0.780000E-01   1.00800           0   0.00000       0.00000    
     19560 MEMB     108      POPE     H8S      HDA2A    0.780000E-01   1.00800           0   0.00000       0.00000    
     19561 MEMB     108      POPE     C29      CD2C1A    2.33700       11.6110           0  -1.99000      0.750000    
     19562 MEMB     108      POPE     DC29     DRUD     -2.44800      0.400000           0   0.00000       0.00000    
     19563 MEMB     108      POPE     H91      HD2C1A   0.111000       1.00800           0   0.00000       0.00000    
     19564 MEMB     108      POPE     C210     CD2C1A    2.33700       11.6110           0  -1.99000      0.750000    
     19565 MEMB     108      POPE     DC210    DRUD     -2.44800      0.400000           0   0.00000       0.00000    
     19566 MEMB     108      POPE     H101     HD2C1A   0.111000       1.00800           0   0.00000       0.00000    
     19567 MEMB     108      POPE     C211     CD32A     2.07980       11.6110           0  -1.66000       1.30000    
     19568 MEMB     108      POPE     DC211    DRUD     -2.23580      0.400000           0   0.00000       0.00000    
     19569 MEMB     108      POPE     H11R     HDA2A    0.780000E-01   1.00800           0   0.00000       0.00000    
     19570 MEMB     108      POPE     H11S     HDA2A    0.780000E-01   1.00800           0   0.00000       0.00000    
     19571 MEMB     108      POPE     C212     CD32A     2.07980       11.6110           0  -1.66000       1.30000    
     19572 MEMB     108      POPE     DC212    DRUD     -2.23580      0.400000           0   0.00000       0.00000    
     19573 MEMB     108      POPE     H12R     HDA2A    0.780000E-01   1.00800           0   0.00000       0.00000    
     19574 MEMB     108      POPE     H12S     HDA2A    0.780000E-01   1.00800           0   0.00000       0.00000    
     19575 MEMB     108      POPE     C213     CD32A     2.07980       11.6110           0  -1.66000       1.30000    
     19576 MEMB     108      POPE     DC213    DRUD     -2.23580      0.400000           0   0.00000       0.00000    
     19577 MEMB     108      POPE     H13R     HDA2A    0.780000E-01   1.00800           0   0.00000       0.00000    
     19578 MEMB     108      POPE     H13S     HDA2A    0.780000E-01   1.00800           0   0.00000       0.00000    
     19579 MEMB     108      POPE     C214     CD32A     2.07980       11.6110           0  -1.66000       1.30000    
     19580 MEMB     108      POPE     DC214    DRUD     -2.23580      0.400000           0   0.00000       0.00000    
     19581 MEMB     108      POPE     H14R     HDA2A    0.780000E-01   1.00800           0   0.00000       0.00000    
     19582 MEMB     108      POPE     H14S     HDA2A    0.780000E-01   1.00800           0   0.00000       0.00000    
     19583 MEMB     108      POPE     C215     CD32A     2.07980       11.6110           0  -1.66000       1.30000    
     19584 MEMB     108      POPE     DC215    DRUD     -2.23580      0.400000           0   0.00000       0.00000    
     19585 MEMB     108      POPE     H15R     HDA2A    0.780000E-01   1.00800           0   0.00000       0.00000    
     19586 MEMB     108      POPE     H15S     HDA2A    0.780000E-01   1.00800           0   0.00000       0.00000    
     19587 MEMB     108      POPE     C216     CD32A     2.07980       11.6110           0  -1.66000       1.30000    
     19588 MEMB     108      POPE     DC216    DRUD     -2.23580      0.400000           0   0.00000       0.00000    
     19589 MEMB     108      POPE     H16R     HDA2A    0.780000E-01   1.00800           0   0.00000       0.00000    
     19590 MEMB     108      POPE     H16S     HDA2A    0.780000E-01   1.00800           0   0.00000       0.00000    
     19591 MEMB     108      POPE     C217     CD32A     2.07980       11.6110           0  -1.66000       1.30000    
     19592 MEMB     108      POPE     DC217    DRUD     -2.23580      0.400000           0   0.00000       0.00000    
     19593 MEMB     108      POPE     H17R     HDA2A    0.780000E-01   1.00800           0   0.00000       0.00000    
     19594 MEMB     108      POPE     H17S     HDA2A    0.780000E-01   1.00800           0   0.00000       0.00000    
     19595 MEMB     108      POPE     C218     CD33A     2.30820       11.6110           0  -2.05100       1.30000    
     19596 MEMB     108      POPE     DC218    DRUD     -2.48520      0.400000           0   0.00000       0.00000    
     19597 MEMB     108      POPE     H18R     HDA3A    0.590000E-01   1.00800           0   0.00000       0.00000    
     19598 MEMB     108      POPE     H18S     HDA3A    0.590000E-01   1.00800           0   0.00000       0.00000    
     19599 MEMB     108      POPE     H18T     HDA3A    0.590000E-01   1.00800           0   0.00000       0.00000    
     19600 MEMB     108      POPE     C33      CD32A     2.07980       11.6110           0  -1.66000       1.30000    
     19601 MEMB     108      POPE     DC33     DRUD     -2.23580      0.400000           0   0.00000       0.00000    
     19602 MEMB     108      POPE     H3X      HDA2A    0.780000E-01   1.00800           0   0.00000       0.00000    
     19603 MEMB     108      POPE     H3Y      HDA2A    0.780000E-01   1.00800           0   0.00000       0.00000    
     19604 MEMB     108      POPE     C34      CD32A     2.07980       11.6110           0  -1.66000       1.30000    
     19605 MEMB     108      POPE     DC34     DRUD     -2.23580      0.400000           0   0.00000       0.00000    
     19606 MEMB     108      POPE     H4X      HDA2A    0.780000E-01   1.00800           0   0.00000       0.00000    
     19607 MEMB     108      POPE     H4Y      HDA2A    0.780000E-01   1.00800           0   0.00000       0.00000    
     19608 MEMB     108      POPE     C35      CD32A     2.07980       11.6110           0  -1.66000       1.30000    
     19609 MEMB     108      POPE     DC35     DRUD     -2.23580      0.400000           0   0.00000       0.00000    
     19610 MEMB     108      POPE     H5X      HDA2A    0.780000E-01   1.00800           0   0.00000       0.00000    
     19611 MEMB     108      POPE     H5Y      HDA2A    0.780000E-01   1.00800           0   0.00000       0.00000    
     19612 MEMB     108      POPE     C36      CD32A     2.07980       11.6110           0  -1.66000       1.30000    
     19613 MEMB     108      POPE     DC36     DRUD     -2.23580      0.400000           0   0.00000       0.00000    
     19614 MEMB     108      POPE     H6X      HDA2A    0.780000E-01   1.00800           0   0.00000       0.00000    
     19615 MEMB     108      POPE     H6Y      HDA2A    0.780000E-01   1.00800           0   0.00000       0.00000    
     19616 MEMB     108      POPE     C37      CD32A     2.07980       11.6110           0  -1.66000       1.30000    
     19617 MEMB     108      POPE     DC37     DRUD     -2.23580      0.400000           0   0.00000       0.00000    
     19618 MEMB     108      POPE     H7X      HDA2A    0.780000E-01   1.00800           0   0.00000       0.00000    
     19619 MEMB     108      POPE     H7Y      HDA2A    0.780000E-01   1.00800           0   0.00000       0.00000    
     19620 MEMB     108      POPE     C38      CD32A     2.07980       11.6110           0  -1.66000       1.30000    
     19621 MEMB     108      POPE     DC38     DRUD     -2.23580      0.400000           0   0.00000       0.00000    
     19622 MEMB     108      POPE     H8X      HDA2A    0.780000E-01   1.00800           0   0.00000       0.00000    
     19623 MEMB     108      POPE     H8Y      HDA2A    0.780000E-01   1.00800           0   0.00000       0.00000    
     19624 MEMB     108      POPE     C39      CD32A     2.07980       11.6110           0  -1.66000       1.30000    
     19625 MEMB     108      POPE     DC39     DRUD     -2.23580      0.400000           0   0.00000       0.00000    
     19626 MEMB     108      POPE     H9X      HDA2A    0.780000E-01   1.00800           0   0.00000       0.00000    
     19627 MEMB     108      POPE     H9Y      HDA2A    0.780000E-01   1.00800           0   0.00000       0.00000    
     19628 MEMB     108      POPE     C310     CD32A     2.07980       11.6110           0  -1.66000       1.30000    
     19629 MEMB     108      POPE     DC310    DRUD     -2.23580      0.400000           0   0.00000       0.00000    
     19630 MEMB     108      POPE     H10X     HDA2A    0.780000E-01   1.00800           0   0.00000       0.00000    
     19631 MEMB     108      POPE     H10Y     HDA2A    0.780000E-01   1.00800           0   0.00000       0.00000    
     19632 MEMB     108      POPE     C311     CD32A     2.07980       11.6110           0  -1.66000       1.30000    
     19633 MEMB     108      POPE     DC311    DRUD     -2.23580      0.400000           0   0.00000       0.00000    
     19634 MEMB     108      POPE     H11X     HDA2A    0.780000E-01   1.00800           0   0.00000       0.00000    
     19635 MEMB     108      POPE     H11Y     HDA2A    0.780000E-01   1.00800           0   0.00000       0.00000    
     19636 MEMB     108      POPE     C312     CD32A     2.07980       11.6110           0  -1.66000       1.30000    
     19637 MEMB     108      POPE     DC312    DRUD     -2.23580      0.400000           0   0.00000       0.00000    
     19638 MEMB     108      POPE     H12X     HDA2A    0.780000E-01   1.00800           0   0.00000       0.00000    
     19639 MEMB     108      POPE     H12Y     HDA2A    0.780000E-01   1.00800           0   0.00000       0.00000    
     19640 MEMB     108      POPE     C313     CD32A     2.07980       11.6110           0  -1.66000       1.30000    
     19641 MEMB     108      POPE     DC313    DRUD     -2.23580      0.400000           0   0.00000       0.00000    
     19642 MEMB     108      POPE     H13X     HDA2A    0.780000E-01   1.00800           0   0.00000       0.00000    
     19643 MEMB     108      POPE     H13Y     HDA2A    0.780000E-01   1.00800           0   0.00000       0.00000    
     19644 MEMB     108      POPE     C314     CD32A     2.07980       11.6110           0  -1.66000       1.30000    
     19645 MEMB     108      POPE     DC314    DRUD     -2.23580      0.400000           0   0.00000       0.00000    
     19646 MEMB     108      POPE     H14X     HDA2A    0.780000E-01   1.00800           0   0.00000       0.00000    
     19647 MEMB     108      POPE     H14Y     HDA2A    0.780000E-01   1.00800           0   0.00000       0.00000    
     19648 MEMB     108      POPE     C315     CD32A     2.07980       11.6110           0  -1.66000       1.30000    
     19649 MEMB     108      POPE     DC315    DRUD     -2.23580      0.400000           0   0.00000       0.00000    
     19650 MEMB     108      POPE     H15X     HDA2A    0.780000E-01   1.00800           0   0.00000       0.00000    
     19651 MEMB     108      POPE     H15Y     HDA2A    0.780000E-01   1.00800           0   0.00000       0.00000    
     19652 MEMB     108      POPE     C316     CD33A     2.30820       11.6110           0  -2.05100       1.30000    
     19653 MEMB     108      POPE     DC316    DRUD     -2.48520      0.400000           0   0.00000       0.00000    
     19654 MEMB     108      POPE     H16X     HDA3A    0.590000E-01   1.00800           0   0.00000       0.00000    
     19655 MEMB     108      POPE     H16Y     HDA3A    0.590000E-01   1.00800           0   0.00000       0.00000    
     19656 MEMB     108      POPE     H16Z     HDA3A    0.590000E-01   1.00800           0   0.00000       0.00000    
     19657 MEMB     109      POPE     N        ND3P3A    1.62810       13.6070           0  -1.29800      0.895000    
     19658 MEMB     109      POPE     DN       DRUD     -1.97710      0.400000           0   0.00000       0.00000    
     19659 MEMB     109      POPE     HN1      HDP1B    0.340000       1.00800           0   0.00000       0.00000    
     19660 MEMB     109      POPE     HN2      HDP1B    0.340000       1.00800           0   0.00000       0.00000    
     19661 MEMB     109      POPE     HN3      HDP1B    0.340000       1.00800           0   0.00000       0.00000    
     19662 MEMB     109      POPE     C12      CD32A     2.27610       11.6110           0  -1.65600      0.895000    
     19663 MEMB     109      POPE     DC12     DRUD     -2.23310      0.400000           0   0.00000       0.00000    
     19664 MEMB     109      POPE     H12A     HDA2A    0.143000       1.00800           0   0.00000       0.00000    
     19665 MEMB     109      POPE     H12B     HDA2A    0.143000       1.00800           0   0.00000       0.00000    
     19666 MEMB     109      POPE     C11      CD32A     2.42220       11.6110           0  -1.64200      0.862000    
     19667 MEMB     109      POPE     DC11     DRUD     -2.22370      0.400000           0   0.00000       0.00000    
     19668 MEMB     109      POPE     H11A     HDA2A    0.260000E-01   1.00800           0   0.00000       0.00000    
     19669 MEMB     109      POPE     H11B     HDA2A    0.260000E-01   1.00800           0   0.00000       0.00000    
     19670 MEMB     109      POPE     P        PD1A      2.90360       30.5740           0 -0.974000       2.09800    
     19671 MEMB     109      POPE     DP       DRUD     -1.71260      0.400000           0   0.00000       0.00000    
     19672 MEMB     109      POPE     O13      OD2C2B   0.798400       15.5994           0 -0.931000       1.08300    
     19673 MEMB     109      POPE     DO13     DRUD     -1.67440      0.400000           0   0.00000       0.00000    
     19674 MEMB     109      POPE     O14      OD2C2B   0.798400       15.5994           0 -0.931000       1.08300    
     19675 MEMB     109      POPE     DO14     DRUD     -1.67440      0.400000           0   0.00000       0.00000    
     19676 MEMB     109      POPE     O11      OD30B     1.17720       15.5994           0 -0.901000      0.181000    
     19677 MEMB     109      POPE     DO11     DRUD     -1.64720      0.400000           0   0.00000       0.00000    
     19678 MEMB     109      POPE     O12      OD30B     1.17720       15.5994           0 -0.901000      0.181000    
     19679 MEMB     109      POPE     DO12     DRUD     -1.64720      0.400000           0   0.00000       0.00000    
     19680 MEMB     109      POPE     C1       CD32A     2.42220       11.6110           0  -1.64200      0.862000    
     19681 MEMB     109      POPE     DC1      DRUD     -2.22370      0.400000           0   0.00000       0.00000    
     19682 MEMB     109      POPE     HA       HDA2A    0.260000E-01   1.00800           0   0.00000       0.00000    
     19683 MEMB     109      POPE     HB       HDA2A    0.260000E-01   1.00800           0   0.00000       0.00000    
     19684 MEMB     109      POPE     C2       CD31C     2.52830       11.6110           0  -1.79700      0.410000    
     19685 MEMB     109      POPE     DC2      DRUD     -2.32630      0.400000           0   0.00000       0.00000    
     19686 MEMB     109      POPE     HS       HDA1A    0.116000       1.00800           0   0.00000       0.00000    
     19687 MEMB     109      POPE     O21      OD30CL    1.48470       15.5994           0 -0.732000      0.601000    
     19688 MEMB     109      POPE     DO21     DRUD     -1.48470      0.400000           0   0.00000       0.00000    
     19689 MEMB     109      POPE     C21      CD2O3B    2.72820       11.6110           0  -1.37000       1.74700    
     19690 MEMB     109      POPE     DC21     DRUD     -2.03120      0.400000           0   0.00000       0.00000    
     19691 MEMB     109      POPE     O22      OD2C3B    1.64990       15.5994           0 -0.904000      0.565000    
     19692 MEMB     109      POPE     DO22     DRUD     -1.64990      0.400000           0   0.00000       0.00000    
     19693 MEMB     109      POPE     C22      CD32C     2.24380       11.6110           0  -1.99300      0.410000    
     19694 MEMB     109      POPE     DC22     DRUD     -2.44980      0.400000           0   0.00000       0.00000    
     19695 MEMB     109      POPE     H2R      HDA2A    0.690000E-01   1.00800           0   0.00000       0.00000    
     19696 MEMB     109      POPE     H2S      HDA2A    0.690000E-01   1.00800           0   0.00000       0.00000    
     19697 MEMB     109      POPE     LP1A     LPD     -0.349000       0.00000          -1   0.00000       0.00000    
     19698 MEMB     109      POPE     LP1B     LPD     -0.258000       0.00000          -1   0.00000       0.00000    
     19699 MEMB     109      POPE     LPMA     LPD     -0.170000       0.00000          -1   0.00000       0.00000    
     19700 MEMB     109      POPE     LPMB     LPD     -0.170000       0.00000          -1   0.00000       0.00000    
     19701 MEMB     109      POPE     C3       CD32C     2.41230       11.6110           0  -1.79700      0.410000    
     19702 MEMB     109      POPE     DC3      DRUD     -2.32630      0.400000           0   0.00000       0.00000    
     19703 MEMB     109      POPE     HX       HDA2A    0.116000       1.00800           0   0.00000       0.00000    
     19704 MEMB     109      POPE     HY       HDA2A    0.116000       1.00800           0   0.00000       0.00000    
     19705 MEMB     109      POPE     O31      OD30CL    1.48470       15.5994           0 -0.732000      0.601000    
     19706 MEMB     109      POPE     DO31     DRUD     -1.48470      0.400000           0   0.00000       0.00000    
     19707 MEMB     109      POPE     C31      CD2O3B    2.72820       11.6110           0  -1.37000       1.74700    
     19708 MEMB     109      POPE     DC31     DRUD     -2.03120      0.400000           0   0.00000       0.00000    
     19709 MEMB     109      POPE     O32      OD2C3B    1.64990       15.5994           0 -0.904000      0.565000    
     19710 MEMB     109      POPE     DO32     DRUD     -1.64990      0.400000           0   0.00000       0.00000    
     19711 MEMB     109      POPE     C32      CD32C     2.24380       11.6110           0  -1.99300      0.410000    
     19712 MEMB     109      POPE     DC32     DRUD     -2.44980      0.400000           0   0.00000       0.00000    
     19713 MEMB     109      POPE     H2X      HDA2A    0.690000E-01   1.00800           0   0.00000       0.00000    
     19714 MEMB     109      POPE     H2Y      HDA2A    0.690000E-01   1.00800           0   0.00000       0.00000    
     19715 MEMB     109      POPE     LP1C     LPD     -0.349000       0.00000          -1   0.00000       0.00000    
     19716 MEMB     109      POPE     LP1D     LPD     -0.258000       0.00000          -1   0.00000       0.00000    
     19717 MEMB     109      POPE     LPMC     LPD     -0.170000       0.00000          -1   0.00000       0.00000    
     19718 MEMB     109      POPE     LPMD     LPD     -0.170000       0.00000          -1   0.00000       0.00000    
     19719 MEMB     109      POPE     C23      CD32A     2.07980       11.6110           0  -1.66000       1.30000    
     19720 MEMB     109      POPE     DC23     DRUD     -2.23580      0.400000           0   0.00000       0.00000    
     19721 MEMB     109      POPE     H3R      HDA2A    0.780000E-01   1.00800           0   0.00000       0.00000    
     19722 MEMB     109      POPE     H3S      HDA2A    0.780000E-01   1.00800           0   0.00000       0.00000    
     19723 MEMB     109      POPE     C24      CD32A     2.07980       11.6110           0  -1.66000       1.30000    
     19724 MEMB     109      POPE     DC24     DRUD     -2.23580      0.400000           0   0.00000       0.00000    
     19725 MEMB     109      POPE     H4R      HDA2A    0.780000E-01   1.00800           0   0.00000       0.00000    
     19726 MEMB     109      POPE     H4S      HDA2A    0.780000E-01   1.00800           0   0.00000       0.00000    
     19727 MEMB     109      POPE     C25      CD32A     2.07980       11.6110           0  -1.66000       1.30000    
     19728 MEMB     109      POPE     DC25     DRUD     -2.23580      0.400000           0   0.00000       0.00000    
     19729 MEMB     109      POPE     H5R      HDA2A    0.780000E-01   1.00800           0   0.00000       0.00000    
     19730 MEMB     109      POPE     H5S      HDA2A    0.780000E-01   1.00800           0   0.00000       0.00000    
     19731 MEMB     109      POPE     C26      CD32A     2.07980       11.6110           0  -1.66000       1.30000    
     19732 MEMB     109      POPE     DC26     DRUD     -2.23580      0.400000           0   0.00000       0.00000    
     19733 MEMB     109      POPE     H6R      HDA2A    0.780000E-01   1.00800           0   0.00000       0.00000    
     19734 MEMB     109      POPE     H6S      HDA2A    0.780000E-01   1.00800           0   0.00000       0.00000    
     19735 MEMB     109      POPE     C27      CD32A     2.07980       11.6110           0  -1.66000       1.30000    
     19736 MEMB     109      POPE     DC27     DRUD     -2.23580      0.400000           0   0.00000       0.00000    
     19737 MEMB     109      POPE     H7R      HDA2A    0.780000E-01   1.00800           0   0.00000       0.00000    
     19738 MEMB     109      POPE     H7S      HDA2A    0.780000E-01   1.00800           0   0.00000       0.00000    
     19739 MEMB     109      POPE     C28      CD32A     2.07980       11.6110           0  -1.66000       1.30000    
     19740 MEMB     109      POPE     DC28     DRUD     -2.23580      0.400000           0   0.00000       0.00000    
     19741 MEMB     109      POPE     H8R      HDA2A    0.780000E-01   1.00800           0   0.00000       0.00000    
     19742 MEMB     109      POPE     H8S      HDA2A    0.780000E-01   1.00800           0   0.00000       0.00000    
     19743 MEMB     109      POPE     C29      CD2C1A    2.33700       11.6110           0  -1.99000      0.750000    
     19744 MEMB     109      POPE     DC29     DRUD     -2.44800      0.400000           0   0.00000       0.00000    
     19745 MEMB     109      POPE     H91      HD2C1A   0.111000       1.00800           0   0.00000       0.00000    
     19746 MEMB     109      POPE     C210     CD2C1A    2.33700       11.6110           0  -1.99000      0.750000    
     19747 MEMB     109      POPE     DC210    DRUD     -2.44800      0.400000           0   0.00000       0.00000    
     19748 MEMB     109      POPE     H101     HD2C1A   0.111000       1.00800           0   0.00000       0.00000    
     19749 MEMB     109      POPE     C211     CD32A     2.07980       11.6110           0  -1.66000       1.30000    
     19750 MEMB     109      POPE     DC211    DRUD     -2.23580      0.400000           0   0.00000       0.00000    
     19751 MEMB     109      POPE     H11R     HDA2A    0.780000E-01   1.00800           0   0.00000       0.00000    
     19752 MEMB     109      POPE     H11S     HDA2A    0.780000E-01   1.00800           0   0.00000       0.00000    
     19753 MEMB     109      POPE     C212     CD32A     2.07980       11.6110           0  -1.66000       1.30000    
     19754 MEMB     109      POPE     DC212    DRUD     -2.23580      0.400000           0   0.00000       0.00000    
     19755 MEMB     109      POPE     H12R     HDA2A    0.780000E-01   1.00800           0   0.00000       0.00000    
     19756 MEMB     109      POPE     H12S     HDA2A    0.780000E-01   1.00800           0   0.00000       0.00000    
     19757 MEMB     109      POPE     C213     CD32A     2.07980       11.6110           0  -1.66000       1.30000    
     19758 MEMB     109      POPE     DC213    DRUD     -2.23580      0.400000           0   0.00000       0.00000    
     19759 MEMB     109      POPE     H13R     HDA2A    0.780000E-01   1.00800           0   0.00000       0.00000    
     19760 MEMB     109      POPE     H13S     HDA2A    0.780000E-01   1.00800           0   0.00000       0.00000    
     19761 MEMB     109      POPE     C214     CD32A     2.07980       11.6110           0  -1.66000       1.30000    
     19762 MEMB     109      POPE     DC214    DRUD     -2.23580      0.400000           0   0.00000       0.00000    
     19763 MEMB     109      POPE     H14R     HDA2A    0.780000E-01   1.00800           0   0.00000       0.00000    
     19764 MEMB     109      POPE     H14S     HDA2A    0.780000E-01   1.00800           0   0.00000       0.00000    
     19765 MEMB     109      POPE     C215     CD32A     2.07980       11.6110           0  -1.66000       1.30000    
     19766 MEMB     109      POPE     DC215    DRUD     -2.23580      0.400000           0   0.00000       0.00000    
     19767 MEMB     109      POPE     H15R     HDA2A    0.780000E-01   1.00800           0   0.00000       0.00000    
     19768 MEMB     109      POPE     H15S     HDA2A    0.780000E-01   1.00800           0   0.00000       0.00000    
     19769 MEMB     109      POPE     C216     CD32A     2.07980       11.6110           0  -1.66000       1.30000    
     19770 MEMB     109      POPE     DC216    DRUD     -2.23580      0.400000           0   0.00000       0.00000    
     19771 MEMB     109      POPE     H16R     HDA2A    0.780000E-01   1.00800           0   0.00000       0.00000    
     19772 MEMB     109      POPE     H16S     HDA2A    0.780000E-01   1.00800           0   0.00000       0.00000    
     19773 MEMB     109      POPE     C217     CD32A     2.07980       11.6110           0  -1.66000       1.30000    
     19774 MEMB     109      POPE     DC217    DRUD     -2.23580      0.400000           0   0.00000       0.00000    
     19775 MEMB     109      POPE     H17R     HDA2A    0.780000E-01   1.00800           0   0.00000       0.00000    
     19776 MEMB     109      POPE     H17S     HDA2A    0.780000E-01   1.00800           0   0.00000       0.00000    
     19777 MEMB     109      POPE     C218     CD33A     2.30820       11.6110           0  -2.05100       1.30000    
     19778 MEMB     109      POPE     DC218    DRUD     -2.48520      0.400000           0   0.00000       0.00000    
     19779 MEMB     109      POPE     H18R     HDA3A    0.590000E-01   1.00800           0   0.00000       0.00000    
     19780 MEMB     109      POPE     H18S     HDA3A    0.590000E-01   1.00800           0   0.00000       0.00000    
     19781 MEMB     109      POPE     H18T     HDA3A    0.590000E-01   1.00800           0   0.00000       0.00000    
     19782 MEMB     109      POPE     C33      CD32A     2.07980       11.6110           0  -1.66000       1.30000    
     19783 MEMB     109      POPE     DC33     DRUD     -2.23580      0.400000           0   0.00000       0.00000    
     19784 MEMB     109      POPE     H3X      HDA2A    0.780000E-01   1.00800           0   0.00000       0.00000    
     19785 MEMB     109      POPE     H3Y      HDA2A    0.780000E-01   1.00800           0   0.00000       0.00000    
     19786 MEMB     109      POPE     C34      CD32A     2.07980       11.6110           0  -1.66000       1.30000    
     19787 MEMB     109      POPE     DC34     DRUD     -2.23580      0.400000           0   0.00000       0.00000    
     19788 MEMB     109      POPE     H4X      HDA2A    0.780000E-01   1.00800           0   0.00000       0.00000    
     19789 MEMB     109      POPE     H4Y      HDA2A    0.780000E-01   1.00800           0   0.00000       0.00000    
     19790 MEMB     109      POPE     C35      CD32A     2.07980       11.6110           0  -1.66000       1.30000    
     19791 MEMB     109      POPE     DC35     DRUD     -2.23580      0.400000           0   0.00000       0.00000    
     19792 MEMB     109      POPE     H5X      HDA2A    0.780000E-01   1.00800           0   0.00000       0.00000    
     19793 MEMB     109      POPE     H5Y      HDA2A    0.780000E-01   1.00800           0   0.00000       0.00000    
     19794 MEMB     109      POPE     C36      CD32A     2.07980       11.6110           0  -1.66000       1.30000    
     19795 MEMB     109      POPE     DC36     DRUD     -2.23580      0.400000           0   0.00000       0.00000    
     19796 MEMB     109      POPE     H6X      HDA2A    0.780000E-01   1.00800           0   0.00000       0.00000    
     19797 MEMB     109      POPE     H6Y      HDA2A    0.780000E-01   1.00800           0   0.00000       0.00000    
     19798 MEMB     109      POPE     C37      CD32A     2.07980       11.6110           0  -1.66000       1.30000    
     19799 MEMB     109      POPE     DC37     DRUD     -2.23580      0.400000           0   0.00000       0.00000    
     19800 MEMB     109      POPE     H7X      HDA2A    0.780000E-01   1.00800           0   0.00000       0.00000    
     19801 MEMB     109      POPE     H7Y      HDA2A    0.780000E-01   1.00800           0   0.00000       0.00000    
     19802 MEMB     109      POPE     C38      CD32A     2.07980       11.6110           0  -1.66000       1.30000    
     19803 MEMB     109      POPE     DC38     DRUD     -2.23580      0.400000           0   0.00000       0.00000    
     19804 MEMB     109      POPE     H8X      HDA2A    0.780000E-01   1.00800           0   0.00000       0.00000    
     19805 MEMB     109      POPE     H8Y      HDA2A    0.780000E-01   1.00800           0   0.00000       0.00000    
     19806 MEMB     109      POPE     C39      CD32A     2.07980       11.6110           0  -1.66000       1.30000    
     19807 MEMB     109      POPE     DC39     DRUD     -2.23580      0.400000           0   0.00000       0.00000    
     19808 MEMB     109      POPE     H9X      HDA2A    0.780000E-01   1.00800           0   0.00000       0.00000    
     19809 MEMB     109      POPE     H9Y      HDA2A    0.780000E-01   1.00800           0   0.00000       0.00000    
     19810 MEMB     109      POPE     C310     CD32A     2.07980       11.6110           0  -1.66000       1.30000    
     19811 MEMB     109      POPE     DC310    DRUD     -2.23580      0.400000           0   0.00000       0.00000    
     19812 MEMB     109      POPE     H10X     HDA2A    0.780000E-01   1.00800           0   0.00000       0.00000    
     19813 MEMB     109      POPE     H10Y     HDA2A    0.780000E-01   1.00800           0   0.00000       0.00000    
     19814 MEMB     109      POPE     C311     CD32A     2.07980       11.6110           0  -1.66000       1.30000    
     19815 MEMB     109      POPE     DC311    DRUD     -2.23580      0.400000           0   0.00000       0.00000    
     19816 MEMB     109      POPE     H11X     HDA2A    0.780000E-01   1.00800           0   0.00000       0.00000    
     19817 MEMB     109      POPE     H11Y     HDA2A    0.780000E-01   1.00800           0   0.00000       0.00000    
     19818 MEMB     109      POPE     C312     CD32A     2.07980       11.6110           0  -1.66000       1.30000    
     19819 MEMB     109      POPE     DC312    DRUD     -2.23580      0.400000           0   0.00000       0.00000    
     19820 MEMB     109      POPE     H12X     HDA2A    0.780000E-01   1.00800           0   0.00000       0.00000    
     19821 MEMB     109      POPE     H12Y     HDA2A    0.780000E-01   1.00800           0   0.00000       0.00000    
     19822 MEMB     109      POPE     C313     CD32A     2.07980       11.6110           0  -1.66000       1.30000    
     19823 MEMB     109      POPE     DC313    DRUD     -2.23580      0.400000           0   0.00000       0.00000    
     19824 MEMB     109      POPE     H13X     HDA2A    0.780000E-01   1.00800           0   0.00000       0.00000    
     19825 MEMB     109      POPE     H13Y     HDA2A    0.780000E-01   1.00800           0   0.00000       0.00000    
     19826 MEMB     109      POPE     C314     CD32A     2.07980       11.6110           0  -1.66000       1.30000    
     19827 MEMB     109      POPE     DC314    DRUD     -2.23580      0.400000           0   0.00000       0.00000    
     19828 MEMB     109      POPE     H14X     HDA2A    0.780000E-01   1.00800           0   0.00000       0.00000    
     19829 MEMB     109      POPE     H14Y     HDA2A    0.780000E-01   1.00800           0   0.00000       0.00000    
     19830 MEMB     109      POPE     C315     CD32A     2.07980       11.6110           0  -1.66000       1.30000    
     19831 MEMB     109      POPE     DC315    DRUD     -2.23580      0.400000           0   0.00000       0.00000    
     19832 MEMB     109      POPE     H15X     HDA2A    0.780000E-01   1.00800           0   0.00000       0.00000    
     19833 MEMB     109      POPE     H15Y     HDA2A    0.780000E-01   1.00800           0   0.00000       0.00000    
     19834 MEMB     109      POPE     C316     CD33A     2.30820       11.6110           0  -2.05100       1.30000    
     19835 MEMB     109      POPE     DC316    DRUD     -2.48520      0.400000           0   0.00000       0.00000    
     19836 MEMB     109      POPE     H16X     HDA3A    0.590000E-01   1.00800           0   0.00000       0.00000    
     19837 MEMB     109      POPE     H16Y     HDA3A    0.590000E-01   1.00800           0   0.00000       0.00000    
     19838 MEMB     109      POPE     H16Z     HDA3A    0.590000E-01   1.00800           0   0.00000       0.00000    
     19839 MEMB     110      POPE     N        ND3P3A    1.62810       13.6070           0  -1.29800      0.895000    
     19840 MEMB     110      POPE     DN       DRUD     -1.97710      0.400000           0   0.00000       0.00000    
     19841 MEMB     110      POPE     HN1      HDP1B    0.340000       1.00800           0   0.00000       0.00000    
     19842 MEMB     110      POPE     HN2      HDP1B    0.340000       1.00800           0   0.00000       0.00000    
     19843 MEMB     110      POPE     HN3      HDP1B    0.340000       1.00800           0   0.00000       0.00000    
     19844 MEMB     110      POPE     C12      CD32A     2.27610       11.6110           0  -1.65600      0.895000    
     19845 MEMB     110      POPE     DC12     DRUD     -2.23310      0.400000           0   0.00000       0.00000    
     19846 MEMB     110      POPE     H12A     HDA2A    0.143000       1.00800           0   0.00000       0.00000    
     19847 MEMB     110      POPE     H12B     HDA2A    0.143000       1.00800           0   0.00000       0.00000    
     19848 MEMB     110      POPE     C11      CD32A     2.42220       11.6110           0  -1.64200      0.862000    
     19849 MEMB     110      POPE     DC11     DRUD     -2.22370      0.400000           0   0.00000       0.00000    
     19850 MEMB     110      POPE     H11A     HDA2A    0.260000E-01   1.00800           0   0.00000       0.00000    
     19851 MEMB     110      POPE     H11B     HDA2A    0.260000E-01   1.00800           0   0.00000       0.00000    
     19852 MEMB     110      POPE     P        PD1A      2.90360       30.5740           0 -0.974000       2.09800    
     19853 MEMB     110      POPE     DP       DRUD     -1.71260      0.400000           0   0.00000       0.00000    
     19854 MEMB     110      POPE     O13      OD2C2B   0.798400       15.5994           0 -0.931000       1.08300    
     19855 MEMB     110      POPE     DO13     DRUD     -1.67440      0.400000           0   0.00000       0.00000    
     19856 MEMB     110      POPE     O14      OD2C2B   0.798400       15.5994           0 -0.931000       1.08300    
     19857 MEMB     110      POPE     DO14     DRUD     -1.67440      0.400000           0   0.00000       0.00000    
     19858 MEMB     110      POPE     O11      OD30B     1.17720       15.5994           0 -0.901000      0.181000    
     19859 MEMB     110      POPE     DO11     DRUD     -1.64720      0.400000           0   0.00000       0.00000    
     19860 MEMB     110      POPE     O12      OD30B     1.17720       15.5994           0 -0.901000      0.181000    
     19861 MEMB     110      POPE     DO12     DRUD     -1.64720      0.400000           0   0.00000       0.00000    
     19862 MEMB     110      POPE     C1       CD32A     2.42220       11.6110           0  -1.64200      0.862000    
     19863 MEMB     110      POPE     DC1      DRUD     -2.22370      0.400000           0   0.00000       0.00000    
     19864 MEMB     110      POPE     HA       HDA2A    0.260000E-01   1.00800           0   0.00000       0.00000    
     19865 MEMB     110      POPE     HB       HDA2A    0.260000E-01   1.00800           0   0.00000       0.00000    
     19866 MEMB     110      POPE     C2       CD31C     2.52830       11.6110           0  -1.79700      0.410000    
     19867 MEMB     110      POPE     DC2      DRUD     -2.32630      0.400000           0   0.00000       0.00000    
     19868 MEMB     110      POPE     HS       HDA1A    0.116000       1.00800           0   0.00000       0.00000    
     19869 MEMB     110      POPE     O21      OD30CL    1.48470       15.5994           0 -0.732000      0.601000    
     19870 MEMB     110      POPE     DO21     DRUD     -1.48470      0.400000           0   0.00000       0.00000    
     19871 MEMB     110      POPE     C21      CD2O3B    2.72820       11.6110           0  -1.37000       1.74700    
     19872 MEMB     110      POPE     DC21     DRUD     -2.03120      0.400000           0   0.00000       0.00000    
     19873 MEMB     110      POPE     O22      OD2C3B    1.64990       15.5994           0 -0.904000      0.565000    
     19874 MEMB     110      POPE     DO22     DRUD     -1.64990      0.400000           0   0.00000       0.00000    
     19875 MEMB     110      POPE     C22      CD32C     2.24380       11.6110           0  -1.99300      0.410000    
     19876 MEMB     110      POPE     DC22     DRUD     -2.44980      0.400000           0   0.00000       0.00000    
     19877 MEMB     110      POPE     H2R      HDA2A    0.690000E-01   1.00800           0   0.00000       0.00000    
     19878 MEMB     110      POPE     H2S      HDA2A    0.690000E-01   1.00800           0   0.00000       0.00000    
     19879 MEMB     110      POPE     LP1A     LPD     -0.349000       0.00000          -1   0.00000       0.00000    
     19880 MEMB     110      POPE     LP1B     LPD     -0.258000       0.00000          -1   0.00000       0.00000    
     19881 MEMB     110      POPE     LPMA     LPD     -0.170000       0.00000          -1   0.00000       0.00000    
     19882 MEMB     110      POPE     LPMB     LPD     -0.170000       0.00000          -1   0.00000       0.00000    
     19883 MEMB     110      POPE     C3       CD32C     2.41230       11.6110           0  -1.79700      0.410000    
     19884 MEMB     110      POPE     DC3      DRUD     -2.32630      0.400000           0   0.00000       0.00000    
     19885 MEMB     110      POPE     HX       HDA2A    0.116000       1.00800           0   0.00000       0.00000    
     19886 MEMB     110      POPE     HY       HDA2A    0.116000       1.00800           0   0.00000       0.00000    
     19887 MEMB     110      POPE     O31      OD30CL    1.48470       15.5994           0 -0.732000      0.601000    
     19888 MEMB     110      POPE     DO31     DRUD     -1.48470      0.400000           0   0.00000       0.00000    
     19889 MEMB     110      POPE     C31      CD2O3B    2.72820       11.6110           0  -1.37000       1.74700    
     19890 MEMB     110      POPE     DC31     DRUD     -2.03120      0.400000           0   0.00000       0.00000    
     19891 MEMB     110      POPE     O32      OD2C3B    1.64990       15.5994           0 -0.904000      0.565000    
     19892 MEMB     110      POPE     DO32     DRUD     -1.64990      0.400000           0   0.00000       0.00000    
     19893 MEMB     110      POPE     C32      CD32C     2.24380       11.6110           0  -1.99300      0.410000    
     19894 MEMB     110      POPE     DC32     DRUD     -2.44980      0.400000           0   0.00000       0.00000    
     19895 MEMB     110      POPE     H2X      HDA2A    0.690000E-01   1.00800           0   0.00000       0.00000    
     19896 MEMB     110      POPE     H2Y      HDA2A    0.690000E-01   1.00800           0   0.00000       0.00000    
     19897 MEMB     110      POPE     LP1C     LPD     -0.349000       0.00000          -1   0.00000       0.00000    
     19898 MEMB     110      POPE     LP1D     LPD     -0.258000       0.00000          -1   0.00000       0.00000    
     19899 MEMB     110      POPE     LPMC     LPD     -0.170000       0.00000          -1   0.00000       0.00000    
     19900 MEMB     110      POPE     LPMD     LPD     -0.170000       0.00000          -1   0.00000       0.00000    
     19901 MEMB     110      POPE     C23      CD32A     2.07980       11.6110           0  -1.66000       1.30000    
     19902 MEMB     110      POPE     DC23     DRUD     -2.23580      0.400000           0   0.00000       0.00000    
     19903 MEMB     110      POPE     H3R      HDA2A    0.780000E-01   1.00800           0   0.00000       0.00000    
     19904 MEMB     110      POPE     H3S      HDA2A    0.780000E-01   1.00800           0   0.00000       0.00000    
     19905 MEMB     110      POPE     C24      CD32A     2.07980       11.6110           0  -1.66000       1.30000    
     19906 MEMB     110      POPE     DC24     DRUD     -2.23580      0.400000           0   0.00000       0.00000    
     19907 MEMB     110      POPE     H4R      HDA2A    0.780000E-01   1.00800           0   0.00000       0.00000    
     19908 MEMB     110      POPE     H4S      HDA2A    0.780000E-01   1.00800           0   0.00000       0.00000    
     19909 MEMB     110      POPE     C25      CD32A     2.07980       11.6110           0  -1.66000       1.30000    
     19910 MEMB     110      POPE     DC25     DRUD     -2.23580      0.400000           0   0.00000       0.00000    
     19911 MEMB     110      POPE     H5R      HDA2A    0.780000E-01   1.00800           0   0.00000       0.00000    
     19912 MEMB     110      POPE     H5S      HDA2A    0.780000E-01   1.00800           0   0.00000       0.00000    
     19913 MEMB     110      POPE     C26      CD32A     2.07980       11.6110           0  -1.66000       1.30000    
     19914 MEMB     110      POPE     DC26     DRUD     -2.23580      0.400000           0   0.00000       0.00000    
     19915 MEMB     110      POPE     H6R      HDA2A    0.780000E-01   1.00800           0   0.00000       0.00000    
     19916 MEMB     110      POPE     H6S      HDA2A    0.780000E-01   1.00800           0   0.00000       0.00000    
     19917 MEMB     110      POPE     C27      CD32A     2.07980       11.6110           0  -1.66000       1.30000    
     19918 MEMB     110      POPE     DC27     DRUD     -2.23580      0.400000           0   0.00000       0.00000    
     19919 MEMB     110      POPE     H7R      HDA2A    0.780000E-01   1.00800           0   0.00000       0.00000    
     19920 MEMB     110      POPE     H7S      HDA2A    0.780000E-01   1.00800           0   0.00000       0.00000    
     19921 MEMB     110      POPE     C28      CD32A     2.07980       11.6110           0  -1.66000       1.30000    
     19922 MEMB     110      POPE     DC28     DRUD     -2.23580      0.400000           0   0.00000       0.00000    
     19923 MEMB     110      POPE     H8R      HDA2A    0.780000E-01   1.00800           0   0.00000       0.00000    
     19924 MEMB     110      POPE     H8S      HDA2A    0.780000E-01   1.00800           0   0.00000       0.00000    
     19925 MEMB     110      POPE     C29      CD2C1A    2.33700       11.6110           0  -1.99000      0.750000    
     19926 MEMB     110      POPE     DC29     DRUD     -2.44800      0.400000           0   0.00000       0.00000    
     19927 MEMB     110      POPE     H91      HD2C1A   0.111000       1.00800           0   0.00000       0.00000    
     19928 MEMB     110      POPE     C210     CD2C1A    2.33700       11.6110           0  -1.99000      0.750000    
     19929 MEMB     110      POPE     DC210    DRUD     -2.44800      0.400000           0   0.00000       0.00000    
     19930 MEMB     110      POPE     H101     HD2C1A   0.111000       1.00800           0   0.00000       0.00000    
     19931 MEMB     110      POPE     C211     CD32A     2.07980       11.6110           0  -1.66000       1.30000    
     19932 MEMB     110      POPE     DC211    DRUD     -2.23580      0.400000           0   0.00000       0.00000    
     19933 MEMB     110      POPE     H11R     HDA2A    0.780000E-01   1.00800           0   0.00000       0.00000    
     19934 MEMB     110      POPE     H11S     HDA2A    0.780000E-01   1.00800           0   0.00000       0.00000    
     19935 MEMB     110      POPE     C212     CD32A     2.07980       11.6110           0  -1.66000       1.30000    
     19936 MEMB     110      POPE     DC212    DRUD     -2.23580      0.400000           0   0.00000       0.00000    
     19937 MEMB     110      POPE     H12R     HDA2A    0.780000E-01   1.00800           0   0.00000       0.00000    
     19938 MEMB     110      POPE     H12S     HDA2A    0.780000E-01   1.00800           0   0.00000       0.00000    
     19939 MEMB     110      POPE     C213     CD32A     2.07980       11.6110           0  -1.66000       1.30000    
     19940 MEMB     110      POPE     DC213    DRUD     -2.23580      0.400000           0   0.00000       0.00000    
     19941 MEMB     110      POPE     H13R     HDA2A    0.780000E-01   1.00800           0   0.00000       0.00000    
     19942 MEMB     110      POPE     H13S     HDA2A    0.780000E-01   1.00800           0   0.00000       0.00000    
     19943 MEMB     110      POPE     C214     CD32A     2.07980       11.6110           0  -1.66000       1.30000    
     19944 MEMB     110      POPE     DC214    DRUD     -2.23580      0.400000           0   0.00000       0.00000    
     19945 MEMB     110      POPE     H14R     HDA2A    0.780000E-01   1.00800           0   0.00000       0.00000    
     19946 MEMB     110      POPE     H14S     HDA2A    0.780000E-01   1.00800           0   0.00000       0.00000    
     19947 MEMB     110      POPE     C215     CD32A     2.07980       11.6110           0  -1.66000       1.30000    
     19948 MEMB     110      POPE     DC215    DRUD     -2.23580      0.400000           0   0.00000       0.00000    
     19949 MEMB     110      POPE     H15R     HDA2A    0.780000E-01   1.00800           0   0.00000       0.00000    
     19950 MEMB     110      POPE     H15S     HDA2A    0.780000E-01   1.00800           0   0.00000       0.00000    
     19951 MEMB     110      POPE     C216     CD32A     2.07980       11.6110           0  -1.66000       1.30000    
     19952 MEMB     110      POPE     DC216    DRUD     -2.23580      0.400000           0   0.00000       0.00000    
     19953 MEMB     110      POPE     H16R     HDA2A    0.780000E-01   1.00800           0   0.00000       0.00000    
     19954 MEMB     110      POPE     H16S     HDA2A    0.780000E-01   1.00800           0   0.00000       0.00000    
     19955 MEMB     110      POPE     C217     CD32A     2.07980       11.6110           0  -1.66000       1.30000    
     19956 MEMB     110      POPE     DC217    DRUD     -2.23580      0.400000           0   0.00000       0.00000    
     19957 MEMB     110      POPE     H17R     HDA2A    0.780000E-01   1.00800           0   0.00000       0.00000    
     19958 MEMB     110      POPE     H17S     HDA2A    0.780000E-01   1.00800           0   0.00000       0.00000    
     19959 MEMB     110      POPE     C218     CD33A     2.30820       11.6110           0  -2.05100       1.30000    
     19960 MEMB     110      POPE     DC218    DRUD     -2.48520      0.400000           0   0.00000       0.00000    
     19961 MEMB     110      POPE     H18R     HDA3A    0.590000E-01   1.00800           0   0.00000       0.00000    
     19962 MEMB     110      POPE     H18S     HDA3A    0.590000E-01   1.00800           0   0.00000       0.00000    
     19963 MEMB     110      POPE     H18T     HDA3A    0.590000E-01   1.00800           0   0.00000       0.00000    
     19964 MEMB     110      POPE     C33      CD32A     2.07980       11.6110           0  -1.66000       1.30000    
     19965 MEMB     110      POPE     DC33     DRUD     -2.23580      0.400000           0   0.00000       0.00000    
     19966 MEMB     110      POPE     H3X      HDA2A    0.780000E-01   1.00800           0   0.00000       0.00000    
     19967 MEMB     110      POPE     H3Y      HDA2A    0.780000E-01   1.00800           0   0.00000       0.00000    
     19968 MEMB     110      POPE     C34      CD32A     2.07980       11.6110           0  -1.66000       1.30000    
     19969 MEMB     110      POPE     DC34     DRUD     -2.23580      0.400000           0   0.00000       0.00000    
     19970 MEMB     110      POPE     H4X      HDA2A    0.780000E-01   1.00800           0   0.00000       0.00000    
     19971 MEMB     110      POPE     H4Y      HDA2A    0.780000E-01   1.00800           0   0.00000       0.00000    
     19972 MEMB     110      POPE     C35      CD32A     2.07980       11.6110           0  -1.66000       1.30000    
     19973 MEMB     110      POPE     DC35     DRUD     -2.23580      0.400000           0   0.00000       0.00000    
     19974 MEMB     110      POPE     H5X      HDA2A    0.780000E-01   1.00800           0   0.00000       0.00000    
     19975 MEMB     110      POPE     H5Y      HDA2A    0.780000E-01   1.00800           0   0.00000       0.00000    
     19976 MEMB     110      POPE     C36      CD32A     2.07980       11.6110           0  -1.66000       1.30000    
     19977 MEMB     110      POPE     DC36     DRUD     -2.23580      0.400000           0   0.00000       0.00000    
     19978 MEMB     110      POPE     H6X      HDA2A    0.780000E-01   1.00800           0   0.00000       0.00000    
     19979 MEMB     110      POPE     H6Y      HDA2A    0.780000E-01   1.00800           0   0.00000       0.00000    
     19980 MEMB     110      POPE     C37      CD32A     2.07980       11.6110           0  -1.66000       1.30000    
     19981 MEMB     110      POPE     DC37     DRUD     -2.23580      0.400000           0   0.00000       0.00000    
     19982 MEMB     110      POPE     H7X      HDA2A    0.780000E-01   1.00800           0   0.00000       0.00000    
     19983 MEMB     110      POPE     H7Y      HDA2A    0.780000E-01   1.00800           0   0.00000       0.00000    
     19984 MEMB     110      POPE     C38      CD32A     2.07980       11.6110           0  -1.66000       1.30000    
     19985 MEMB     110      POPE     DC38     DRUD     -2.23580      0.400000           0   0.00000       0.00000    
     19986 MEMB     110      POPE     H8X      HDA2A    0.780000E-01   1.00800           0   0.00000       0.00000    
     19987 MEMB     110      POPE     H8Y      HDA2A    0.780000E-01   1.00800           0   0.00000       0.00000    
     19988 MEMB     110      POPE     C39      CD32A     2.07980       11.6110           0  -1.66000       1.30000    
     19989 MEMB     110      POPE     DC39     DRUD     -2.23580      0.400000           0   0.00000       0.00000    
     19990 MEMB     110      POPE     H9X      HDA2A    0.780000E-01   1.00800           0   0.00000       0.00000    
     19991 MEMB     110      POPE     H9Y      HDA2A    0.780000E-01   1.00800           0   0.00000       0.00000    
     19992 MEMB     110      POPE     C310     CD32A     2.07980       11.6110           0  -1.66000       1.30000    
     19993 MEMB     110      POPE     DC310    DRUD     -2.23580      0.400000           0   0.00000       0.00000    
     19994 MEMB     110      POPE     H10X     HDA2A    0.780000E-01   1.00800           0   0.00000       0.00000    
     19995 MEMB     110      POPE     H10Y     HDA2A    0.780000E-01   1.00800           0   0.00000       0.00000    
     19996 MEMB     110      POPE     C311     CD32A     2.07980       11.6110           0  -1.66000       1.30000    
     19997 MEMB     110      POPE     DC311    DRUD     -2.23580      0.400000           0   0.00000       0.00000    
     19998 MEMB     110      POPE     H11X     HDA2A    0.780000E-01   1.00800           0   0.00000       0.00000    
     19999 MEMB     110      POPE     H11Y     HDA2A    0.780000E-01   1.00800           0   0.00000       0.00000    
     20000 MEMB     110      POPE     C312     CD32A     2.07980       11.6110           0  -1.66000       1.30000    
     20001 MEMB     110      POPE     DC312    DRUD     -2.23580      0.400000           0   0.00000       0.00000    
     20002 MEMB     110      POPE     H12X     HDA2A    0.780000E-01   1.00800           0   0.00000       0.00000    
     20003 MEMB     110      POPE     H12Y     HDA2A    0.780000E-01   1.00800           0   0.00000       0.00000    
     20004 MEMB     110      POPE     C313     CD32A     2.07980       11.6110           0  -1.66000       1.30000    
     20005 MEMB     110      POPE     DC313    DRUD     -2.23580      0.400000           0   0.00000       0.00000    
     20006 MEMB     110      POPE     H13X     HDA2A    0.780000E-01   1.00800           0   0.00000       0.00000    
     20007 MEMB     110      POPE     H13Y     HDA2A    0.780000E-01   1.00800           0   0.00000       0.00000    
     20008 MEMB     110      POPE     C314     CD32A     2.07980       11.6110           0  -1.66000       1.30000    
     20009 MEMB     110      POPE     DC314    DRUD     -2.23580      0.400000           0   0.00000       0.00000    
     20010 MEMB     110      POPE     H14X     HDA2A    0.780000E-01   1.00800           0   0.00000       0.00000    
     20011 MEMB     110      POPE     H14Y     HDA2A    0.780000E-01   1.00800           0   0.00000       0.00000    
     20012 MEMB     110      POPE     C315     CD32A     2.07980       11.6110           0  -1.66000       1.30000    
     20013 MEMB     110      POPE     DC315    DRUD     -2.23580      0.400000           0   0.00000       0.00000    
     20014 MEMB     110      POPE     H15X     HDA2A    0.780000E-01   1.00800           0   0.00000       0.00000    
     20015 MEMB     110      POPE     H15Y     HDA2A    0.780000E-01   1.00800           0   0.00000       0.00000    
     20016 MEMB     110      POPE     C316     CD33A     2.30820       11.6110           0  -2.05100       1.30000    
     20017 MEMB     110      POPE     DC316    DRUD     -2.48520      0.400000           0   0.00000       0.00000    
     20018 MEMB     110      POPE     H16X     HDA3A    0.590000E-01   1.00800           0   0.00000       0.00000    
     20019 MEMB     110      POPE     H16Y     HDA3A    0.590000E-01   1.00800           0   0.00000       0.00000    
     20020 MEMB     110      POPE     H16Z     HDA3A    0.590000E-01   1.00800           0   0.00000       0.00000    
     20021 MEMB     111      POPE     N        ND3P3A    1.62810       13.6070           0  -1.29800      0.895000    
     20022 MEMB     111      POPE     DN       DRUD     -1.97710      0.400000           0   0.00000       0.00000    
     20023 MEMB     111      POPE     HN1      HDP1B    0.340000       1.00800           0   0.00000       0.00000    
     20024 MEMB     111      POPE     HN2      HDP1B    0.340000       1.00800           0   0.00000       0.00000    
     20025 MEMB     111      POPE     HN3      HDP1B    0.340000       1.00800           0   0.00000       0.00000    
     20026 MEMB     111      POPE     C12      CD32A     2.27610       11.6110           0  -1.65600      0.895000    
     20027 MEMB     111      POPE     DC12     DRUD     -2.23310      0.400000           0   0.00000       0.00000    
     20028 MEMB     111      POPE     H12A     HDA2A    0.143000       1.00800           0   0.00000       0.00000    
     20029 MEMB     111      POPE     H12B     HDA2A    0.143000       1.00800           0   0.00000       0.00000    
     20030 MEMB     111      POPE     C11      CD32A     2.42220       11.6110           0  -1.64200      0.862000    
     20031 MEMB     111      POPE     DC11     DRUD     -2.22370      0.400000           0   0.00000       0.00000    
     20032 MEMB     111      POPE     H11A     HDA2A    0.260000E-01   1.00800           0   0.00000       0.00000    
     20033 MEMB     111      POPE     H11B     HDA2A    0.260000E-01   1.00800           0   0.00000       0.00000    
     20034 MEMB     111      POPE     P        PD1A      2.90360       30.5740           0 -0.974000       2.09800    
     20035 MEMB     111      POPE     DP       DRUD     -1.71260      0.400000           0   0.00000       0.00000    
     20036 MEMB     111      POPE     O13      OD2C2B   0.798400       15.5994           0 -0.931000       1.08300    
     20037 MEMB     111      POPE     DO13     DRUD     -1.67440      0.400000           0   0.00000       0.00000    
     20038 MEMB     111      POPE     O14      OD2C2B   0.798400       15.5994           0 -0.931000       1.08300    
     20039 MEMB     111      POPE     DO14     DRUD     -1.67440      0.400000           0   0.00000       0.00000    
     20040 MEMB     111      POPE     O11      OD30B     1.17720       15.5994           0 -0.901000      0.181000    
     20041 MEMB     111      POPE     DO11     DRUD     -1.64720      0.400000           0   0.00000       0.00000    
     20042 MEMB     111      POPE     O12      OD30B     1.17720       15.5994           0 -0.901000      0.181000    
     20043 MEMB     111      POPE     DO12     DRUD     -1.64720      0.400000           0   0.00000       0.00000    
     20044 MEMB     111      POPE     C1       CD32A     2.42220       11.6110           0  -1.64200      0.862000    
     20045 MEMB     111      POPE     DC1      DRUD     -2.22370      0.400000           0   0.00000       0.00000    
     20046 MEMB     111      POPE     HA       HDA2A    0.260000E-01   1.00800           0   0.00000       0.00000    
     20047 MEMB     111      POPE     HB       HDA2A    0.260000E-01   1.00800           0   0.00000       0.00000    
     20048 MEMB     111      POPE     C2       CD31C     2.52830       11.6110           0  -1.79700      0.410000    
     20049 MEMB     111      POPE     DC2      DRUD     -2.32630      0.400000           0   0.00000       0.00000    
     20050 MEMB     111      POPE     HS       HDA1A    0.116000       1.00800           0   0.00000       0.00000    
     20051 MEMB     111      POPE     O21      OD30CL    1.48470       15.5994           0 -0.732000      0.601000    
     20052 MEMB     111      POPE     DO21     DRUD     -1.48470      0.400000           0   0.00000       0.00000    
     20053 MEMB     111      POPE     C21      CD2O3B    2.72820       11.6110           0  -1.37000       1.74700    
     20054 MEMB     111      POPE     DC21     DRUD     -2.03120      0.400000           0   0.00000       0.00000    
     20055 MEMB     111      POPE     O22      OD2C3B    1.64990       15.5994           0 -0.904000      0.565000    
     20056 MEMB     111      POPE     DO22     DRUD     -1.64990      0.400000           0   0.00000       0.00000    
     20057 MEMB     111      POPE     C22      CD32C     2.24380       11.6110           0  -1.99300      0.410000    
     20058 MEMB     111      POPE     DC22     DRUD     -2.44980      0.400000           0   0.00000       0.00000    
     20059 MEMB     111      POPE     H2R      HDA2A    0.690000E-01   1.00800           0   0.00000       0.00000    
     20060 MEMB     111      POPE     H2S      HDA2A    0.690000E-01   1.00800           0   0.00000       0.00000    
     20061 MEMB     111      POPE     LP1A     LPD     -0.349000       0.00000          -1   0.00000       0.00000    
     20062 MEMB     111      POPE     LP1B     LPD     -0.258000       0.00000          -1   0.00000       0.00000    
     20063 MEMB     111      POPE     LPMA     LPD     -0.170000       0.00000          -1   0.00000       0.00000    
     20064 MEMB     111      POPE     LPMB     LPD     -0.170000       0.00000          -1   0.00000       0.00000    
     20065 MEMB     111      POPE     C3       CD32C     2.41230       11.6110           0  -1.79700      0.410000    
     20066 MEMB     111      POPE     DC3      DRUD     -2.32630      0.400000           0   0.00000       0.00000    
     20067 MEMB     111      POPE     HX       HDA2A    0.116000       1.00800           0   0.00000       0.00000    
     20068 MEMB     111      POPE     HY       HDA2A    0.116000       1.00800           0   0.00000       0.00000    
     20069 MEMB     111      POPE     O31      OD30CL    1.48470       15.5994           0 -0.732000      0.601000    
     20070 MEMB     111      POPE     DO31     DRUD     -1.48470      0.400000           0   0.00000       0.00000    
     20071 MEMB     111      POPE     C31      CD2O3B    2.72820       11.6110           0  -1.37000       1.74700    
     20072 MEMB     111      POPE     DC31     DRUD     -2.03120      0.400000           0   0.00000       0.00000    
     20073 MEMB     111      POPE     O32      OD2C3B    1.64990       15.5994           0 -0.904000      0.565000    
     20074 MEMB     111      POPE     DO32     DRUD     -1.64990      0.400000           0   0.00000       0.00000    
     20075 MEMB     111      POPE     C32      CD32C     2.24380       11.6110           0  -1.99300      0.410000    
     20076 MEMB     111      POPE     DC32     DRUD     -2.44980      0.400000           0   0.00000       0.00000    
     20077 MEMB     111      POPE     H2X      HDA2A    0.690000E-01   1.00800           0   0.00000       0.00000    
     20078 MEMB     111      POPE     H2Y      HDA2A    0.690000E-01   1.00800           0   0.00000       0.00000    
     20079 MEMB     111      POPE     LP1C     LPD     -0.349000       0.00000          -1   0.00000       0.00000    
     20080 MEMB     111      POPE     LP1D     LPD     -0.258000       0.00000          -1   0.00000       0.00000    
     20081 MEMB     111      POPE     LPMC     LPD     -0.170000       0.00000          -1   0.00000       0.00000    
     20082 MEMB     111      POPE     LPMD     LPD     -0.170000       0.00000          -1   0.00000       0.00000    
     20083 MEMB     111      POPE     C23      CD32A     2.07980       11.6110           0  -1.66000       1.30000    
     20084 MEMB     111      POPE     DC23     DRUD     -2.23580      0.400000           0   0.00000       0.00000    
     20085 MEMB     111      POPE     H3R      HDA2A    0.780000E-01   1.00800           0   0.00000       0.00000    
     20086 MEMB     111      POPE     H3S      HDA2A    0.780000E-01   1.00800           0   0.00000       0.00000    
     20087 MEMB     111      POPE     C24      CD32A     2.07980       11.6110           0  -1.66000       1.30000    
     20088 MEMB     111      POPE     DC24     DRUD     -2.23580      0.400000           0   0.00000       0.00000    
     20089 MEMB     111      POPE     H4R      HDA2A    0.780000E-01   1.00800           0   0.00000       0.00000    
     20090 MEMB     111      POPE     H4S      HDA2A    0.780000E-01   1.00800           0   0.00000       0.00000    
     20091 MEMB     111      POPE     C25      CD32A     2.07980       11.6110           0  -1.66000       1.30000    
     20092 MEMB     111      POPE     DC25     DRUD     -2.23580      0.400000           0   0.00000       0.00000    
     20093 MEMB     111      POPE     H5R      HDA2A    0.780000E-01   1.00800           0   0.00000       0.00000    
     20094 MEMB     111      POPE     H5S      HDA2A    0.780000E-01   1.00800           0   0.00000       0.00000    
     20095 MEMB     111      POPE     C26      CD32A     2.07980       11.6110           0  -1.66000       1.30000    
     20096 MEMB     111      POPE     DC26     DRUD     -2.23580      0.400000           0   0.00000       0.00000    
     20097 MEMB     111      POPE     H6R      HDA2A    0.780000E-01   1.00800           0   0.00000       0.00000    
     20098 MEMB     111      POPE     H6S      HDA2A    0.780000E-01   1.00800           0   0.00000       0.00000    
     20099 MEMB     111      POPE     C27      CD32A     2.07980       11.6110           0  -1.66000       1.30000    
     20100 MEMB     111      POPE     DC27     DRUD     -2.23580      0.400000           0   0.00000       0.00000    
     20101 MEMB     111      POPE     H7R      HDA2A    0.780000E-01   1.00800           0   0.00000       0.00000    
     20102 MEMB     111      POPE     H7S      HDA2A    0.780000E-01   1.00800           0   0.00000       0.00000    
     20103 MEMB     111      POPE     C28      CD32A     2.07980       11.6110           0  -1.66000       1.30000    
     20104 MEMB     111      POPE     DC28     DRUD     -2.23580      0.400000           0   0.00000       0.00000    
     20105 MEMB     111      POPE     H8R      HDA2A    0.780000E-01   1.00800           0   0.00000       0.00000    
     20106 MEMB     111      POPE     H8S      HDA2A    0.780000E-01   1.00800           0   0.00000       0.00000    
     20107 MEMB     111      POPE     C29      CD2C1A    2.33700       11.6110           0  -1.99000      0.750000    
     20108 MEMB     111      POPE     DC29     DRUD     -2.44800      0.400000           0   0.00000       0.00000    
     20109 MEMB     111      POPE     H91      HD2C1A   0.111000       1.00800           0   0.00000       0.00000    
     20110 MEMB     111      POPE     C210     CD2C1A    2.33700       11.6110           0  -1.99000      0.750000    
     20111 MEMB     111      POPE     DC210    DRUD     -2.44800      0.400000           0   0.00000       0.00000    
     20112 MEMB     111      POPE     H101     HD2C1A   0.111000       1.00800           0   0.00000       0.00000    
     20113 MEMB     111      POPE     C211     CD32A     2.07980       11.6110           0  -1.66000       1.30000    
     20114 MEMB     111      POPE     DC211    DRUD     -2.23580      0.400000           0   0.00000       0.00000    
     20115 MEMB     111      POPE     H11R     HDA2A    0.780000E-01   1.00800           0   0.00000       0.00000    
     20116 MEMB     111      POPE     H11S     HDA2A    0.780000E-01   1.00800           0   0.00000       0.00000    
     20117 MEMB     111      POPE     C212     CD32A     2.07980       11.6110           0  -1.66000       1.30000    
     20118 MEMB     111      POPE     DC212    DRUD     -2.23580      0.400000           0   0.00000       0.00000    
     20119 MEMB     111      POPE     H12R     HDA2A    0.780000E-01   1.00800           0   0.00000       0.00000    
     20120 MEMB     111      POPE     H12S     HDA2A    0.780000E-01   1.00800           0   0.00000       0.00000    
     20121 MEMB     111      POPE     C213     CD32A     2.07980       11.6110           0  -1.66000       1.30000    
     20122 MEMB     111      POPE     DC213    DRUD     -2.23580      0.400000           0   0.00000       0.00000    
     20123 MEMB     111      POPE     H13R     HDA2A    0.780000E-01   1.00800           0   0.00000       0.00000    
     20124 MEMB     111      POPE     H13S     HDA2A    0.780000E-01   1.00800           0   0.00000       0.00000    
     20125 MEMB     111      POPE     C214     CD32A     2.07980       11.6110           0  -1.66000       1.30000    
     20126 MEMB     111      POPE     DC214    DRUD     -2.23580      0.400000           0   0.00000       0.00000    
     20127 MEMB     111      POPE     H14R     HDA2A    0.780000E-01   1.00800           0   0.00000       0.00000    
     20128 MEMB     111      POPE     H14S     HDA2A    0.780000E-01   1.00800           0   0.00000       0.00000    
     20129 MEMB     111      POPE     C215     CD32A     2.07980       11.6110           0  -1.66000       1.30000    
     20130 MEMB     111      POPE     DC215    DRUD     -2.23580      0.400000           0   0.00000       0.00000    
     20131 MEMB     111      POPE     H15R     HDA2A    0.780000E-01   1.00800           0   0.00000       0.00000    
     20132 MEMB     111      POPE     H15S     HDA2A    0.780000E-01   1.00800           0   0.00000       0.00000    
     20133 MEMB     111      POPE     C216     CD32A     2.07980       11.6110           0  -1.66000       1.30000    
     20134 MEMB     111      POPE     DC216    DRUD     -2.23580      0.400000           0   0.00000       0.00000    
     20135 MEMB     111      POPE     H16R     HDA2A    0.780000E-01   1.00800           0   0.00000       0.00000    
     20136 MEMB     111      POPE     H16S     HDA2A    0.780000E-01   1.00800           0   0.00000       0.00000    
     20137 MEMB     111      POPE     C217     CD32A     2.07980       11.6110           0  -1.66000       1.30000    
     20138 MEMB     111      POPE     DC217    DRUD     -2.23580      0.400000           0   0.00000       0.00000    
     20139 MEMB     111      POPE     H17R     HDA2A    0.780000E-01   1.00800           0   0.00000       0.00000    
     20140 MEMB     111      POPE     H17S     HDA2A    0.780000E-01   1.00800           0   0.00000       0.00000    
     20141 MEMB     111      POPE     C218     CD33A     2.30820       11.6110           0  -2.05100       1.30000    
     20142 MEMB     111      POPE     DC218    DRUD     -2.48520      0.400000           0   0.00000       0.00000    
     20143 MEMB     111      POPE     H18R     HDA3A    0.590000E-01   1.00800           0   0.00000       0.00000    
     20144 MEMB     111      POPE     H18S     HDA3A    0.590000E-01   1.00800           0   0.00000       0.00000    
     20145 MEMB     111      POPE     H18T     HDA3A    0.590000E-01   1.00800           0   0.00000       0.00000    
     20146 MEMB     111      POPE     C33      CD32A     2.07980       11.6110           0  -1.66000       1.30000    
     20147 MEMB     111      POPE     DC33     DRUD     -2.23580      0.400000           0   0.00000       0.00000    
     20148 MEMB     111      POPE     H3X      HDA2A    0.780000E-01   1.00800           0   0.00000       0.00000    
     20149 MEMB     111      POPE     H3Y      HDA2A    0.780000E-01   1.00800           0   0.00000       0.00000    
     20150 MEMB     111      POPE     C34      CD32A     2.07980       11.6110           0  -1.66000       1.30000    
     20151 MEMB     111      POPE     DC34     DRUD     -2.23580      0.400000           0   0.00000       0.00000    
     20152 MEMB     111      POPE     H4X      HDA2A    0.780000E-01   1.00800           0   0.00000       0.00000    
     20153 MEMB     111      POPE     H4Y      HDA2A    0.780000E-01   1.00800           0   0.00000       0.00000    
     20154 MEMB     111      POPE     C35      CD32A     2.07980       11.6110           0  -1.66000       1.30000    
     20155 MEMB     111      POPE     DC35     DRUD     -2.23580      0.400000           0   0.00000       0.00000    
     20156 MEMB     111      POPE     H5X      HDA2A    0.780000E-01   1.00800           0   0.00000       0.00000    
     20157 MEMB     111      POPE     H5Y      HDA2A    0.780000E-01   1.00800           0   0.00000       0.00000    
     20158 MEMB     111      POPE     C36      CD32A     2.07980       11.6110           0  -1.66000       1.30000    
     20159 MEMB     111      POPE     DC36     DRUD     -2.23580      0.400000           0   0.00000       0.00000    
     20160 MEMB     111      POPE     H6X      HDA2A    0.780000E-01   1.00800           0   0.00000       0.00000    
     20161 MEMB     111      POPE     H6Y      HDA2A    0.780000E-01   1.00800           0   0.00000       0.00000    
     20162 MEMB     111      POPE     C37      CD32A     2.07980       11.6110           0  -1.66000       1.30000    
     20163 MEMB     111      POPE     DC37     DRUD     -2.23580      0.400000           0   0.00000       0.00000    
     20164 MEMB     111      POPE     H7X      HDA2A    0.780000E-01   1.00800           0   0.00000       0.00000    
     20165 MEMB     111      POPE     H7Y      HDA2A    0.780000E-01   1.00800           0   0.00000       0.00000    
     20166 MEMB     111      POPE     C38      CD32A     2.07980       11.6110           0  -1.66000       1.30000    
     20167 MEMB     111      POPE     DC38     DRUD     -2.23580      0.400000           0   0.00000       0.00000    
     20168 MEMB     111      POPE     H8X      HDA2A    0.780000E-01   1.00800           0   0.00000       0.00000    
     20169 MEMB     111      POPE     H8Y      HDA2A    0.780000E-01   1.00800           0   0.00000       0.00000    
     20170 MEMB     111      POPE     C39      CD32A     2.07980       11.6110           0  -1.66000       1.30000    
     20171 MEMB     111      POPE     DC39     DRUD     -2.23580      0.400000           0   0.00000       0.00000    
     20172 MEMB     111      POPE     H9X      HDA2A    0.780000E-01   1.00800           0   0.00000       0.00000    
     20173 MEMB     111      POPE     H9Y      HDA2A    0.780000E-01   1.00800           0   0.00000       0.00000    
     20174 MEMB     111      POPE     C310     CD32A     2.07980       11.6110           0  -1.66000       1.30000    
     20175 MEMB     111      POPE     DC310    DRUD     -2.23580      0.400000           0   0.00000       0.00000    
     20176 MEMB     111      POPE     H10X     HDA2A    0.780000E-01   1.00800           0   0.00000       0.00000    
     20177 MEMB     111      POPE     H10Y     HDA2A    0.780000E-01   1.00800           0   0.00000       0.00000    
     20178 MEMB     111      POPE     C311     CD32A     2.07980       11.6110           0  -1.66000       1.30000    
     20179 MEMB     111      POPE     DC311    DRUD     -2.23580      0.400000           0   0.00000       0.00000    
     20180 MEMB     111      POPE     H11X     HDA2A    0.780000E-01   1.00800           0   0.00000       0.00000    
     20181 MEMB     111      POPE     H11Y     HDA2A    0.780000E-01   1.00800           0   0.00000       0.00000    
     20182 MEMB     111      POPE     C312     CD32A     2.07980       11.6110           0  -1.66000       1.30000    
     20183 MEMB     111      POPE     DC312    DRUD     -2.23580      0.400000           0   0.00000       0.00000    
     20184 MEMB     111      POPE     H12X     HDA2A    0.780000E-01   1.00800           0   0.00000       0.00000    
     20185 MEMB     111      POPE     H12Y     HDA2A    0.780000E-01   1.00800           0   0.00000       0.00000    
     20186 MEMB     111      POPE     C313     CD32A     2.07980       11.6110           0  -1.66000       1.30000    
     20187 MEMB     111      POPE     DC313    DRUD     -2.23580      0.400000           0   0.00000       0.00000    
     20188 MEMB     111      POPE     H13X     HDA2A    0.780000E-01   1.00800           0   0.00000       0.00000    
     20189 MEMB     111      POPE     H13Y     HDA2A    0.780000E-01   1.00800           0   0.00000       0.00000    
     20190 MEMB     111      POPE     C314     CD32A     2.07980       11.6110           0  -1.66000       1.30000    
     20191 MEMB     111      POPE     DC314    DRUD     -2.23580      0.400000           0   0.00000       0.00000    
     20192 MEMB     111      POPE     H14X     HDA2A    0.780000E-01   1.00800           0   0.00000       0.00000    
     20193 MEMB     111      POPE     H14Y     HDA2A    0.780000E-01   1.00800           0   0.00000       0.00000    
     20194 MEMB     111      POPE     C315     CD32A     2.07980       11.6110           0  -1.66000       1.30000    
     20195 MEMB     111      POPE     DC315    DRUD     -2.23580      0.400000           0   0.00000       0.00000    
     20196 MEMB     111      POPE     H15X     HDA2A    0.780000E-01   1.00800           0   0.00000       0.00000    
     20197 MEMB     111      POPE     H15Y     HDA2A    0.780000E-01   1.00800           0   0.00000       0.00000    
     20198 MEMB     111      POPE     C316     CD33A     2.30820       11.6110           0  -2.05100       1.30000    
     20199 MEMB     111      POPE     DC316    DRUD     -2.48520      0.400000           0   0.00000       0.00000    
     20200 MEMB     111      POPE     H16X     HDA3A    0.590000E-01   1.00800           0   0.00000       0.00000    
     20201 MEMB     111      POPE     H16Y     HDA3A    0.590000E-01   1.00800           0   0.00000       0.00000    
     20202 MEMB     111      POPE     H16Z     HDA3A    0.590000E-01   1.00800           0   0.00000       0.00000    
     20203 MEMB     112      POPE     N        ND3P3A    1.62810       13.6070           0  -1.29800      0.895000    
     20204 MEMB     112      POPE     DN       DRUD     -1.97710      0.400000           0   0.00000       0.00000    
     20205 MEMB     112      POPE     HN1      HDP1B    0.340000       1.00800           0   0.00000       0.00000    
     20206 MEMB     112      POPE     HN2      HDP1B    0.340000       1.00800           0   0.00000       0.00000    
     20207 MEMB     112      POPE     HN3      HDP1B    0.340000       1.00800           0   0.00000       0.00000    
     20208 MEMB     112      POPE     C12      CD32A     2.27610       11.6110           0  -1.65600      0.895000    
     20209 MEMB     112      POPE     DC12     DRUD     -2.23310      0.400000           0   0.00000       0.00000    
     20210 MEMB     112      POPE     H12A     HDA2A    0.143000       1.00800           0   0.00000       0.00000    
     20211 MEMB     112      POPE     H12B     HDA2A    0.143000       1.00800           0   0.00000       0.00000    
     20212 MEMB     112      POPE     C11      CD32A     2.42220       11.6110           0  -1.64200      0.862000    
     20213 MEMB     112      POPE     DC11     DRUD     -2.22370      0.400000           0   0.00000       0.00000    
     20214 MEMB     112      POPE     H11A     HDA2A    0.260000E-01   1.00800           0   0.00000       0.00000    
     20215 MEMB     112      POPE     H11B     HDA2A    0.260000E-01   1.00800           0   0.00000       0.00000    
     20216 MEMB     112      POPE     P        PD1A      2.90360       30.5740           0 -0.974000       2.09800    
     20217 MEMB     112      POPE     DP       DRUD     -1.71260      0.400000           0   0.00000       0.00000    
     20218 MEMB     112      POPE     O13      OD2C2B   0.798400       15.5994           0 -0.931000       1.08300    
     20219 MEMB     112      POPE     DO13     DRUD     -1.67440      0.400000           0   0.00000       0.00000    
     20220 MEMB     112      POPE     O14      OD2C2B   0.798400       15.5994           0 -0.931000       1.08300    
     20221 MEMB     112      POPE     DO14     DRUD     -1.67440      0.400000           0   0.00000       0.00000    
     20222 MEMB     112      POPE     O11      OD30B     1.17720       15.5994           0 -0.901000      0.181000    
     20223 MEMB     112      POPE     DO11     DRUD     -1.64720      0.400000           0   0.00000       0.00000    
     20224 MEMB     112      POPE     O12      OD30B     1.17720       15.5994           0 -0.901000      0.181000    
     20225 MEMB     112      POPE     DO12     DRUD     -1.64720      0.400000           0   0.00000       0.00000    
     20226 MEMB     112      POPE     C1       CD32A     2.42220       11.6110           0  -1.64200      0.862000    
     20227 MEMB     112      POPE     DC1      DRUD     -2.22370      0.400000           0   0.00000       0.00000    
     20228 MEMB     112      POPE     HA       HDA2A    0.260000E-01   1.00800           0   0.00000       0.00000    
     20229 MEMB     112      POPE     HB       HDA2A    0.260000E-01   1.00800           0   0.00000       0.00000    
     20230 MEMB     112      POPE     C2       CD31C     2.52830       11.6110           0  -1.79700      0.410000    
     20231 MEMB     112      POPE     DC2      DRUD     -2.32630      0.400000           0   0.00000       0.00000    
     20232 MEMB     112      POPE     HS       HDA1A    0.116000       1.00800           0   0.00000       0.00000    
     20233 MEMB     112      POPE     O21      OD30CL    1.48470       15.5994           0 -0.732000      0.601000    
     20234 MEMB     112      POPE     DO21     DRUD     -1.48470      0.400000           0   0.00000       0.00000    
     20235 MEMB     112      POPE     C21      CD2O3B    2.72820       11.6110           0  -1.37000       1.74700    
     20236 MEMB     112      POPE     DC21     DRUD     -2.03120      0.400000           0   0.00000       0.00000    
     20237 MEMB     112      POPE     O22      OD2C3B    1.64990       15.5994           0 -0.904000      0.565000    
     20238 MEMB     112      POPE     DO22     DRUD     -1.64990      0.400000           0   0.00000       0.00000    
     20239 MEMB     112      POPE     C22      CD32C     2.24380       11.6110           0  -1.99300      0.410000    
     20240 MEMB     112      POPE     DC22     DRUD     -2.44980      0.400000           0   0.00000       0.00000    
     20241 MEMB     112      POPE     H2R      HDA2A    0.690000E-01   1.00800           0   0.00000       0.00000    
     20242 MEMB     112      POPE     H2S      HDA2A    0.690000E-01   1.00800           0   0.00000       0.00000    
     20243 MEMB     112      POPE     LP1A     LPD     -0.349000       0.00000          -1   0.00000       0.00000    
     20244 MEMB     112      POPE     LP1B     LPD     -0.258000       0.00000          -1   0.00000       0.00000    
     20245 MEMB     112      POPE     LPMA     LPD     -0.170000       0.00000          -1   0.00000       0.00000    
     20246 MEMB     112      POPE     LPMB     LPD     -0.170000       0.00000          -1   0.00000       0.00000    
     20247 MEMB     112      POPE     C3       CD32C     2.41230       11.6110           0  -1.79700      0.410000    
     20248 MEMB     112      POPE     DC3      DRUD     -2.32630      0.400000           0   0.00000       0.00000    
     20249 MEMB     112      POPE     HX       HDA2A    0.116000       1.00800           0   0.00000       0.00000    
     20250 MEMB     112      POPE     HY       HDA2A    0.116000       1.00800           0   0.00000       0.00000    
     20251 MEMB     112      POPE     O31      OD30CL    1.48470       15.5994           0 -0.732000      0.601000    
     20252 MEMB     112      POPE     DO31     DRUD     -1.48470      0.400000           0   0.00000       0.00000    
     20253 MEMB     112      POPE     C31      CD2O3B    2.72820       11.6110           0  -1.37000       1.74700    
     20254 MEMB     112      POPE     DC31     DRUD     -2.03120      0.400000           0   0.00000       0.00000    
     20255 MEMB     112      POPE     O32      OD2C3B    1.64990       15.5994           0 -0.904000      0.565000    
     20256 MEMB     112      POPE     DO32     DRUD     -1.64990      0.400000           0   0.00000       0.00000    
     20257 MEMB     112      POPE     C32      CD32C     2.24380       11.6110           0  -1.99300      0.410000    
     20258 MEMB     112      POPE     DC32     DRUD     -2.44980      0.400000           0   0.00000       0.00000    
     20259 MEMB     112      POPE     H2X      HDA2A    0.690000E-01   1.00800           0   0.00000       0.00000    
     20260 MEMB     112      POPE     H2Y      HDA2A    0.690000E-01   1.00800           0   0.00000       0.00000    
     20261 MEMB     112      POPE     LP1C     LPD     -0.349000       0.00000          -1   0.00000       0.00000    
     20262 MEMB     112      POPE     LP1D     LPD     -0.258000       0.00000          -1   0.00000       0.00000    
     20263 MEMB     112      POPE     LPMC     LPD     -0.170000       0.00000          -1   0.00000       0.00000    
     20264 MEMB     112      POPE     LPMD     LPD     -0.170000       0.00000          -1   0.00000       0.00000    
     20265 MEMB     112      POPE     C23      CD32A     2.07980       11.6110           0  -1.66000       1.30000    
     20266 MEMB     112      POPE     DC23     DRUD     -2.23580      0.400000           0   0.00000       0.00000    
     20267 MEMB     112      POPE     H3R      HDA2A    0.780000E-01   1.00800           0   0.00000       0.00000    
     20268 MEMB     112      POPE     H3S      HDA2A    0.780000E-01   1.00800           0   0.00000       0.00000    
     20269 MEMB     112      POPE     C24      CD32A     2.07980       11.6110           0  -1.66000       1.30000    
     20270 MEMB     112      POPE     DC24     DRUD     -2.23580      0.400000           0   0.00000       0.00000    
     20271 MEMB     112      POPE     H4R      HDA2A    0.780000E-01   1.00800           0   0.00000       0.00000    
     20272 MEMB     112      POPE     H4S      HDA2A    0.780000E-01   1.00800           0   0.00000       0.00000    
     20273 MEMB     112      POPE     C25      CD32A     2.07980       11.6110           0  -1.66000       1.30000    
     20274 MEMB     112      POPE     DC25     DRUD     -2.23580      0.400000           0   0.00000       0.00000    
     20275 MEMB     112      POPE     H5R      HDA2A    0.780000E-01   1.00800           0   0.00000       0.00000    
     20276 MEMB     112      POPE     H5S      HDA2A    0.780000E-01   1.00800           0   0.00000       0.00000    
     20277 MEMB     112      POPE     C26      CD32A     2.07980       11.6110           0  -1.66000       1.30000    
     20278 MEMB     112      POPE     DC26     DRUD     -2.23580      0.400000           0   0.00000       0.00000    
     20279 MEMB     112      POPE     H6R      HDA2A    0.780000E-01   1.00800           0   0.00000       0.00000    
     20280 MEMB     112      POPE     H6S      HDA2A    0.780000E-01   1.00800           0   0.00000       0.00000    
     20281 MEMB     112      POPE     C27      CD32A     2.07980       11.6110           0  -1.66000       1.30000    
     20282 MEMB     112      POPE     DC27     DRUD     -2.23580      0.400000           0   0.00000       0.00000    
     20283 MEMB     112      POPE     H7R      HDA2A    0.780000E-01   1.00800           0   0.00000       0.00000    
     20284 MEMB     112      POPE     H7S      HDA2A    0.780000E-01   1.00800           0   0.00000       0.00000    
     20285 MEMB     112      POPE     C28      CD32A     2.07980       11.6110           0  -1.66000       1.30000    
     20286 MEMB     112      POPE     DC28     DRUD     -2.23580      0.400000           0   0.00000       0.00000    
     20287 MEMB     112      POPE     H8R      HDA2A    0.780000E-01   1.00800           0   0.00000       0.00000    
     20288 MEMB     112      POPE     H8S      HDA2A    0.780000E-01   1.00800           0   0.00000       0.00000    
     20289 MEMB     112      POPE     C29      CD2C1A    2.33700       11.6110           0  -1.99000      0.750000    
     20290 MEMB     112      POPE     DC29     DRUD     -2.44800      0.400000           0   0.00000       0.00000    
     20291 MEMB     112      POPE     H91      HD2C1A   0.111000       1.00800           0   0.00000       0.00000    
     20292 MEMB     112      POPE     C210     CD2C1A    2.33700       11.6110           0  -1.99000      0.750000    
     20293 MEMB     112      POPE     DC210    DRUD     -2.44800      0.400000           0   0.00000       0.00000    
     20294 MEMB     112      POPE     H101     HD2C1A   0.111000       1.00800           0   0.00000       0.00000    
     20295 MEMB     112      POPE     C211     CD32A     2.07980       11.6110           0  -1.66000       1.30000    
     20296 MEMB     112      POPE     DC211    DRUD     -2.23580      0.400000           0   0.00000       0.00000    
     20297 MEMB     112      POPE     H11R     HDA2A    0.780000E-01   1.00800           0   0.00000       0.00000    
     20298 MEMB     112      POPE     H11S     HDA2A    0.780000E-01   1.00800           0   0.00000       0.00000    
     20299 MEMB     112      POPE     C212     CD32A     2.07980       11.6110           0  -1.66000       1.30000    
     20300 MEMB     112      POPE     DC212    DRUD     -2.23580      0.400000           0   0.00000       0.00000    
     20301 MEMB     112      POPE     H12R     HDA2A    0.780000E-01   1.00800           0   0.00000       0.00000    
     20302 MEMB     112      POPE     H12S     HDA2A    0.780000E-01   1.00800           0   0.00000       0.00000    
     20303 MEMB     112      POPE     C213     CD32A     2.07980       11.6110           0  -1.66000       1.30000    
     20304 MEMB     112      POPE     DC213    DRUD     -2.23580      0.400000           0   0.00000       0.00000    
     20305 MEMB     112      POPE     H13R     HDA2A    0.780000E-01   1.00800           0   0.00000       0.00000    
     20306 MEMB     112      POPE     H13S     HDA2A    0.780000E-01   1.00800           0   0.00000       0.00000    
     20307 MEMB     112      POPE     C214     CD32A     2.07980       11.6110           0  -1.66000       1.30000    
     20308 MEMB     112      POPE     DC214    DRUD     -2.23580      0.400000           0   0.00000       0.00000    
     20309 MEMB     112      POPE     H14R     HDA2A    0.780000E-01   1.00800           0   0.00000       0.00000    
     20310 MEMB     112      POPE     H14S     HDA2A    0.780000E-01   1.00800           0   0.00000       0.00000    
     20311 MEMB     112      POPE     C215     CD32A     2.07980       11.6110           0  -1.66000       1.30000    
     20312 MEMB     112      POPE     DC215    DRUD     -2.23580      0.400000           0   0.00000       0.00000    
     20313 MEMB     112      POPE     H15R     HDA2A    0.780000E-01   1.00800           0   0.00000       0.00000    
     20314 MEMB     112      POPE     H15S     HDA2A    0.780000E-01   1.00800           0   0.00000       0.00000    
     20315 MEMB     112      POPE     C216     CD32A     2.07980       11.6110           0  -1.66000       1.30000    
     20316 MEMB     112      POPE     DC216    DRUD     -2.23580      0.400000           0   0.00000       0.00000    
     20317 MEMB     112      POPE     H16R     HDA2A    0.780000E-01   1.00800           0   0.00000       0.00000    
     20318 MEMB     112      POPE     H16S     HDA2A    0.780000E-01   1.00800           0   0.00000       0.00000    
     20319 MEMB     112      POPE     C217     CD32A     2.07980       11.6110           0  -1.66000       1.30000    
     20320 MEMB     112      POPE     DC217    DRUD     -2.23580      0.400000           0   0.00000       0.00000    
     20321 MEMB     112      POPE     H17R     HDA2A    0.780000E-01   1.00800           0   0.00000       0.00000    
     20322 MEMB     112      POPE     H17S     HDA2A    0.780000E-01   1.00800           0   0.00000       0.00000    
     20323 MEMB     112      POPE     C218     CD33A     2.30820       11.6110           0  -2.05100       1.30000    
     20324 MEMB     112      POPE     DC218    DRUD     -2.48520      0.400000           0   0.00000       0.00000    
     20325 MEMB     112      POPE     H18R     HDA3A    0.590000E-01   1.00800           0   0.00000       0.00000    
     20326 MEMB     112      POPE     H18S     HDA3A    0.590000E-01   1.00800           0   0.00000       0.00000    
     20327 MEMB     112      POPE     H18T     HDA3A    0.590000E-01   1.00800           0   0.00000       0.00000    
     20328 MEMB     112      POPE     C33      CD32A     2.07980       11.6110           0  -1.66000       1.30000    
     20329 MEMB     112      POPE     DC33     DRUD     -2.23580      0.400000           0   0.00000       0.00000    
     20330 MEMB     112      POPE     H3X      HDA2A    0.780000E-01   1.00800           0   0.00000       0.00000    
     20331 MEMB     112      POPE     H3Y      HDA2A    0.780000E-01   1.00800           0   0.00000       0.00000    
     20332 MEMB     112      POPE     C34      CD32A     2.07980       11.6110           0  -1.66000       1.30000    
     20333 MEMB     112      POPE     DC34     DRUD     -2.23580      0.400000           0   0.00000       0.00000    
     20334 MEMB     112      POPE     H4X      HDA2A    0.780000E-01   1.00800           0   0.00000       0.00000    
     20335 MEMB     112      POPE     H4Y      HDA2A    0.780000E-01   1.00800           0   0.00000       0.00000    
     20336 MEMB     112      POPE     C35      CD32A     2.07980       11.6110           0  -1.66000       1.30000    
     20337 MEMB     112      POPE     DC35     DRUD     -2.23580      0.400000           0   0.00000       0.00000    
     20338 MEMB     112      POPE     H5X      HDA2A    0.780000E-01   1.00800           0   0.00000       0.00000    
     20339 MEMB     112      POPE     H5Y      HDA2A    0.780000E-01   1.00800           0   0.00000       0.00000    
     20340 MEMB     112      POPE     C36      CD32A     2.07980       11.6110           0  -1.66000       1.30000    
     20341 MEMB     112      POPE     DC36     DRUD     -2.23580      0.400000           0   0.00000       0.00000    
     20342 MEMB     112      POPE     H6X      HDA2A    0.780000E-01   1.00800           0   0.00000       0.00000    
     20343 MEMB     112      POPE     H6Y      HDA2A    0.780000E-01   1.00800           0   0.00000       0.00000    
     20344 MEMB     112      POPE     C37      CD32A     2.07980       11.6110           0  -1.66000       1.30000    
     20345 MEMB     112      POPE     DC37     DRUD     -2.23580      0.400000           0   0.00000       0.00000    
     20346 MEMB     112      POPE     H7X      HDA2A    0.780000E-01   1.00800           0   0.00000       0.00000    
     20347 MEMB     112      POPE     H7Y      HDA2A    0.780000E-01   1.00800           0   0.00000       0.00000    
     20348 MEMB     112      POPE     C38      CD32A     2.07980       11.6110           0  -1.66000       1.30000    
     20349 MEMB     112      POPE     DC38     DRUD     -2.23580      0.400000           0   0.00000       0.00000    
     20350 MEMB     112      POPE     H8X      HDA2A    0.780000E-01   1.00800           0   0.00000       0.00000    
     20351 MEMB     112      POPE     H8Y      HDA2A    0.780000E-01   1.00800           0   0.00000       0.00000    
     20352 MEMB     112      POPE     C39      CD32A     2.07980       11.6110           0  -1.66000       1.30000    
     20353 MEMB     112      POPE     DC39     DRUD     -2.23580      0.400000           0   0.00000       0.00000    
     20354 MEMB     112      POPE     H9X      HDA2A    0.780000E-01   1.00800           0   0.00000       0.00000    
     20355 MEMB     112      POPE     H9Y      HDA2A    0.780000E-01   1.00800           0   0.00000       0.00000    
     20356 MEMB     112      POPE     C310     CD32A     2.07980       11.6110           0  -1.66000       1.30000    
     20357 MEMB     112      POPE     DC310    DRUD     -2.23580      0.400000           0   0.00000       0.00000    
     20358 MEMB     112      POPE     H10X     HDA2A    0.780000E-01   1.00800           0   0.00000       0.00000    
     20359 MEMB     112      POPE     H10Y     HDA2A    0.780000E-01   1.00800           0   0.00000       0.00000    
     20360 MEMB     112      POPE     C311     CD32A     2.07980       11.6110           0  -1.66000       1.30000    
     20361 MEMB     112      POPE     DC311    DRUD     -2.23580      0.400000           0   0.00000       0.00000    
     20362 MEMB     112      POPE     H11X     HDA2A    0.780000E-01   1.00800           0   0.00000       0.00000    
     20363 MEMB     112      POPE     H11Y     HDA2A    0.780000E-01   1.00800           0   0.00000       0.00000    
     20364 MEMB     112      POPE     C312     CD32A     2.07980       11.6110           0  -1.66000       1.30000    
     20365 MEMB     112      POPE     DC312    DRUD     -2.23580      0.400000           0   0.00000       0.00000    
     20366 MEMB     112      POPE     H12X     HDA2A    0.780000E-01   1.00800           0   0.00000       0.00000    
     20367 MEMB     112      POPE     H12Y     HDA2A    0.780000E-01   1.00800           0   0.00000       0.00000    
     20368 MEMB     112      POPE     C313     CD32A     2.07980       11.6110           0  -1.66000       1.30000    
     20369 MEMB     112      POPE     DC313    DRUD     -2.23580      0.400000           0   0.00000       0.00000    
     20370 MEMB     112      POPE     H13X     HDA2A    0.780000E-01   1.00800           0   0.00000       0.00000    
     20371 MEMB     112      POPE     H13Y     HDA2A    0.780000E-01   1.00800           0   0.00000       0.00000    
     20372 MEMB     112      POPE     C314     CD32A     2.07980       11.6110           0  -1.66000       1.30000    
     20373 MEMB     112      POPE     DC314    DRUD     -2.23580      0.400000           0   0.00000       0.00000    
     20374 MEMB     112      POPE     H14X     HDA2A    0.780000E-01   1.00800           0   0.00000       0.00000    
     20375 MEMB     112      POPE     H14Y     HDA2A    0.780000E-01   1.00800           0   0.00000       0.00000    
     20376 MEMB     112      POPE     C315     CD32A     2.07980       11.6110           0  -1.66000       1.30000    
     20377 MEMB     112      POPE     DC315    DRUD     -2.23580      0.400000           0   0.00000       0.00000    
     20378 MEMB     112      POPE     H15X     HDA2A    0.780000E-01   1.00800           0   0.00000       0.00000    
     20379 MEMB     112      POPE     H15Y     HDA2A    0.780000E-01   1.00800           0   0.00000       0.00000    
     20380 MEMB     112      POPE     C316     CD33A     2.30820       11.6110           0  -2.05100       1.30000    
     20381 MEMB     112      POPE     DC316    DRUD     -2.48520      0.400000           0   0.00000       0.00000    
     20382 MEMB     112      POPE     H16X     HDA3A    0.590000E-01   1.00800           0   0.00000       0.00000    
     20383 MEMB     112      POPE     H16Y     HDA3A    0.590000E-01   1.00800           0   0.00000       0.00000    
     20384 MEMB     112      POPE     H16Z     HDA3A    0.590000E-01   1.00800           0   0.00000       0.00000    
     20385 MEMB     113      POPE     N        ND3P3A    1.62810       13.6070           0  -1.29800      0.895000    
     20386 MEMB     113      POPE     DN       DRUD     -1.97710      0.400000           0   0.00000       0.00000    
     20387 MEMB     113      POPE     HN1      HDP1B    0.340000       1.00800           0   0.00000       0.00000    
     20388 MEMB     113      POPE     HN2      HDP1B    0.340000       1.00800           0   0.00000       0.00000    
     20389 MEMB     113      POPE     HN3      HDP1B    0.340000       1.00800           0   0.00000       0.00000    
     20390 MEMB     113      POPE     C12      CD32A     2.27610       11.6110           0  -1.65600      0.895000    
     20391 MEMB     113      POPE     DC12     DRUD     -2.23310      0.400000           0   0.00000       0.00000    
     20392 MEMB     113      POPE     H12A     HDA2A    0.143000       1.00800           0   0.00000       0.00000    
     20393 MEMB     113      POPE     H12B     HDA2A    0.143000       1.00800           0   0.00000       0.00000    
     20394 MEMB     113      POPE     C11      CD32A     2.42220       11.6110           0  -1.64200      0.862000    
     20395 MEMB     113      POPE     DC11     DRUD     -2.22370      0.400000           0   0.00000       0.00000    
     20396 MEMB     113      POPE     H11A     HDA2A    0.260000E-01   1.00800           0   0.00000       0.00000    
     20397 MEMB     113      POPE     H11B     HDA2A    0.260000E-01   1.00800           0   0.00000       0.00000    
     20398 MEMB     113      POPE     P        PD1A      2.90360       30.5740           0 -0.974000       2.09800    
     20399 MEMB     113      POPE     DP       DRUD     -1.71260      0.400000           0   0.00000       0.00000    
     20400 MEMB     113      POPE     O13      OD2C2B   0.798400       15.5994           0 -0.931000       1.08300    
     20401 MEMB     113      POPE     DO13     DRUD     -1.67440      0.400000           0   0.00000       0.00000    
     20402 MEMB     113      POPE     O14      OD2C2B   0.798400       15.5994           0 -0.931000       1.08300    
     20403 MEMB     113      POPE     DO14     DRUD     -1.67440      0.400000           0   0.00000       0.00000    
     20404 MEMB     113      POPE     O11      OD30B     1.17720       15.5994           0 -0.901000      0.181000    
     20405 MEMB     113      POPE     DO11     DRUD     -1.64720      0.400000           0   0.00000       0.00000    
     20406 MEMB     113      POPE     O12      OD30B     1.17720       15.5994           0 -0.901000      0.181000    
     20407 MEMB     113      POPE     DO12     DRUD     -1.64720      0.400000           0   0.00000       0.00000    
     20408 MEMB     113      POPE     C1       CD32A     2.42220       11.6110           0  -1.64200      0.862000    
     20409 MEMB     113      POPE     DC1      DRUD     -2.22370      0.400000           0   0.00000       0.00000    
     20410 MEMB     113      POPE     HA       HDA2A    0.260000E-01   1.00800           0   0.00000       0.00000    
     20411 MEMB     113      POPE     HB       HDA2A    0.260000E-01   1.00800           0   0.00000       0.00000    
     20412 MEMB     113      POPE     C2       CD31C     2.52830       11.6110           0  -1.79700      0.410000    
     20413 MEMB     113      POPE     DC2      DRUD     -2.32630      0.400000           0   0.00000       0.00000    
     20414 MEMB     113      POPE     HS       HDA1A    0.116000       1.00800           0   0.00000       0.00000    
     20415 MEMB     113      POPE     O21      OD30CL    1.48470       15.5994           0 -0.732000      0.601000    
     20416 MEMB     113      POPE     DO21     DRUD     -1.48470      0.400000           0   0.00000       0.00000    
     20417 MEMB     113      POPE     C21      CD2O3B    2.72820       11.6110           0  -1.37000       1.74700    
     20418 MEMB     113      POPE     DC21     DRUD     -2.03120      0.400000           0   0.00000       0.00000    
     20419 MEMB     113      POPE     O22      OD2C3B    1.64990       15.5994           0 -0.904000      0.565000    
     20420 MEMB     113      POPE     DO22     DRUD     -1.64990      0.400000           0   0.00000       0.00000    
     20421 MEMB     113      POPE     C22      CD32C     2.24380       11.6110           0  -1.99300      0.410000    
     20422 MEMB     113      POPE     DC22     DRUD     -2.44980      0.400000           0   0.00000       0.00000    
     20423 MEMB     113      POPE     H2R      HDA2A    0.690000E-01   1.00800           0   0.00000       0.00000    
     20424 MEMB     113      POPE     H2S      HDA2A    0.690000E-01   1.00800           0   0.00000       0.00000    
     20425 MEMB     113      POPE     LP1A     LPD     -0.349000       0.00000          -1   0.00000       0.00000    
     20426 MEMB     113      POPE     LP1B     LPD     -0.258000       0.00000          -1   0.00000       0.00000    
     20427 MEMB     113      POPE     LPMA     LPD     -0.170000       0.00000          -1   0.00000       0.00000    
     20428 MEMB     113      POPE     LPMB     LPD     -0.170000       0.00000          -1   0.00000       0.00000    
     20429 MEMB     113      POPE     C3       CD32C     2.41230       11.6110           0  -1.79700      0.410000    
     20430 MEMB     113      POPE     DC3      DRUD     -2.32630      0.400000           0   0.00000       0.00000    
     20431 MEMB     113      POPE     HX       HDA2A    0.116000       1.00800           0   0.00000       0.00000    
     20432 MEMB     113      POPE     HY       HDA2A    0.116000       1.00800           0   0.00000       0.00000    
     20433 MEMB     113      POPE     O31      OD30CL    1.48470       15.5994           0 -0.732000      0.601000    
     20434 MEMB     113      POPE     DO31     DRUD     -1.48470      0.400000           0   0.00000       0.00000    
     20435 MEMB     113      POPE     C31      CD2O3B    2.72820       11.6110           0  -1.37000       1.74700    
     20436 MEMB     113      POPE     DC31     DRUD     -2.03120      0.400000           0   0.00000       0.00000    
     20437 MEMB     113      POPE     O32      OD2C3B    1.64990       15.5994           0 -0.904000      0.565000    
     20438 MEMB     113      POPE     DO32     DRUD     -1.64990      0.400000           0   0.00000       0.00000    
     20439 MEMB     113      POPE     C32      CD32C     2.24380       11.6110           0  -1.99300      0.410000    
     20440 MEMB     113      POPE     DC32     DRUD     -2.44980      0.400000           0   0.00000       0.00000    
     20441 MEMB     113      POPE     H2X      HDA2A    0.690000E-01   1.00800           0   0.00000       0.00000    
     20442 MEMB     113      POPE     H2Y      HDA2A    0.690000E-01   1.00800           0   0.00000       0.00000    
     20443 MEMB     113      POPE     LP1C     LPD     -0.349000       0.00000          -1   0.00000       0.00000    
     20444 MEMB     113      POPE     LP1D     LPD     -0.258000       0.00000          -1   0.00000       0.00000    
     20445 MEMB     113      POPE     LPMC     LPD     -0.170000       0.00000          -1   0.00000       0.00000    
     20446 MEMB     113      POPE     LPMD     LPD     -0.170000       0.00000          -1   0.00000       0.00000    
     20447 MEMB     113      POPE     C23      CD32A     2.07980       11.6110           0  -1.66000       1.30000    
     20448 MEMB     113      POPE     DC23     DRUD     -2.23580      0.400000           0   0.00000       0.00000    
     20449 MEMB     113      POPE     H3R      HDA2A    0.780000E-01   1.00800           0   0.00000       0.00000    
     20450 MEMB     113      POPE     H3S      HDA2A    0.780000E-01   1.00800           0   0.00000       0.00000    
     20451 MEMB     113      POPE     C24      CD32A     2.07980       11.6110           0  -1.66000       1.30000    
     20452 MEMB     113      POPE     DC24     DRUD     -2.23580      0.400000           0   0.00000       0.00000    
     20453 MEMB     113      POPE     H4R      HDA2A    0.780000E-01   1.00800           0   0.00000       0.00000    
     20454 MEMB     113      POPE     H4S      HDA2A    0.780000E-01   1.00800           0   0.00000       0.00000    
     20455 MEMB     113      POPE     C25      CD32A     2.07980       11.6110           0  -1.66000       1.30000    
     20456 MEMB     113      POPE     DC25     DRUD     -2.23580      0.400000           0   0.00000       0.00000    
     20457 MEMB     113      POPE     H5R      HDA2A    0.780000E-01   1.00800           0   0.00000       0.00000    
     20458 MEMB     113      POPE     H5S      HDA2A    0.780000E-01   1.00800           0   0.00000       0.00000    
     20459 MEMB     113      POPE     C26      CD32A     2.07980       11.6110           0  -1.66000       1.30000    
     20460 MEMB     113      POPE     DC26     DRUD     -2.23580      0.400000           0   0.00000       0.00000    
     20461 MEMB     113      POPE     H6R      HDA2A    0.780000E-01   1.00800           0   0.00000       0.00000    
     20462 MEMB     113      POPE     H6S      HDA2A    0.780000E-01   1.00800           0   0.00000       0.00000    
     20463 MEMB     113      POPE     C27      CD32A     2.07980       11.6110           0  -1.66000       1.30000    
     20464 MEMB     113      POPE     DC27     DRUD     -2.23580      0.400000           0   0.00000       0.00000    
     20465 MEMB     113      POPE     H7R      HDA2A    0.780000E-01   1.00800           0   0.00000       0.00000    
     20466 MEMB     113      POPE     H7S      HDA2A    0.780000E-01   1.00800           0   0.00000       0.00000    
     20467 MEMB     113      POPE     C28      CD32A     2.07980       11.6110           0  -1.66000       1.30000    
     20468 MEMB     113      POPE     DC28     DRUD     -2.23580      0.400000           0   0.00000       0.00000    
     20469 MEMB     113      POPE     H8R      HDA2A    0.780000E-01   1.00800           0   0.00000       0.00000    
     20470 MEMB     113      POPE     H8S      HDA2A    0.780000E-01   1.00800           0   0.00000       0.00000    
     20471 MEMB     113      POPE     C29      CD2C1A    2.33700       11.6110           0  -1.99000      0.750000    
     20472 MEMB     113      POPE     DC29     DRUD     -2.44800      0.400000           0   0.00000       0.00000    
     20473 MEMB     113      POPE     H91      HD2C1A   0.111000       1.00800           0   0.00000       0.00000    
     20474 MEMB     113      POPE     C210     CD2C1A    2.33700       11.6110           0  -1.99000      0.750000    
     20475 MEMB     113      POPE     DC210    DRUD     -2.44800      0.400000           0   0.00000       0.00000    
     20476 MEMB     113      POPE     H101     HD2C1A   0.111000       1.00800           0   0.00000       0.00000    
     20477 MEMB     113      POPE     C211     CD32A     2.07980       11.6110           0  -1.66000       1.30000    
     20478 MEMB     113      POPE     DC211    DRUD     -2.23580      0.400000           0   0.00000       0.00000    
     20479 MEMB     113      POPE     H11R     HDA2A    0.780000E-01   1.00800           0   0.00000       0.00000    
     20480 MEMB     113      POPE     H11S     HDA2A    0.780000E-01   1.00800           0   0.00000       0.00000    
     20481 MEMB     113      POPE     C212     CD32A     2.07980       11.6110           0  -1.66000       1.30000    
     20482 MEMB     113      POPE     DC212    DRUD     -2.23580      0.400000           0   0.00000       0.00000    
     20483 MEMB     113      POPE     H12R     HDA2A    0.780000E-01   1.00800           0   0.00000       0.00000    
     20484 MEMB     113      POPE     H12S     HDA2A    0.780000E-01   1.00800           0   0.00000       0.00000    
     20485 MEMB     113      POPE     C213     CD32A     2.07980       11.6110           0  -1.66000       1.30000    
     20486 MEMB     113      POPE     DC213    DRUD     -2.23580      0.400000           0   0.00000       0.00000    
     20487 MEMB     113      POPE     H13R     HDA2A    0.780000E-01   1.00800           0   0.00000       0.00000    
     20488 MEMB     113      POPE     H13S     HDA2A    0.780000E-01   1.00800           0   0.00000       0.00000    
     20489 MEMB     113      POPE     C214     CD32A     2.07980       11.6110           0  -1.66000       1.30000    
     20490 MEMB     113      POPE     DC214    DRUD     -2.23580      0.400000           0   0.00000       0.00000    
     20491 MEMB     113      POPE     H14R     HDA2A    0.780000E-01   1.00800           0   0.00000       0.00000    
     20492 MEMB     113      POPE     H14S     HDA2A    0.780000E-01   1.00800           0   0.00000       0.00000    
     20493 MEMB     113      POPE     C215     CD32A     2.07980       11.6110           0  -1.66000       1.30000    
     20494 MEMB     113      POPE     DC215    DRUD     -2.23580      0.400000           0   0.00000       0.00000    
     20495 MEMB     113      POPE     H15R     HDA2A    0.780000E-01   1.00800           0   0.00000       0.00000    
     20496 MEMB     113      POPE     H15S     HDA2A    0.780000E-01   1.00800           0   0.00000       0.00000    
     20497 MEMB     113      POPE     C216     CD32A     2.07980       11.6110           0  -1.66000       1.30000    
     20498 MEMB     113      POPE     DC216    DRUD     -2.23580      0.400000           0   0.00000       0.00000    
     20499 MEMB     113      POPE     H16R     HDA2A    0.780000E-01   1.00800           0   0.00000       0.00000    
     20500 MEMB     113      POPE     H16S     HDA2A    0.780000E-01   1.00800           0   0.00000       0.00000    
     20501 MEMB     113      POPE     C217     CD32A     2.07980       11.6110           0  -1.66000       1.30000    
     20502 MEMB     113      POPE     DC217    DRUD     -2.23580      0.400000           0   0.00000       0.00000    
     20503 MEMB     113      POPE     H17R     HDA2A    0.780000E-01   1.00800           0   0.00000       0.00000    
     20504 MEMB     113      POPE     H17S     HDA2A    0.780000E-01   1.00800           0   0.00000       0.00000    
     20505 MEMB     113      POPE     C218     CD33A     2.30820       11.6110           0  -2.05100       1.30000    
     20506 MEMB     113      POPE     DC218    DRUD     -2.48520      0.400000           0   0.00000       0.00000    
     20507 MEMB     113      POPE     H18R     HDA3A    0.590000E-01   1.00800           0   0.00000       0.00000    
     20508 MEMB     113      POPE     H18S     HDA3A    0.590000E-01   1.00800           0   0.00000       0.00000    
     20509 MEMB     113      POPE     H18T     HDA3A    0.590000E-01   1.00800           0   0.00000       0.00000    
     20510 MEMB     113      POPE     C33      CD32A     2.07980       11.6110           0  -1.66000       1.30000    
     20511 MEMB     113      POPE     DC33     DRUD     -2.23580      0.400000           0   0.00000       0.00000    
     20512 MEMB     113      POPE     H3X      HDA2A    0.780000E-01   1.00800           0   0.00000       0.00000    
     20513 MEMB     113      POPE     H3Y      HDA2A    0.780000E-01   1.00800           0   0.00000       0.00000    
     20514 MEMB     113      POPE     C34      CD32A     2.07980       11.6110           0  -1.66000       1.30000    
     20515 MEMB     113      POPE     DC34     DRUD     -2.23580      0.400000           0   0.00000       0.00000    
     20516 MEMB     113      POPE     H4X      HDA2A    0.780000E-01   1.00800           0   0.00000       0.00000    
     20517 MEMB     113      POPE     H4Y      HDA2A    0.780000E-01   1.00800           0   0.00000       0.00000    
     20518 MEMB     113      POPE     C35      CD32A     2.07980       11.6110           0  -1.66000       1.30000    
     20519 MEMB     113      POPE     DC35     DRUD     -2.23580      0.400000           0   0.00000       0.00000    
     20520 MEMB     113      POPE     H5X      HDA2A    0.780000E-01   1.00800           0   0.00000       0.00000    
     20521 MEMB     113      POPE     H5Y      HDA2A    0.780000E-01   1.00800           0   0.00000       0.00000    
     20522 MEMB     113      POPE     C36      CD32A     2.07980       11.6110           0  -1.66000       1.30000    
     20523 MEMB     113      POPE     DC36     DRUD     -2.23580      0.400000           0   0.00000       0.00000    
     20524 MEMB     113      POPE     H6X      HDA2A    0.780000E-01   1.00800           0   0.00000       0.00000    
     20525 MEMB     113      POPE     H6Y      HDA2A    0.780000E-01   1.00800           0   0.00000       0.00000    
     20526 MEMB     113      POPE     C37      CD32A     2.07980       11.6110           0  -1.66000       1.30000    
     20527 MEMB     113      POPE     DC37     DRUD     -2.23580      0.400000           0   0.00000       0.00000    
     20528 MEMB     113      POPE     H7X      HDA2A    0.780000E-01   1.00800           0   0.00000       0.00000    
     20529 MEMB     113      POPE     H7Y      HDA2A    0.780000E-01   1.00800           0   0.00000       0.00000    
     20530 MEMB     113      POPE     C38      CD32A     2.07980       11.6110           0  -1.66000       1.30000    
     20531 MEMB     113      POPE     DC38     DRUD     -2.23580      0.400000           0   0.00000       0.00000    
     20532 MEMB     113      POPE     H8X      HDA2A    0.780000E-01   1.00800           0   0.00000       0.00000    
     20533 MEMB     113      POPE     H8Y      HDA2A    0.780000E-01   1.00800           0   0.00000       0.00000    
     20534 MEMB     113      POPE     C39      CD32A     2.07980       11.6110           0  -1.66000       1.30000    
     20535 MEMB     113      POPE     DC39     DRUD     -2.23580      0.400000           0   0.00000       0.00000    
     20536 MEMB     113      POPE     H9X      HDA2A    0.780000E-01   1.00800           0   0.00000       0.00000    
     20537 MEMB     113      POPE     H9Y      HDA2A    0.780000E-01   1.00800           0   0.00000       0.00000    
     20538 MEMB     113      POPE     C310     CD32A     2.07980       11.6110           0  -1.66000       1.30000    
     20539 MEMB     113      POPE     DC310    DRUD     -2.23580      0.400000           0   0.00000       0.00000    
     20540 MEMB     113      POPE     H10X     HDA2A    0.780000E-01   1.00800           0   0.00000       0.00000    
     20541 MEMB     113      POPE     H10Y     HDA2A    0.780000E-01   1.00800           0   0.00000       0.00000    
     20542 MEMB     113      POPE     C311     CD32A     2.07980       11.6110           0  -1.66000       1.30000    
     20543 MEMB     113      POPE     DC311    DRUD     -2.23580      0.400000           0   0.00000       0.00000    
     20544 MEMB     113      POPE     H11X     HDA2A    0.780000E-01   1.00800           0   0.00000       0.00000    
     20545 MEMB     113      POPE     H11Y     HDA2A    0.780000E-01   1.00800           0   0.00000       0.00000    
     20546 MEMB     113      POPE     C312     CD32A     2.07980       11.6110           0  -1.66000       1.30000    
     20547 MEMB     113      POPE     DC312    DRUD     -2.23580      0.400000           0   0.00000       0.00000    
     20548 MEMB     113      POPE     H12X     HDA2A    0.780000E-01   1.00800           0   0.00000       0.00000    
     20549 MEMB     113      POPE     H12Y     HDA2A    0.780000E-01   1.00800           0   0.00000       0.00000    
     20550 MEMB     113      POPE     C313     CD32A     2.07980       11.6110           0  -1.66000       1.30000    
     20551 MEMB     113      POPE     DC313    DRUD     -2.23580      0.400000           0   0.00000       0.00000    
     20552 MEMB     113      POPE     H13X     HDA2A    0.780000E-01   1.00800           0   0.00000       0.00000    
     20553 MEMB     113      POPE     H13Y     HDA2A    0.780000E-01   1.00800           0   0.00000       0.00000    
     20554 MEMB     113      POPE     C314     CD32A     2.07980       11.6110           0  -1.66000       1.30000    
     20555 MEMB     113      POPE     DC314    DRUD     -2.23580      0.400000           0   0.00000       0.00000    
     20556 MEMB     113      POPE     H14X     HDA2A    0.780000E-01   1.00800           0   0.00000       0.00000    
     20557 MEMB     113      POPE     H14Y     HDA2A    0.780000E-01   1.00800           0   0.00000       0.00000    
     20558 MEMB     113      POPE     C315     CD32A     2.07980       11.6110           0  -1.66000       1.30000    
     20559 MEMB     113      POPE     DC315    DRUD     -2.23580      0.400000           0   0.00000       0.00000    
     20560 MEMB     113      POPE     H15X     HDA2A    0.780000E-01   1.00800           0   0.00000       0.00000    
     20561 MEMB     113      POPE     H15Y     HDA2A    0.780000E-01   1.00800           0   0.00000       0.00000    
     20562 MEMB     113      POPE     C316     CD33A     2.30820       11.6110           0  -2.05100       1.30000    
     20563 MEMB     113      POPE     DC316    DRUD     -2.48520      0.400000           0   0.00000       0.00000    
     20564 MEMB     113      POPE     H16X     HDA3A    0.590000E-01   1.00800           0   0.00000       0.00000    
     20565 MEMB     113      POPE     H16Y     HDA3A    0.590000E-01   1.00800           0   0.00000       0.00000    
     20566 MEMB     113      POPE     H16Z     HDA3A    0.590000E-01   1.00800           0   0.00000       0.00000    
     20567 MEMB     114      POPE     N        ND3P3A    1.62810       13.6070           0  -1.29800      0.895000    
     20568 MEMB     114      POPE     DN       DRUD     -1.97710      0.400000           0   0.00000       0.00000    
     20569 MEMB     114      POPE     HN1      HDP1B    0.340000       1.00800           0   0.00000       0.00000    
     20570 MEMB     114      POPE     HN2      HDP1B    0.340000       1.00800           0   0.00000       0.00000    
     20571 MEMB     114      POPE     HN3      HDP1B    0.340000       1.00800           0   0.00000       0.00000    
     20572 MEMB     114      POPE     C12      CD32A     2.27610       11.6110           0  -1.65600      0.895000    
     20573 MEMB     114      POPE     DC12     DRUD     -2.23310      0.400000           0   0.00000       0.00000    
     20574 MEMB     114      POPE     H12A     HDA2A    0.143000       1.00800           0   0.00000       0.00000    
     20575 MEMB     114      POPE     H12B     HDA2A    0.143000       1.00800           0   0.00000       0.00000    
     20576 MEMB     114      POPE     C11      CD32A     2.42220       11.6110           0  -1.64200      0.862000    
     20577 MEMB     114      POPE     DC11     DRUD     -2.22370      0.400000           0   0.00000       0.00000    
     20578 MEMB     114      POPE     H11A     HDA2A    0.260000E-01   1.00800           0   0.00000       0.00000    
     20579 MEMB     114      POPE     H11B     HDA2A    0.260000E-01   1.00800           0   0.00000       0.00000    
     20580 MEMB     114      POPE     P        PD1A      2.90360       30.5740           0 -0.974000       2.09800    
     20581 MEMB     114      POPE     DP       DRUD     -1.71260      0.400000           0   0.00000       0.00000    
     20582 MEMB     114      POPE     O13      OD2C2B   0.798400       15.5994           0 -0.931000       1.08300    
     20583 MEMB     114      POPE     DO13     DRUD     -1.67440      0.400000           0   0.00000       0.00000    
     20584 MEMB     114      POPE     O14      OD2C2B   0.798400       15.5994           0 -0.931000       1.08300    
     20585 MEMB     114      POPE     DO14     DRUD     -1.67440      0.400000           0   0.00000       0.00000    
     20586 MEMB     114      POPE     O11      OD30B     1.17720       15.5994           0 -0.901000      0.181000    
     20587 MEMB     114      POPE     DO11     DRUD     -1.64720      0.400000           0   0.00000       0.00000    
     20588 MEMB     114      POPE     O12      OD30B     1.17720       15.5994           0 -0.901000      0.181000    
     20589 MEMB     114      POPE     DO12     DRUD     -1.64720      0.400000           0   0.00000       0.00000    
     20590 MEMB     114      POPE     C1       CD32A     2.42220       11.6110           0  -1.64200      0.862000    
     20591 MEMB     114      POPE     DC1      DRUD     -2.22370      0.400000           0   0.00000       0.00000    
     20592 MEMB     114      POPE     HA       HDA2A    0.260000E-01   1.00800           0   0.00000       0.00000    
     20593 MEMB     114      POPE     HB       HDA2A    0.260000E-01   1.00800           0   0.00000       0.00000    
     20594 MEMB     114      POPE     C2       CD31C     2.52830       11.6110           0  -1.79700      0.410000    
     20595 MEMB     114      POPE     DC2      DRUD     -2.32630      0.400000           0   0.00000       0.00000    
     20596 MEMB     114      POPE     HS       HDA1A    0.116000       1.00800           0   0.00000       0.00000    
     20597 MEMB     114      POPE     O21      OD30CL    1.48470       15.5994           0 -0.732000      0.601000    
     20598 MEMB     114      POPE     DO21     DRUD     -1.48470      0.400000           0   0.00000       0.00000    
     20599 MEMB     114      POPE     C21      CD2O3B    2.72820       11.6110           0  -1.37000       1.74700    
     20600 MEMB     114      POPE     DC21     DRUD     -2.03120      0.400000           0   0.00000       0.00000    
     20601 MEMB     114      POPE     O22      OD2C3B    1.64990       15.5994           0 -0.904000      0.565000    
     20602 MEMB     114      POPE     DO22     DRUD     -1.64990      0.400000           0   0.00000       0.00000    
     20603 MEMB     114      POPE     C22      CD32C     2.24380       11.6110           0  -1.99300      0.410000    
     20604 MEMB     114      POPE     DC22     DRUD     -2.44980      0.400000           0   0.00000       0.00000    
     20605 MEMB     114      POPE     H2R      HDA2A    0.690000E-01   1.00800           0   0.00000       0.00000    
     20606 MEMB     114      POPE     H2S      HDA2A    0.690000E-01   1.00800           0   0.00000       0.00000    
     20607 MEMB     114      POPE     LP1A     LPD     -0.349000       0.00000          -1   0.00000       0.00000    
     20608 MEMB     114      POPE     LP1B     LPD     -0.258000       0.00000          -1   0.00000       0.00000    
     20609 MEMB     114      POPE     LPMA     LPD     -0.170000       0.00000          -1   0.00000       0.00000    
     20610 MEMB     114      POPE     LPMB     LPD     -0.170000       0.00000          -1   0.00000       0.00000    
     20611 MEMB     114      POPE     C3       CD32C     2.41230       11.6110           0  -1.79700      0.410000    
     20612 MEMB     114      POPE     DC3      DRUD     -2.32630      0.400000           0   0.00000       0.00000    
     20613 MEMB     114      POPE     HX       HDA2A    0.116000       1.00800           0   0.00000       0.00000    
     20614 MEMB     114      POPE     HY       HDA2A    0.116000       1.00800           0   0.00000       0.00000    
     20615 MEMB     114      POPE     O31      OD30CL    1.48470       15.5994           0 -0.732000      0.601000    
     20616 MEMB     114      POPE     DO31     DRUD     -1.48470      0.400000           0   0.00000       0.00000    
     20617 MEMB     114      POPE     C31      CD2O3B    2.72820       11.6110           0  -1.37000       1.74700    
     20618 MEMB     114      POPE     DC31     DRUD     -2.03120      0.400000           0   0.00000       0.00000    
     20619 MEMB     114      POPE     O32      OD2C3B    1.64990       15.5994           0 -0.904000      0.565000    
     20620 MEMB     114      POPE     DO32     DRUD     -1.64990      0.400000           0   0.00000       0.00000    
     20621 MEMB     114      POPE     C32      CD32C     2.24380       11.6110           0  -1.99300      0.410000    
     20622 MEMB     114      POPE     DC32     DRUD     -2.44980      0.400000           0   0.00000       0.00000    
     20623 MEMB     114      POPE     H2X      HDA2A    0.690000E-01   1.00800           0   0.00000       0.00000    
     20624 MEMB     114      POPE     H2Y      HDA2A    0.690000E-01   1.00800           0   0.00000       0.00000    
     20625 MEMB     114      POPE     LP1C     LPD     -0.349000       0.00000          -1   0.00000       0.00000    
     20626 MEMB     114      POPE     LP1D     LPD     -0.258000       0.00000          -1   0.00000       0.00000    
     20627 MEMB     114      POPE     LPMC     LPD     -0.170000       0.00000          -1   0.00000       0.00000    
     20628 MEMB     114      POPE     LPMD     LPD     -0.170000       0.00000          -1   0.00000       0.00000    
     20629 MEMB     114      POPE     C23      CD32A     2.07980       11.6110           0  -1.66000       1.30000    
     20630 MEMB     114      POPE     DC23     DRUD     -2.23580      0.400000           0   0.00000       0.00000    
     20631 MEMB     114      POPE     H3R      HDA2A    0.780000E-01   1.00800           0   0.00000       0.00000    
     20632 MEMB     114      POPE     H3S      HDA2A    0.780000E-01   1.00800           0   0.00000       0.00000    
     20633 MEMB     114      POPE     C24      CD32A     2.07980       11.6110           0  -1.66000       1.30000    
     20634 MEMB     114      POPE     DC24     DRUD     -2.23580      0.400000           0   0.00000       0.00000    
     20635 MEMB     114      POPE     H4R      HDA2A    0.780000E-01   1.00800           0   0.00000       0.00000    
     20636 MEMB     114      POPE     H4S      HDA2A    0.780000E-01   1.00800           0   0.00000       0.00000    
     20637 MEMB     114      POPE     C25      CD32A     2.07980       11.6110           0  -1.66000       1.30000    
     20638 MEMB     114      POPE     DC25     DRUD     -2.23580      0.400000           0   0.00000       0.00000    
     20639 MEMB     114      POPE     H5R      HDA2A    0.780000E-01   1.00800           0   0.00000       0.00000    
     20640 MEMB     114      POPE     H5S      HDA2A    0.780000E-01   1.00800           0   0.00000       0.00000    
     20641 MEMB     114      POPE     C26      CD32A     2.07980       11.6110           0  -1.66000       1.30000    
     20642 MEMB     114      POPE     DC26     DRUD     -2.23580      0.400000           0   0.00000       0.00000    
     20643 MEMB     114      POPE     H6R      HDA2A    0.780000E-01   1.00800           0   0.00000       0.00000    
     20644 MEMB     114      POPE     H6S      HDA2A    0.780000E-01   1.00800           0   0.00000       0.00000    
     20645 MEMB     114      POPE     C27      CD32A     2.07980       11.6110           0  -1.66000       1.30000    
     20646 MEMB     114      POPE     DC27     DRUD     -2.23580      0.400000           0   0.00000       0.00000    
     20647 MEMB     114      POPE     H7R      HDA2A    0.780000E-01   1.00800           0   0.00000       0.00000    
     20648 MEMB     114      POPE     H7S      HDA2A    0.780000E-01   1.00800           0   0.00000       0.00000    
     20649 MEMB     114      POPE     C28      CD32A     2.07980       11.6110           0  -1.66000       1.30000    
     20650 MEMB     114      POPE     DC28     DRUD     -2.23580      0.400000           0   0.00000       0.00000    
     20651 MEMB     114      POPE     H8R      HDA2A    0.780000E-01   1.00800           0   0.00000       0.00000    
     20652 MEMB     114      POPE     H8S      HDA2A    0.780000E-01   1.00800           0   0.00000       0.00000    
     20653 MEMB     114      POPE     C29      CD2C1A    2.33700       11.6110           0  -1.99000      0.750000    
     20654 MEMB     114      POPE     DC29     DRUD     -2.44800      0.400000           0   0.00000       0.00000    
     20655 MEMB     114      POPE     H91      HD2C1A   0.111000       1.00800           0   0.00000       0.00000    
     20656 MEMB     114      POPE     C210     CD2C1A    2.33700       11.6110           0  -1.99000      0.750000    
     20657 MEMB     114      POPE     DC210    DRUD     -2.44800      0.400000           0   0.00000       0.00000    
     20658 MEMB     114      POPE     H101     HD2C1A   0.111000       1.00800           0   0.00000       0.00000    
     20659 MEMB     114      POPE     C211     CD32A     2.07980       11.6110           0  -1.66000       1.30000    
     20660 MEMB     114      POPE     DC211    DRUD     -2.23580      0.400000           0   0.00000       0.00000    
     20661 MEMB     114      POPE     H11R     HDA2A    0.780000E-01   1.00800           0   0.00000       0.00000    
     20662 MEMB     114      POPE     H11S     HDA2A    0.780000E-01   1.00800           0   0.00000       0.00000    
     20663 MEMB     114      POPE     C212     CD32A     2.07980       11.6110           0  -1.66000       1.30000    
     20664 MEMB     114      POPE     DC212    DRUD     -2.23580      0.400000           0   0.00000       0.00000    
     20665 MEMB     114      POPE     H12R     HDA2A    0.780000E-01   1.00800           0   0.00000       0.00000    
     20666 MEMB     114      POPE     H12S     HDA2A    0.780000E-01   1.00800           0   0.00000       0.00000    
     20667 MEMB     114      POPE     C213     CD32A     2.07980       11.6110           0  -1.66000       1.30000    
     20668 MEMB     114      POPE     DC213    DRUD     -2.23580      0.400000           0   0.00000       0.00000    
     20669 MEMB     114      POPE     H13R     HDA2A    0.780000E-01   1.00800           0   0.00000       0.00000    
     20670 MEMB     114      POPE     H13S     HDA2A    0.780000E-01   1.00800           0   0.00000       0.00000    
     20671 MEMB     114      POPE     C214     CD32A     2.07980       11.6110           0  -1.66000       1.30000    
     20672 MEMB     114      POPE     DC214    DRUD     -2.23580      0.400000           0   0.00000       0.00000    
     20673 MEMB     114      POPE     H14R     HDA2A    0.780000E-01   1.00800           0   0.00000       0.00000    
     20674 MEMB     114      POPE     H14S     HDA2A    0.780000E-01   1.00800           0   0.00000       0.00000    
     20675 MEMB     114      POPE     C215     CD32A     2.07980       11.6110           0  -1.66000       1.30000    
     20676 MEMB     114      POPE     DC215    DRUD     -2.23580      0.400000           0   0.00000       0.00000    
     20677 MEMB     114      POPE     H15R     HDA2A    0.780000E-01   1.00800           0   0.00000       0.00000    
     20678 MEMB     114      POPE     H15S     HDA2A    0.780000E-01   1.00800           0   0.00000       0.00000    
     20679 MEMB     114      POPE     C216     CD32A     2.07980       11.6110           0  -1.66000       1.30000    
     20680 MEMB     114      POPE     DC216    DRUD     -2.23580      0.400000           0   0.00000       0.00000    
     20681 MEMB     114      POPE     H16R     HDA2A    0.780000E-01   1.00800           0   0.00000       0.00000    
     20682 MEMB     114      POPE     H16S     HDA2A    0.780000E-01   1.00800           0   0.00000       0.00000    
     20683 MEMB     114      POPE     C217     CD32A     2.07980       11.6110           0  -1.66000       1.30000    
     20684 MEMB     114      POPE     DC217    DRUD     -2.23580      0.400000           0   0.00000       0.00000    
     20685 MEMB     114      POPE     H17R     HDA2A    0.780000E-01   1.00800           0   0.00000       0.00000    
     20686 MEMB     114      POPE     H17S     HDA2A    0.780000E-01   1.00800           0   0.00000       0.00000    
     20687 MEMB     114      POPE     C218     CD33A     2.30820       11.6110           0  -2.05100       1.30000    
     20688 MEMB     114      POPE     DC218    DRUD     -2.48520      0.400000           0   0.00000       0.00000    
     20689 MEMB     114      POPE     H18R     HDA3A    0.590000E-01   1.00800           0   0.00000       0.00000    
     20690 MEMB     114      POPE     H18S     HDA3A    0.590000E-01   1.00800           0   0.00000       0.00000    
     20691 MEMB     114      POPE     H18T     HDA3A    0.590000E-01   1.00800           0   0.00000       0.00000    
     20692 MEMB     114      POPE     C33      CD32A     2.07980       11.6110           0  -1.66000       1.30000    
     20693 MEMB     114      POPE     DC33     DRUD     -2.23580      0.400000           0   0.00000       0.00000    
     20694 MEMB     114      POPE     H3X      HDA2A    0.780000E-01   1.00800           0   0.00000       0.00000    
     20695 MEMB     114      POPE     H3Y      HDA2A    0.780000E-01   1.00800           0   0.00000       0.00000    
     20696 MEMB     114      POPE     C34      CD32A     2.07980       11.6110           0  -1.66000       1.30000    
     20697 MEMB     114      POPE     DC34     DRUD     -2.23580      0.400000           0   0.00000       0.00000    
     20698 MEMB     114      POPE     H4X      HDA2A    0.780000E-01   1.00800           0   0.00000       0.00000    
     20699 MEMB     114      POPE     H4Y      HDA2A    0.780000E-01   1.00800           0   0.00000       0.00000    
     20700 MEMB     114      POPE     C35      CD32A     2.07980       11.6110           0  -1.66000       1.30000    
     20701 MEMB     114      POPE     DC35     DRUD     -2.23580      0.400000           0   0.00000       0.00000    
     20702 MEMB     114      POPE     H5X      HDA2A    0.780000E-01   1.00800           0   0.00000       0.00000    
     20703 MEMB     114      POPE     H5Y      HDA2A    0.780000E-01   1.00800           0   0.00000       0.00000    
     20704 MEMB     114      POPE     C36      CD32A     2.07980       11.6110           0  -1.66000       1.30000    
     20705 MEMB     114      POPE     DC36     DRUD     -2.23580      0.400000           0   0.00000       0.00000    
     20706 MEMB     114      POPE     H6X      HDA2A    0.780000E-01   1.00800           0   0.00000       0.00000    
     20707 MEMB     114      POPE     H6Y      HDA2A    0.780000E-01   1.00800           0   0.00000       0.00000    
     20708 MEMB     114      POPE     C37      CD32A     2.07980       11.6110           0  -1.66000       1.30000    
     20709 MEMB     114      POPE     DC37     DRUD     -2.23580      0.400000           0   0.00000       0.00000    
     20710 MEMB     114      POPE     H7X      HDA2A    0.780000E-01   1.00800           0   0.00000       0.00000    
     20711 MEMB     114      POPE     H7Y      HDA2A    0.780000E-01   1.00800           0   0.00000       0.00000    
     20712 MEMB     114      POPE     C38      CD32A     2.07980       11.6110           0  -1.66000       1.30000    
     20713 MEMB     114      POPE     DC38     DRUD     -2.23580      0.400000           0   0.00000       0.00000    
     20714 MEMB     114      POPE     H8X      HDA2A    0.780000E-01   1.00800           0   0.00000       0.00000    
     20715 MEMB     114      POPE     H8Y      HDA2A    0.780000E-01   1.00800           0   0.00000       0.00000    
     20716 MEMB     114      POPE     C39      CD32A     2.07980       11.6110           0  -1.66000       1.30000    
     20717 MEMB     114      POPE     DC39     DRUD     -2.23580      0.400000           0   0.00000       0.00000    
     20718 MEMB     114      POPE     H9X      HDA2A    0.780000E-01   1.00800           0   0.00000       0.00000    
     20719 MEMB     114      POPE     H9Y      HDA2A    0.780000E-01   1.00800           0   0.00000       0.00000    
     20720 MEMB     114      POPE     C310     CD32A     2.07980       11.6110           0  -1.66000       1.30000    
     20721 MEMB     114      POPE     DC310    DRUD     -2.23580      0.400000           0   0.00000       0.00000    
     20722 MEMB     114      POPE     H10X     HDA2A    0.780000E-01   1.00800           0   0.00000       0.00000    
     20723 MEMB     114      POPE     H10Y     HDA2A    0.780000E-01   1.00800           0   0.00000       0.00000    
     20724 MEMB     114      POPE     C311     CD32A     2.07980       11.6110           0  -1.66000       1.30000    
     20725 MEMB     114      POPE     DC311    DRUD     -2.23580      0.400000           0   0.00000       0.00000    
     20726 MEMB     114      POPE     H11X     HDA2A    0.780000E-01   1.00800           0   0.00000       0.00000    
     20727 MEMB     114      POPE     H11Y     HDA2A    0.780000E-01   1.00800           0   0.00000       0.00000    
     20728 MEMB     114      POPE     C312     CD32A     2.07980       11.6110           0  -1.66000       1.30000    
     20729 MEMB     114      POPE     DC312    DRUD     -2.23580      0.400000           0   0.00000       0.00000    
     20730 MEMB     114      POPE     H12X     HDA2A    0.780000E-01   1.00800           0   0.00000       0.00000    
     20731 MEMB     114      POPE     H12Y     HDA2A    0.780000E-01   1.00800           0   0.00000       0.00000    
     20732 MEMB     114      POPE     C313     CD32A     2.07980       11.6110           0  -1.66000       1.30000    
     20733 MEMB     114      POPE     DC313    DRUD     -2.23580      0.400000           0   0.00000       0.00000    
     20734 MEMB     114      POPE     H13X     HDA2A    0.780000E-01   1.00800           0   0.00000       0.00000    
     20735 MEMB     114      POPE     H13Y     HDA2A    0.780000E-01   1.00800           0   0.00000       0.00000    
     20736 MEMB     114      POPE     C314     CD32A     2.07980       11.6110           0  -1.66000       1.30000    
     20737 MEMB     114      POPE     DC314    DRUD     -2.23580      0.400000           0   0.00000       0.00000    
     20738 MEMB     114      POPE     H14X     HDA2A    0.780000E-01   1.00800           0   0.00000       0.00000    
     20739 MEMB     114      POPE     H14Y     HDA2A    0.780000E-01   1.00800           0   0.00000       0.00000    
     20740 MEMB     114      POPE     C315     CD32A     2.07980       11.6110           0  -1.66000       1.30000    
     20741 MEMB     114      POPE     DC315    DRUD     -2.23580      0.400000           0   0.00000       0.00000    
     20742 MEMB     114      POPE     H15X     HDA2A    0.780000E-01   1.00800           0   0.00000       0.00000    
     20743 MEMB     114      POPE     H15Y     HDA2A    0.780000E-01   1.00800           0   0.00000       0.00000    
     20744 MEMB     114      POPE     C316     CD33A     2.30820       11.6110           0  -2.05100       1.30000    
     20745 MEMB     114      POPE     DC316    DRUD     -2.48520      0.400000           0   0.00000       0.00000    
     20746 MEMB     114      POPE     H16X     HDA3A    0.590000E-01   1.00800           0   0.00000       0.00000    
     20747 MEMB     114      POPE     H16Y     HDA3A    0.590000E-01   1.00800           0   0.00000       0.00000    
     20748 MEMB     114      POPE     H16Z     HDA3A    0.590000E-01   1.00800           0   0.00000       0.00000    
     20749 MEMB     115      POPE     N        ND3P3A    1.62810       13.6070           0  -1.29800      0.895000    
     20750 MEMB     115      POPE     DN       DRUD     -1.97710      0.400000           0   0.00000       0.00000    
     20751 MEMB     115      POPE     HN1      HDP1B    0.340000       1.00800           0   0.00000       0.00000    
     20752 MEMB     115      POPE     HN2      HDP1B    0.340000       1.00800           0   0.00000       0.00000    
     20753 MEMB     115      POPE     HN3      HDP1B    0.340000       1.00800           0   0.00000       0.00000    
     20754 MEMB     115      POPE     C12      CD32A     2.27610       11.6110           0  -1.65600      0.895000    
     20755 MEMB     115      POPE     DC12     DRUD     -2.23310      0.400000           0   0.00000       0.00000    
     20756 MEMB     115      POPE     H12A     HDA2A    0.143000       1.00800           0   0.00000       0.00000    
     20757 MEMB     115      POPE     H12B     HDA2A    0.143000       1.00800           0   0.00000       0.00000    
     20758 MEMB     115      POPE     C11      CD32A     2.42220       11.6110           0  -1.64200      0.862000    
     20759 MEMB     115      POPE     DC11     DRUD     -2.22370      0.400000           0   0.00000       0.00000    
     20760 MEMB     115      POPE     H11A     HDA2A    0.260000E-01   1.00800           0   0.00000       0.00000    
     20761 MEMB     115      POPE     H11B     HDA2A    0.260000E-01   1.00800           0   0.00000       0.00000    
     20762 MEMB     115      POPE     P        PD1A      2.90360       30.5740           0 -0.974000       2.09800    
     20763 MEMB     115      POPE     DP       DRUD     -1.71260      0.400000           0   0.00000       0.00000    
     20764 MEMB     115      POPE     O13      OD2C2B   0.798400       15.5994           0 -0.931000       1.08300    
     20765 MEMB     115      POPE     DO13     DRUD     -1.67440      0.400000           0   0.00000       0.00000    
     20766 MEMB     115      POPE     O14      OD2C2B   0.798400       15.5994           0 -0.931000       1.08300    
     20767 MEMB     115      POPE     DO14     DRUD     -1.67440      0.400000           0   0.00000       0.00000    
     20768 MEMB     115      POPE     O11      OD30B     1.17720       15.5994           0 -0.901000      0.181000    
     20769 MEMB     115      POPE     DO11     DRUD     -1.64720      0.400000           0   0.00000       0.00000    
     20770 MEMB     115      POPE     O12      OD30B     1.17720       15.5994           0 -0.901000      0.181000    
     20771 MEMB     115      POPE     DO12     DRUD     -1.64720      0.400000           0   0.00000       0.00000    
     20772 MEMB     115      POPE     C1       CD32A     2.42220       11.6110           0  -1.64200      0.862000    
     20773 MEMB     115      POPE     DC1      DRUD     -2.22370      0.400000           0   0.00000       0.00000    
     20774 MEMB     115      POPE     HA       HDA2A    0.260000E-01   1.00800           0   0.00000       0.00000    
     20775 MEMB     115      POPE     HB       HDA2A    0.260000E-01   1.00800           0   0.00000       0.00000    
     20776 MEMB     115      POPE     C2       CD31C     2.52830       11.6110           0  -1.79700      0.410000    
     20777 MEMB     115      POPE     DC2      DRUD     -2.32630      0.400000           0   0.00000       0.00000    
     20778 MEMB     115      POPE     HS       HDA1A    0.116000       1.00800           0   0.00000       0.00000    
     20779 MEMB     115      POPE     O21      OD30CL    1.48470       15.5994           0 -0.732000      0.601000    
     20780 MEMB     115      POPE     DO21     DRUD     -1.48470      0.400000           0   0.00000       0.00000    
     20781 MEMB     115      POPE     C21      CD2O3B    2.72820       11.6110           0  -1.37000       1.74700    
     20782 MEMB     115      POPE     DC21     DRUD     -2.03120      0.400000           0   0.00000       0.00000    
     20783 MEMB     115      POPE     O22      OD2C3B    1.64990       15.5994           0 -0.904000      0.565000    
     20784 MEMB     115      POPE     DO22     DRUD     -1.64990      0.400000           0   0.00000       0.00000    
     20785 MEMB     115      POPE     C22      CD32C     2.24380       11.6110           0  -1.99300      0.410000    
     20786 MEMB     115      POPE     DC22     DRUD     -2.44980      0.400000           0   0.00000       0.00000    
     20787 MEMB     115      POPE     H2R      HDA2A    0.690000E-01   1.00800           0   0.00000       0.00000    
     20788 MEMB     115      POPE     H2S      HDA2A    0.690000E-01   1.00800           0   0.00000       0.00000    
     20789 MEMB     115      POPE     LP1A     LPD     -0.349000       0.00000          -1   0.00000       0.00000    
     20790 MEMB     115      POPE     LP1B     LPD     -0.258000       0.00000          -1   0.00000       0.00000    
     20791 MEMB     115      POPE     LPMA     LPD     -0.170000       0.00000          -1   0.00000       0.00000    
     20792 MEMB     115      POPE     LPMB     LPD     -0.170000       0.00000          -1   0.00000       0.00000    
     20793 MEMB     115      POPE     C3       CD32C     2.41230       11.6110           0  -1.79700      0.410000    
     20794 MEMB     115      POPE     DC3      DRUD     -2.32630      0.400000           0   0.00000       0.00000    
     20795 MEMB     115      POPE     HX       HDA2A    0.116000       1.00800           0   0.00000       0.00000    
     20796 MEMB     115      POPE     HY       HDA2A    0.116000       1.00800           0   0.00000       0.00000    
     20797 MEMB     115      POPE     O31      OD30CL    1.48470       15.5994           0 -0.732000      0.601000    
     20798 MEMB     115      POPE     DO31     DRUD     -1.48470      0.400000           0   0.00000       0.00000    
     20799 MEMB     115      POPE     C31      CD2O3B    2.72820       11.6110           0  -1.37000       1.74700    
     20800 MEMB     115      POPE     DC31     DRUD     -2.03120      0.400000           0   0.00000       0.00000    
     20801 MEMB     115      POPE     O32      OD2C3B    1.64990       15.5994           0 -0.904000      0.565000    
     20802 MEMB     115      POPE     DO32     DRUD     -1.64990      0.400000           0   0.00000       0.00000    
     20803 MEMB     115      POPE     C32      CD32C     2.24380       11.6110           0  -1.99300      0.410000    
     20804 MEMB     115      POPE     DC32     DRUD     -2.44980      0.400000           0   0.00000       0.00000    
     20805 MEMB     115      POPE     H2X      HDA2A    0.690000E-01   1.00800           0   0.00000       0.00000    
     20806 MEMB     115      POPE     H2Y      HDA2A    0.690000E-01   1.00800           0   0.00000       0.00000    
     20807 MEMB     115      POPE     LP1C     LPD     -0.349000       0.00000          -1   0.00000       0.00000    
     20808 MEMB     115      POPE     LP1D     LPD     -0.258000       0.00000          -1   0.00000       0.00000    
     20809 MEMB     115      POPE     LPMC     LPD     -0.170000       0.00000          -1   0.00000       0.00000    
     20810 MEMB     115      POPE     LPMD     LPD     -0.170000       0.00000          -1   0.00000       0.00000    
     20811 MEMB     115      POPE     C23      CD32A     2.07980       11.6110           0  -1.66000       1.30000    
     20812 MEMB     115      POPE     DC23     DRUD     -2.23580      0.400000           0   0.00000       0.00000    
     20813 MEMB     115      POPE     H3R      HDA2A    0.780000E-01   1.00800           0   0.00000       0.00000    
     20814 MEMB     115      POPE     H3S      HDA2A    0.780000E-01   1.00800           0   0.00000       0.00000    
     20815 MEMB     115      POPE     C24      CD32A     2.07980       11.6110           0  -1.66000       1.30000    
     20816 MEMB     115      POPE     DC24     DRUD     -2.23580      0.400000           0   0.00000       0.00000    
     20817 MEMB     115      POPE     H4R      HDA2A    0.780000E-01   1.00800           0   0.00000       0.00000    
     20818 MEMB     115      POPE     H4S      HDA2A    0.780000E-01   1.00800           0   0.00000       0.00000    
     20819 MEMB     115      POPE     C25      CD32A     2.07980       11.6110           0  -1.66000       1.30000    
     20820 MEMB     115      POPE     DC25     DRUD     -2.23580      0.400000           0   0.00000       0.00000    
     20821 MEMB     115      POPE     H5R      HDA2A    0.780000E-01   1.00800           0   0.00000       0.00000    
     20822 MEMB     115      POPE     H5S      HDA2A    0.780000E-01   1.00800           0   0.00000       0.00000    
     20823 MEMB     115      POPE     C26      CD32A     2.07980       11.6110           0  -1.66000       1.30000    
     20824 MEMB     115      POPE     DC26     DRUD     -2.23580      0.400000           0   0.00000       0.00000    
     20825 MEMB     115      POPE     H6R      HDA2A    0.780000E-01   1.00800           0   0.00000       0.00000    
     20826 MEMB     115      POPE     H6S      HDA2A    0.780000E-01   1.00800           0   0.00000       0.00000    
     20827 MEMB     115      POPE     C27      CD32A     2.07980       11.6110           0  -1.66000       1.30000    
     20828 MEMB     115      POPE     DC27     DRUD     -2.23580      0.400000           0   0.00000       0.00000    
     20829 MEMB     115      POPE     H7R      HDA2A    0.780000E-01   1.00800           0   0.00000       0.00000    
     20830 MEMB     115      POPE     H7S      HDA2A    0.780000E-01   1.00800           0   0.00000       0.00000    
     20831 MEMB     115      POPE     C28      CD32A     2.07980       11.6110           0  -1.66000       1.30000    
     20832 MEMB     115      POPE     DC28     DRUD     -2.23580      0.400000           0   0.00000       0.00000    
     20833 MEMB     115      POPE     H8R      HDA2A    0.780000E-01   1.00800           0   0.00000       0.00000    
     20834 MEMB     115      POPE     H8S      HDA2A    0.780000E-01   1.00800           0   0.00000       0.00000    
     20835 MEMB     115      POPE     C29      CD2C1A    2.33700       11.6110           0  -1.99000      0.750000    
     20836 MEMB     115      POPE     DC29     DRUD     -2.44800      0.400000           0   0.00000       0.00000    
     20837 MEMB     115      POPE     H91      HD2C1A   0.111000       1.00800           0   0.00000       0.00000    
     20838 MEMB     115      POPE     C210     CD2C1A    2.33700       11.6110           0  -1.99000      0.750000    
     20839 MEMB     115      POPE     DC210    DRUD     -2.44800      0.400000           0   0.00000       0.00000    
     20840 MEMB     115      POPE     H101     HD2C1A   0.111000       1.00800           0   0.00000       0.00000    
     20841 MEMB     115      POPE     C211     CD32A     2.07980       11.6110           0  -1.66000       1.30000    
     20842 MEMB     115      POPE     DC211    DRUD     -2.23580      0.400000           0   0.00000       0.00000    
     20843 MEMB     115      POPE     H11R     HDA2A    0.780000E-01   1.00800           0   0.00000       0.00000    
     20844 MEMB     115      POPE     H11S     HDA2A    0.780000E-01   1.00800           0   0.00000       0.00000    
     20845 MEMB     115      POPE     C212     CD32A     2.07980       11.6110           0  -1.66000       1.30000    
     20846 MEMB     115      POPE     DC212    DRUD     -2.23580      0.400000           0   0.00000       0.00000    
     20847 MEMB     115      POPE     H12R     HDA2A    0.780000E-01   1.00800           0   0.00000       0.00000    
     20848 MEMB     115      POPE     H12S     HDA2A    0.780000E-01   1.00800           0   0.00000       0.00000    
     20849 MEMB     115      POPE     C213     CD32A     2.07980       11.6110           0  -1.66000       1.30000    
     20850 MEMB     115      POPE     DC213    DRUD     -2.23580      0.400000           0   0.00000       0.00000    
     20851 MEMB     115      POPE     H13R     HDA2A    0.780000E-01   1.00800           0   0.00000       0.00000    
     20852 MEMB     115      POPE     H13S     HDA2A    0.780000E-01   1.00800           0   0.00000       0.00000    
     20853 MEMB     115      POPE     C214     CD32A     2.07980       11.6110           0  -1.66000       1.30000    
     20854 MEMB     115      POPE     DC214    DRUD     -2.23580      0.400000           0   0.00000       0.00000    
     20855 MEMB     115      POPE     H14R     HDA2A    0.780000E-01   1.00800           0   0.00000       0.00000    
     20856 MEMB     115      POPE     H14S     HDA2A    0.780000E-01   1.00800           0   0.00000       0.00000    
     20857 MEMB     115      POPE     C215     CD32A     2.07980       11.6110           0  -1.66000       1.30000    
     20858 MEMB     115      POPE     DC215    DRUD     -2.23580      0.400000           0   0.00000       0.00000    
     20859 MEMB     115      POPE     H15R     HDA2A    0.780000E-01   1.00800           0   0.00000       0.00000    
     20860 MEMB     115      POPE     H15S     HDA2A    0.780000E-01   1.00800           0   0.00000       0.00000    
     20861 MEMB     115      POPE     C216     CD32A     2.07980       11.6110           0  -1.66000       1.30000    
     20862 MEMB     115      POPE     DC216    DRUD     -2.23580      0.400000           0   0.00000       0.00000    
     20863 MEMB     115      POPE     H16R     HDA2A    0.780000E-01   1.00800           0   0.00000       0.00000    
     20864 MEMB     115      POPE     H16S     HDA2A    0.780000E-01   1.00800           0   0.00000       0.00000    
     20865 MEMB     115      POPE     C217     CD32A     2.07980       11.6110           0  -1.66000       1.30000    
     20866 MEMB     115      POPE     DC217    DRUD     -2.23580      0.400000           0   0.00000       0.00000    
     20867 MEMB     115      POPE     H17R     HDA2A    0.780000E-01   1.00800           0   0.00000       0.00000    
     20868 MEMB     115      POPE     H17S     HDA2A    0.780000E-01   1.00800           0   0.00000       0.00000    
     20869 MEMB     115      POPE     C218     CD33A     2.30820       11.6110           0  -2.05100       1.30000    
     20870 MEMB     115      POPE     DC218    DRUD     -2.48520      0.400000           0   0.00000       0.00000    
     20871 MEMB     115      POPE     H18R     HDA3A    0.590000E-01   1.00800           0   0.00000       0.00000    
     20872 MEMB     115      POPE     H18S     HDA3A    0.590000E-01   1.00800           0   0.00000       0.00000    
     20873 MEMB     115      POPE     H18T     HDA3A    0.590000E-01   1.00800           0   0.00000       0.00000    
     20874 MEMB     115      POPE     C33      CD32A     2.07980       11.6110           0  -1.66000       1.30000    
     20875 MEMB     115      POPE     DC33     DRUD     -2.23580      0.400000           0   0.00000       0.00000    
     20876 MEMB     115      POPE     H3X      HDA2A    0.780000E-01   1.00800           0   0.00000       0.00000    
     20877 MEMB     115      POPE     H3Y      HDA2A    0.780000E-01   1.00800           0   0.00000       0.00000    
     20878 MEMB     115      POPE     C34      CD32A     2.07980       11.6110           0  -1.66000       1.30000    
     20879 MEMB     115      POPE     DC34     DRUD     -2.23580      0.400000           0   0.00000       0.00000    
     20880 MEMB     115      POPE     H4X      HDA2A    0.780000E-01   1.00800           0   0.00000       0.00000    
     20881 MEMB     115      POPE     H4Y      HDA2A    0.780000E-01   1.00800           0   0.00000       0.00000    
     20882 MEMB     115      POPE     C35      CD32A     2.07980       11.6110           0  -1.66000       1.30000    
     20883 MEMB     115      POPE     DC35     DRUD     -2.23580      0.400000           0   0.00000       0.00000    
     20884 MEMB     115      POPE     H5X      HDA2A    0.780000E-01   1.00800           0   0.00000       0.00000    
     20885 MEMB     115      POPE     H5Y      HDA2A    0.780000E-01   1.00800           0   0.00000       0.00000    
     20886 MEMB     115      POPE     C36      CD32A     2.07980       11.6110           0  -1.66000       1.30000    
     20887 MEMB     115      POPE     DC36     DRUD     -2.23580      0.400000           0   0.00000       0.00000    
     20888 MEMB     115      POPE     H6X      HDA2A    0.780000E-01   1.00800           0   0.00000       0.00000    
     20889 MEMB     115      POPE     H6Y      HDA2A    0.780000E-01   1.00800           0   0.00000       0.00000    
     20890 MEMB     115      POPE     C37      CD32A     2.07980       11.6110           0  -1.66000       1.30000    
     20891 MEMB     115      POPE     DC37     DRUD     -2.23580      0.400000           0   0.00000       0.00000    
     20892 MEMB     115      POPE     H7X      HDA2A    0.780000E-01   1.00800           0   0.00000       0.00000    
     20893 MEMB     115      POPE     H7Y      HDA2A    0.780000E-01   1.00800           0   0.00000       0.00000    
     20894 MEMB     115      POPE     C38      CD32A     2.07980       11.6110           0  -1.66000       1.30000    
     20895 MEMB     115      POPE     DC38     DRUD     -2.23580      0.400000           0   0.00000       0.00000    
     20896 MEMB     115      POPE     H8X      HDA2A    0.780000E-01   1.00800           0   0.00000       0.00000    
     20897 MEMB     115      POPE     H8Y      HDA2A    0.780000E-01   1.00800           0   0.00000       0.00000    
     20898 MEMB     115      POPE     C39      CD32A     2.07980       11.6110           0  -1.66000       1.30000    
     20899 MEMB     115      POPE     DC39     DRUD     -2.23580      0.400000           0   0.00000       0.00000    
     20900 MEMB     115      POPE     H9X      HDA2A    0.780000E-01   1.00800           0   0.00000       0.00000    
     20901 MEMB     115      POPE     H9Y      HDA2A    0.780000E-01   1.00800           0   0.00000       0.00000    
     20902 MEMB     115      POPE     C310     CD32A     2.07980       11.6110           0  -1.66000       1.30000    
     20903 MEMB     115      POPE     DC310    DRUD     -2.23580      0.400000           0   0.00000       0.00000    
     20904 MEMB     115      POPE     H10X     HDA2A    0.780000E-01   1.00800           0   0.00000       0.00000    
     20905 MEMB     115      POPE     H10Y     HDA2A    0.780000E-01   1.00800           0   0.00000       0.00000    
     20906 MEMB     115      POPE     C311     CD32A     2.07980       11.6110           0  -1.66000       1.30000    
     20907 MEMB     115      POPE     DC311    DRUD     -2.23580      0.400000           0   0.00000       0.00000    
     20908 MEMB     115      POPE     H11X     HDA2A    0.780000E-01   1.00800           0   0.00000       0.00000    
     20909 MEMB     115      POPE     H11Y     HDA2A    0.780000E-01   1.00800           0   0.00000       0.00000    
     20910 MEMB     115      POPE     C312     CD32A     2.07980       11.6110           0  -1.66000       1.30000    
     20911 MEMB     115      POPE     DC312    DRUD     -2.23580      0.400000           0   0.00000       0.00000    
     20912 MEMB     115      POPE     H12X     HDA2A    0.780000E-01   1.00800           0   0.00000       0.00000    
     20913 MEMB     115      POPE     H12Y     HDA2A    0.780000E-01   1.00800           0   0.00000       0.00000    
     20914 MEMB     115      POPE     C313     CD32A     2.07980       11.6110           0  -1.66000       1.30000    
     20915 MEMB     115      POPE     DC313    DRUD     -2.23580      0.400000           0   0.00000       0.00000    
     20916 MEMB     115      POPE     H13X     HDA2A    0.780000E-01   1.00800           0   0.00000       0.00000    
     20917 MEMB     115      POPE     H13Y     HDA2A    0.780000E-01   1.00800           0   0.00000       0.00000    
     20918 MEMB     115      POPE     C314     CD32A     2.07980       11.6110           0  -1.66000       1.30000    
     20919 MEMB     115      POPE     DC314    DRUD     -2.23580      0.400000           0   0.00000       0.00000    
     20920 MEMB     115      POPE     H14X     HDA2A    0.780000E-01   1.00800           0   0.00000       0.00000    
     20921 MEMB     115      POPE     H14Y     HDA2A    0.780000E-01   1.00800           0   0.00000       0.00000    
     20922 MEMB     115      POPE     C315     CD32A     2.07980       11.6110           0  -1.66000       1.30000    
     20923 MEMB     115      POPE     DC315    DRUD     -2.23580      0.400000           0   0.00000       0.00000    
     20924 MEMB     115      POPE     H15X     HDA2A    0.780000E-01   1.00800           0   0.00000       0.00000    
     20925 MEMB     115      POPE     H15Y     HDA2A    0.780000E-01   1.00800           0   0.00000       0.00000    
     20926 MEMB     115      POPE     C316     CD33A     2.30820       11.6110           0  -2.05100       1.30000    
     20927 MEMB     115      POPE     DC316    DRUD     -2.48520      0.400000           0   0.00000       0.00000    
     20928 MEMB     115      POPE     H16X     HDA3A    0.590000E-01   1.00800           0   0.00000       0.00000    
     20929 MEMB     115      POPE     H16Y     HDA3A    0.590000E-01   1.00800           0   0.00000       0.00000    
     20930 MEMB     115      POPE     H16Z     HDA3A    0.590000E-01   1.00800           0   0.00000       0.00000    
     20931 MEMB     116      POPE     N        ND3P3A    1.62810       13.6070           0  -1.29800      0.895000    
     20932 MEMB     116      POPE     DN       DRUD     -1.97710      0.400000           0   0.00000       0.00000    
     20933 MEMB     116      POPE     HN1      HDP1B    0.340000       1.00800           0   0.00000       0.00000    
     20934 MEMB     116      POPE     HN2      HDP1B    0.340000       1.00800           0   0.00000       0.00000    
     20935 MEMB     116      POPE     HN3      HDP1B    0.340000       1.00800           0   0.00000       0.00000    
     20936 MEMB     116      POPE     C12      CD32A     2.27610       11.6110           0  -1.65600      0.895000    
     20937 MEMB     116      POPE     DC12     DRUD     -2.23310      0.400000           0   0.00000       0.00000    
     20938 MEMB     116      POPE     H12A     HDA2A    0.143000       1.00800           0   0.00000       0.00000    
     20939 MEMB     116      POPE     H12B     HDA2A    0.143000       1.00800           0   0.00000       0.00000    
     20940 MEMB     116      POPE     C11      CD32A     2.42220       11.6110           0  -1.64200      0.862000    
     20941 MEMB     116      POPE     DC11     DRUD     -2.22370      0.400000           0   0.00000       0.00000    
     20942 MEMB     116      POPE     H11A     HDA2A    0.260000E-01   1.00800           0   0.00000       0.00000    
     20943 MEMB     116      POPE     H11B     HDA2A    0.260000E-01   1.00800           0   0.00000       0.00000    
     20944 MEMB     116      POPE     P        PD1A      2.90360       30.5740           0 -0.974000       2.09800    
     20945 MEMB     116      POPE     DP       DRUD     -1.71260      0.400000           0   0.00000       0.00000    
     20946 MEMB     116      POPE     O13      OD2C2B   0.798400       15.5994           0 -0.931000       1.08300    
     20947 MEMB     116      POPE     DO13     DRUD     -1.67440      0.400000           0   0.00000       0.00000    
     20948 MEMB     116      POPE     O14      OD2C2B   0.798400       15.5994           0 -0.931000       1.08300    
     20949 MEMB     116      POPE     DO14     DRUD     -1.67440      0.400000           0   0.00000       0.00000    
     20950 MEMB     116      POPE     O11      OD30B     1.17720       15.5994           0 -0.901000      0.181000    
     20951 MEMB     116      POPE     DO11     DRUD     -1.64720      0.400000           0   0.00000       0.00000    
     20952 MEMB     116      POPE     O12      OD30B     1.17720       15.5994           0 -0.901000      0.181000    
     20953 MEMB     116      POPE     DO12     DRUD     -1.64720      0.400000           0   0.00000       0.00000    
     20954 MEMB     116      POPE     C1       CD32A     2.42220       11.6110           0  -1.64200      0.862000    
     20955 MEMB     116      POPE     DC1      DRUD     -2.22370      0.400000           0   0.00000       0.00000    
     20956 MEMB     116      POPE     HA       HDA2A    0.260000E-01   1.00800           0   0.00000       0.00000    
     20957 MEMB     116      POPE     HB       HDA2A    0.260000E-01   1.00800           0   0.00000       0.00000    
     20958 MEMB     116      POPE     C2       CD31C     2.52830       11.6110           0  -1.79700      0.410000    
     20959 MEMB     116      POPE     DC2      DRUD     -2.32630      0.400000           0   0.00000       0.00000    
     20960 MEMB     116      POPE     HS       HDA1A    0.116000       1.00800           0   0.00000       0.00000    
     20961 MEMB     116      POPE     O21      OD30CL    1.48470       15.5994           0 -0.732000      0.601000    
     20962 MEMB     116      POPE     DO21     DRUD     -1.48470      0.400000           0   0.00000       0.00000    
     20963 MEMB     116      POPE     C21      CD2O3B    2.72820       11.6110           0  -1.37000       1.74700    
     20964 MEMB     116      POPE     DC21     DRUD     -2.03120      0.400000           0   0.00000       0.00000    
     20965 MEMB     116      POPE     O22      OD2C3B    1.64990       15.5994           0 -0.904000      0.565000    
     20966 MEMB     116      POPE     DO22     DRUD     -1.64990      0.400000           0   0.00000       0.00000    
     20967 MEMB     116      POPE     C22      CD32C     2.24380       11.6110           0  -1.99300      0.410000    
     20968 MEMB     116      POPE     DC22     DRUD     -2.44980      0.400000           0   0.00000       0.00000    
     20969 MEMB     116      POPE     H2R      HDA2A    0.690000E-01   1.00800           0   0.00000       0.00000    
     20970 MEMB     116      POPE     H2S      HDA2A    0.690000E-01   1.00800           0   0.00000       0.00000    
     20971 MEMB     116      POPE     LP1A     LPD     -0.349000       0.00000          -1   0.00000       0.00000    
     20972 MEMB     116      POPE     LP1B     LPD     -0.258000       0.00000          -1   0.00000       0.00000    
     20973 MEMB     116      POPE     LPMA     LPD     -0.170000       0.00000          -1   0.00000       0.00000    
     20974 MEMB     116      POPE     LPMB     LPD     -0.170000       0.00000          -1   0.00000       0.00000    
     20975 MEMB     116      POPE     C3       CD32C     2.41230       11.6110           0  -1.79700      0.410000    
     20976 MEMB     116      POPE     DC3      DRUD     -2.32630      0.400000           0   0.00000       0.00000    
     20977 MEMB     116      POPE     HX       HDA2A    0.116000       1.00800           0   0.00000       0.00000    
     20978 MEMB     116      POPE     HY       HDA2A    0.116000       1.00800           0   0.00000       0.00000    
     20979 MEMB     116      POPE     O31      OD30CL    1.48470       15.5994           0 -0.732000      0.601000    
     20980 MEMB     116      POPE     DO31     DRUD     -1.48470      0.400000           0   0.00000       0.00000    
     20981 MEMB     116      POPE     C31      CD2O3B    2.72820       11.6110           0  -1.37000       1.74700    
     20982 MEMB     116      POPE     DC31     DRUD     -2.03120      0.400000           0   0.00000       0.00000    
     20983 MEMB     116      POPE     O32      OD2C3B    1.64990       15.5994           0 -0.904000      0.565000    
     20984 MEMB     116      POPE     DO32     DRUD     -1.64990      0.400000           0   0.00000       0.00000    
     20985 MEMB     116      POPE     C32      CD32C     2.24380       11.6110           0  -1.99300      0.410000    
     20986 MEMB     116      POPE     DC32     DRUD     -2.44980      0.400000           0   0.00000       0.00000    
     20987 MEMB     116      POPE     H2X      HDA2A    0.690000E-01   1.00800           0   0.00000       0.00000    
     20988 MEMB     116      POPE     H2Y      HDA2A    0.690000E-01   1.00800           0   0.00000       0.00000    
     20989 MEMB     116      POPE     LP1C     LPD     -0.349000       0.00000          -1   0.00000       0.00000    
     20990 MEMB     116      POPE     LP1D     LPD     -0.258000       0.00000          -1   0.00000       0.00000    
     20991 MEMB     116      POPE     LPMC     LPD     -0.170000       0.00000          -1   0.00000       0.00000    
     20992 MEMB     116      POPE     LPMD     LPD     -0.170000       0.00000          -1   0.00000       0.00000    
     20993 MEMB     116      POPE     C23      CD32A     2.07980       11.6110           0  -1.66000       1.30000    
     20994 MEMB     116      POPE     DC23     DRUD     -2.23580      0.400000           0   0.00000       0.00000    
     20995 MEMB     116      POPE     H3R      HDA2A    0.780000E-01   1.00800           0   0.00000       0.00000    
     20996 MEMB     116      POPE     H3S      HDA2A    0.780000E-01   1.00800           0   0.00000       0.00000    
     20997 MEMB     116      POPE     C24      CD32A     2.07980       11.6110           0  -1.66000       1.30000    
     20998 MEMB     116      POPE     DC24     DRUD     -2.23580      0.400000           0   0.00000       0.00000    
     20999 MEMB     116      POPE     H4R      HDA2A    0.780000E-01   1.00800           0   0.00000       0.00000    
     21000 MEMB     116      POPE     H4S      HDA2A    0.780000E-01   1.00800           0   0.00000       0.00000    
     21001 MEMB     116      POPE     C25      CD32A     2.07980       11.6110           0  -1.66000       1.30000    
     21002 MEMB     116      POPE     DC25     DRUD     -2.23580      0.400000           0   0.00000       0.00000    
     21003 MEMB     116      POPE     H5R      HDA2A    0.780000E-01   1.00800           0   0.00000       0.00000    
     21004 MEMB     116      POPE     H5S      HDA2A    0.780000E-01   1.00800           0   0.00000       0.00000    
     21005 MEMB     116      POPE     C26      CD32A     2.07980       11.6110           0  -1.66000       1.30000    
     21006 MEMB     116      POPE     DC26     DRUD     -2.23580      0.400000           0   0.00000       0.00000    
     21007 MEMB     116      POPE     H6R      HDA2A    0.780000E-01   1.00800           0   0.00000       0.00000    
     21008 MEMB     116      POPE     H6S      HDA2A    0.780000E-01   1.00800           0   0.00000       0.00000    
     21009 MEMB     116      POPE     C27      CD32A     2.07980       11.6110           0  -1.66000       1.30000    
     21010 MEMB     116      POPE     DC27     DRUD     -2.23580      0.400000           0   0.00000       0.00000    
     21011 MEMB     116      POPE     H7R      HDA2A    0.780000E-01   1.00800           0   0.00000       0.00000    
     21012 MEMB     116      POPE     H7S      HDA2A    0.780000E-01   1.00800           0   0.00000       0.00000    
     21013 MEMB     116      POPE     C28      CD32A     2.07980       11.6110           0  -1.66000       1.30000    
     21014 MEMB     116      POPE     DC28     DRUD     -2.23580      0.400000           0   0.00000       0.00000    
     21015 MEMB     116      POPE     H8R      HDA2A    0.780000E-01   1.00800           0   0.00000       0.00000    
     21016 MEMB     116      POPE     H8S      HDA2A    0.780000E-01   1.00800           0   0.00000       0.00000    
     21017 MEMB     116      POPE     C29      CD2C1A    2.33700       11.6110           0  -1.99000      0.750000    
     21018 MEMB     116      POPE     DC29     DRUD     -2.44800      0.400000           0   0.00000       0.00000    
     21019 MEMB     116      POPE     H91      HD2C1A   0.111000       1.00800           0   0.00000       0.00000    
     21020 MEMB     116      POPE     C210     CD2C1A    2.33700       11.6110           0  -1.99000      0.750000    
     21021 MEMB     116      POPE     DC210    DRUD     -2.44800      0.400000           0   0.00000       0.00000    
     21022 MEMB     116      POPE     H101     HD2C1A   0.111000       1.00800           0   0.00000       0.00000    
     21023 MEMB     116      POPE     C211     CD32A     2.07980       11.6110           0  -1.66000       1.30000    
     21024 MEMB     116      POPE     DC211    DRUD     -2.23580      0.400000           0   0.00000       0.00000    
     21025 MEMB     116      POPE     H11R     HDA2A    0.780000E-01   1.00800           0   0.00000       0.00000    
     21026 MEMB     116      POPE     H11S     HDA2A    0.780000E-01   1.00800           0   0.00000       0.00000    
     21027 MEMB     116      POPE     C212     CD32A     2.07980       11.6110           0  -1.66000       1.30000    
     21028 MEMB     116      POPE     DC212    DRUD     -2.23580      0.400000           0   0.00000       0.00000    
     21029 MEMB     116      POPE     H12R     HDA2A    0.780000E-01   1.00800           0   0.00000       0.00000    
     21030 MEMB     116      POPE     H12S     HDA2A    0.780000E-01   1.00800           0   0.00000       0.00000    
     21031 MEMB     116      POPE     C213     CD32A     2.07980       11.6110           0  -1.66000       1.30000    
     21032 MEMB     116      POPE     DC213    DRUD     -2.23580      0.400000           0   0.00000       0.00000    
     21033 MEMB     116      POPE     H13R     HDA2A    0.780000E-01   1.00800           0   0.00000       0.00000    
     21034 MEMB     116      POPE     H13S     HDA2A    0.780000E-01   1.00800           0   0.00000       0.00000    
     21035 MEMB     116      POPE     C214     CD32A     2.07980       11.6110           0  -1.66000       1.30000    
     21036 MEMB     116      POPE     DC214    DRUD     -2.23580      0.400000           0   0.00000       0.00000    
     21037 MEMB     116      POPE     H14R     HDA2A    0.780000E-01   1.00800           0   0.00000       0.00000    
     21038 MEMB     116      POPE     H14S     HDA2A    0.780000E-01   1.00800           0   0.00000       0.00000    
     21039 MEMB     116      POPE     C215     CD32A     2.07980       11.6110           0  -1.66000       1.30000    
     21040 MEMB     116      POPE     DC215    DRUD     -2.23580      0.400000           0   0.00000       0.00000    
     21041 MEMB     116      POPE     H15R     HDA2A    0.780000E-01   1.00800           0   0.00000       0.00000    
     21042 MEMB     116      POPE     H15S     HDA2A    0.780000E-01   1.00800           0   0.00000       0.00000    
     21043 MEMB     116      POPE     C216     CD32A     2.07980       11.6110           0  -1.66000       1.30000    
     21044 MEMB     116      POPE     DC216    DRUD     -2.23580      0.400000           0   0.00000       0.00000    
     21045 MEMB     116      POPE     H16R     HDA2A    0.780000E-01   1.00800           0   0.00000       0.00000    
     21046 MEMB     116      POPE     H16S     HDA2A    0.780000E-01   1.00800           0   0.00000       0.00000    
     21047 MEMB     116      POPE     C217     CD32A     2.07980       11.6110           0  -1.66000       1.30000    
     21048 MEMB     116      POPE     DC217    DRUD     -2.23580      0.400000           0   0.00000       0.00000    
     21049 MEMB     116      POPE     H17R     HDA2A    0.780000E-01   1.00800           0   0.00000       0.00000    
     21050 MEMB     116      POPE     H17S     HDA2A    0.780000E-01   1.00800           0   0.00000       0.00000    
     21051 MEMB     116      POPE     C218     CD33A     2.30820       11.6110           0  -2.05100       1.30000    
     21052 MEMB     116      POPE     DC218    DRUD     -2.48520      0.400000           0   0.00000       0.00000    
     21053 MEMB     116      POPE     H18R     HDA3A    0.590000E-01   1.00800           0   0.00000       0.00000    
     21054 MEMB     116      POPE     H18S     HDA3A    0.590000E-01   1.00800           0   0.00000       0.00000    
     21055 MEMB     116      POPE     H18T     HDA3A    0.590000E-01   1.00800           0   0.00000       0.00000    
     21056 MEMB     116      POPE     C33      CD32A     2.07980       11.6110           0  -1.66000       1.30000    
     21057 MEMB     116      POPE     DC33     DRUD     -2.23580      0.400000           0   0.00000       0.00000    
     21058 MEMB     116      POPE     H3X      HDA2A    0.780000E-01   1.00800           0   0.00000       0.00000    
     21059 MEMB     116      POPE     H3Y      HDA2A    0.780000E-01   1.00800           0   0.00000       0.00000    
     21060 MEMB     116      POPE     C34      CD32A     2.07980       11.6110           0  -1.66000       1.30000    
     21061 MEMB     116      POPE     DC34     DRUD     -2.23580      0.400000           0   0.00000       0.00000    
     21062 MEMB     116      POPE     H4X      HDA2A    0.780000E-01   1.00800           0   0.00000       0.00000    
     21063 MEMB     116      POPE     H4Y      HDA2A    0.780000E-01   1.00800           0   0.00000       0.00000    
     21064 MEMB     116      POPE     C35      CD32A     2.07980       11.6110           0  -1.66000       1.30000    
     21065 MEMB     116      POPE     DC35     DRUD     -2.23580      0.400000           0   0.00000       0.00000    
     21066 MEMB     116      POPE     H5X      HDA2A    0.780000E-01   1.00800           0   0.00000       0.00000    
     21067 MEMB     116      POPE     H5Y      HDA2A    0.780000E-01   1.00800           0   0.00000       0.00000    
     21068 MEMB     116      POPE     C36      CD32A     2.07980       11.6110           0  -1.66000       1.30000    
     21069 MEMB     116      POPE     DC36     DRUD     -2.23580      0.400000           0   0.00000       0.00000    
     21070 MEMB     116      POPE     H6X      HDA2A    0.780000E-01   1.00800           0   0.00000       0.00000    
     21071 MEMB     116      POPE     H6Y      HDA2A    0.780000E-01   1.00800           0   0.00000       0.00000    
     21072 MEMB     116      POPE     C37      CD32A     2.07980       11.6110           0  -1.66000       1.30000    
     21073 MEMB     116      POPE     DC37     DRUD     -2.23580      0.400000           0   0.00000       0.00000    
     21074 MEMB     116      POPE     H7X      HDA2A    0.780000E-01   1.00800           0   0.00000       0.00000    
     21075 MEMB     116      POPE     H7Y      HDA2A    0.780000E-01   1.00800           0   0.00000       0.00000    
     21076 MEMB     116      POPE     C38      CD32A     2.07980       11.6110           0  -1.66000       1.30000    
     21077 MEMB     116      POPE     DC38     DRUD     -2.23580      0.400000           0   0.00000       0.00000    
     21078 MEMB     116      POPE     H8X      HDA2A    0.780000E-01   1.00800           0   0.00000       0.00000    
     21079 MEMB     116      POPE     H8Y      HDA2A    0.780000E-01   1.00800           0   0.00000       0.00000    
     21080 MEMB     116      POPE     C39      CD32A     2.07980       11.6110           0  -1.66000       1.30000    
     21081 MEMB     116      POPE     DC39     DRUD     -2.23580      0.400000           0   0.00000       0.00000    
     21082 MEMB     116      POPE     H9X      HDA2A    0.780000E-01   1.00800           0   0.00000       0.00000    
     21083 MEMB     116      POPE     H9Y      HDA2A    0.780000E-01   1.00800           0   0.00000       0.00000    
     21084 MEMB     116      POPE     C310     CD32A     2.07980       11.6110           0  -1.66000       1.30000    
     21085 MEMB     116      POPE     DC310    DRUD     -2.23580      0.400000           0   0.00000       0.00000    
     21086 MEMB     116      POPE     H10X     HDA2A    0.780000E-01   1.00800           0   0.00000       0.00000    
     21087 MEMB     116      POPE     H10Y     HDA2A    0.780000E-01   1.00800           0   0.00000       0.00000    
     21088 MEMB     116      POPE     C311     CD32A     2.07980       11.6110           0  -1.66000       1.30000    
     21089 MEMB     116      POPE     DC311    DRUD     -2.23580      0.400000           0   0.00000       0.00000    
     21090 MEMB     116      POPE     H11X     HDA2A    0.780000E-01   1.00800           0   0.00000       0.00000    
     21091 MEMB     116      POPE     H11Y     HDA2A    0.780000E-01   1.00800           0   0.00000       0.00000    
     21092 MEMB     116      POPE     C312     CD32A     2.07980       11.6110           0  -1.66000       1.30000    
     21093 MEMB     116      POPE     DC312    DRUD     -2.23580      0.400000           0   0.00000       0.00000    
     21094 MEMB     116      POPE     H12X     HDA2A    0.780000E-01   1.00800           0   0.00000       0.00000    
     21095 MEMB     116      POPE     H12Y     HDA2A    0.780000E-01   1.00800           0   0.00000       0.00000    
     21096 MEMB     116      POPE     C313     CD32A     2.07980       11.6110           0  -1.66000       1.30000    
     21097 MEMB     116      POPE     DC313    DRUD     -2.23580      0.400000           0   0.00000       0.00000    
     21098 MEMB     116      POPE     H13X     HDA2A    0.780000E-01   1.00800           0   0.00000       0.00000    
     21099 MEMB     116      POPE     H13Y     HDA2A    0.780000E-01   1.00800           0   0.00000       0.00000    
     21100 MEMB     116      POPE     C314     CD32A     2.07980       11.6110           0  -1.66000       1.30000    
     21101 MEMB     116      POPE     DC314    DRUD     -2.23580      0.400000           0   0.00000       0.00000    
     21102 MEMB     116      POPE     H14X     HDA2A    0.780000E-01   1.00800           0   0.00000       0.00000    
     21103 MEMB     116      POPE     H14Y     HDA2A    0.780000E-01   1.00800           0   0.00000       0.00000    
     21104 MEMB     116      POPE     C315     CD32A     2.07980       11.6110           0  -1.66000       1.30000    
     21105 MEMB     116      POPE     DC315    DRUD     -2.23580      0.400000           0   0.00000       0.00000    
     21106 MEMB     116      POPE     H15X     HDA2A    0.780000E-01   1.00800           0   0.00000       0.00000    
     21107 MEMB     116      POPE     H15Y     HDA2A    0.780000E-01   1.00800           0   0.00000       0.00000    
     21108 MEMB     116      POPE     C316     CD33A     2.30820       11.6110           0  -2.05100       1.30000    
     21109 MEMB     116      POPE     DC316    DRUD     -2.48520      0.400000           0   0.00000       0.00000    
     21110 MEMB     116      POPE     H16X     HDA3A    0.590000E-01   1.00800           0   0.00000       0.00000    
     21111 MEMB     116      POPE     H16Y     HDA3A    0.590000E-01   1.00800           0   0.00000       0.00000    
     21112 MEMB     116      POPE     H16Z     HDA3A    0.590000E-01   1.00800           0   0.00000       0.00000    
     21113 MEMB     117      POPE     N        ND3P3A    1.62810       13.6070           0  -1.29800      0.895000    
     21114 MEMB     117      POPE     DN       DRUD     -1.97710      0.400000           0   0.00000       0.00000    
     21115 MEMB     117      POPE     HN1      HDP1B    0.340000       1.00800           0   0.00000       0.00000    
     21116 MEMB     117      POPE     HN2      HDP1B    0.340000       1.00800           0   0.00000       0.00000    
     21117 MEMB     117      POPE     HN3      HDP1B    0.340000       1.00800           0   0.00000       0.00000    
     21118 MEMB     117      POPE     C12      CD32A     2.27610       11.6110           0  -1.65600      0.895000    
     21119 MEMB     117      POPE     DC12     DRUD     -2.23310      0.400000           0   0.00000       0.00000    
     21120 MEMB     117      POPE     H12A     HDA2A    0.143000       1.00800           0   0.00000       0.00000    
     21121 MEMB     117      POPE     H12B     HDA2A    0.143000       1.00800           0   0.00000       0.00000    
     21122 MEMB     117      POPE     C11      CD32A     2.42220       11.6110           0  -1.64200      0.862000    
     21123 MEMB     117      POPE     DC11     DRUD     -2.22370      0.400000           0   0.00000       0.00000    
     21124 MEMB     117      POPE     H11A     HDA2A    0.260000E-01   1.00800           0   0.00000       0.00000    
     21125 MEMB     117      POPE     H11B     HDA2A    0.260000E-01   1.00800           0   0.00000       0.00000    
     21126 MEMB     117      POPE     P        PD1A      2.90360       30.5740           0 -0.974000       2.09800    
     21127 MEMB     117      POPE     DP       DRUD     -1.71260      0.400000           0   0.00000       0.00000    
     21128 MEMB     117      POPE     O13      OD2C2B   0.798400       15.5994           0 -0.931000       1.08300    
     21129 MEMB     117      POPE     DO13     DRUD     -1.67440      0.400000           0   0.00000       0.00000    
     21130 MEMB     117      POPE     O14      OD2C2B   0.798400       15.5994           0 -0.931000       1.08300    
     21131 MEMB     117      POPE     DO14     DRUD     -1.67440      0.400000           0   0.00000       0.00000    
     21132 MEMB     117      POPE     O11      OD30B     1.17720       15.5994           0 -0.901000      0.181000    
     21133 MEMB     117      POPE     DO11     DRUD     -1.64720      0.400000           0   0.00000       0.00000    
     21134 MEMB     117      POPE     O12      OD30B     1.17720       15.5994           0 -0.901000      0.181000    
     21135 MEMB     117      POPE     DO12     DRUD     -1.64720      0.400000           0   0.00000       0.00000    
     21136 MEMB     117      POPE     C1       CD32A     2.42220       11.6110           0  -1.64200      0.862000    
     21137 MEMB     117      POPE     DC1      DRUD     -2.22370      0.400000           0   0.00000       0.00000    
     21138 MEMB     117      POPE     HA       HDA2A    0.260000E-01   1.00800           0   0.00000       0.00000    
     21139 MEMB     117      POPE     HB       HDA2A    0.260000E-01   1.00800           0   0.00000       0.00000    
     21140 MEMB     117      POPE     C2       CD31C     2.52830       11.6110           0  -1.79700      0.410000    
     21141 MEMB     117      POPE     DC2      DRUD     -2.32630      0.400000           0   0.00000       0.00000    
     21142 MEMB     117      POPE     HS       HDA1A    0.116000       1.00800           0   0.00000       0.00000    
     21143 MEMB     117      POPE     O21      OD30CL    1.48470       15.5994           0 -0.732000      0.601000    
     21144 MEMB     117      POPE     DO21     DRUD     -1.48470      0.400000           0   0.00000       0.00000    
     21145 MEMB     117      POPE     C21      CD2O3B    2.72820       11.6110           0  -1.37000       1.74700    
     21146 MEMB     117      POPE     DC21     DRUD     -2.03120      0.400000           0   0.00000       0.00000    
     21147 MEMB     117      POPE     O22      OD2C3B    1.64990       15.5994           0 -0.904000      0.565000    
     21148 MEMB     117      POPE     DO22     DRUD     -1.64990      0.400000           0   0.00000       0.00000    
     21149 MEMB     117      POPE     C22      CD32C     2.24380       11.6110           0  -1.99300      0.410000    
     21150 MEMB     117      POPE     DC22     DRUD     -2.44980      0.400000           0   0.00000       0.00000    
     21151 MEMB     117      POPE     H2R      HDA2A    0.690000E-01   1.00800           0   0.00000       0.00000    
     21152 MEMB     117      POPE     H2S      HDA2A    0.690000E-01   1.00800           0   0.00000       0.00000    
     21153 MEMB     117      POPE     LP1A     LPD     -0.349000       0.00000          -1   0.00000       0.00000    
     21154 MEMB     117      POPE     LP1B     LPD     -0.258000       0.00000          -1   0.00000       0.00000    
     21155 MEMB     117      POPE     LPMA     LPD     -0.170000       0.00000          -1   0.00000       0.00000    
     21156 MEMB     117      POPE     LPMB     LPD     -0.170000       0.00000          -1   0.00000       0.00000    
     21157 MEMB     117      POPE     C3       CD32C     2.41230       11.6110           0  -1.79700      0.410000    
     21158 MEMB     117      POPE     DC3      DRUD     -2.32630      0.400000           0   0.00000       0.00000    
     21159 MEMB     117      POPE     HX       HDA2A    0.116000       1.00800           0   0.00000       0.00000    
     21160 MEMB     117      POPE     HY       HDA2A    0.116000       1.00800           0   0.00000       0.00000    
     21161 MEMB     117      POPE     O31      OD30CL    1.48470       15.5994           0 -0.732000      0.601000    
     21162 MEMB     117      POPE     DO31     DRUD     -1.48470      0.400000           0   0.00000       0.00000    
     21163 MEMB     117      POPE     C31      CD2O3B    2.72820       11.6110           0  -1.37000       1.74700    
     21164 MEMB     117      POPE     DC31     DRUD     -2.03120      0.400000           0   0.00000       0.00000    
     21165 MEMB     117      POPE     O32      OD2C3B    1.64990       15.5994           0 -0.904000      0.565000    
     21166 MEMB     117      POPE     DO32     DRUD     -1.64990      0.400000           0   0.00000       0.00000    
     21167 MEMB     117      POPE     C32      CD32C     2.24380       11.6110           0  -1.99300      0.410000    
     21168 MEMB     117      POPE     DC32     DRUD     -2.44980      0.400000           0   0.00000       0.00000    
     21169 MEMB     117      POPE     H2X      HDA2A    0.690000E-01   1.00800           0   0.00000       0.00000    
     21170 MEMB     117      POPE     H2Y      HDA2A    0.690000E-01   1.00800           0   0.00000       0.00000    
     21171 MEMB     117      POPE     LP1C     LPD     -0.349000       0.00000          -1   0.00000       0.00000    
     21172 MEMB     117      POPE     LP1D     LPD     -0.258000       0.00000          -1   0.00000       0.00000    
     21173 MEMB     117      POPE     LPMC     LPD     -0.170000       0.00000          -1   0.00000       0.00000    
     21174 MEMB     117      POPE     LPMD     LPD     -0.170000       0.00000          -1   0.00000       0.00000    
     21175 MEMB     117      POPE     C23      CD32A     2.07980       11.6110           0  -1.66000       1.30000    
     21176 MEMB     117      POPE     DC23     DRUD     -2.23580      0.400000           0   0.00000       0.00000    
     21177 MEMB     117      POPE     H3R      HDA2A    0.780000E-01   1.00800           0   0.00000       0.00000    
     21178 MEMB     117      POPE     H3S      HDA2A    0.780000E-01   1.00800           0   0.00000       0.00000    
     21179 MEMB     117      POPE     C24      CD32A     2.07980       11.6110           0  -1.66000       1.30000    
     21180 MEMB     117      POPE     DC24     DRUD     -2.23580      0.400000           0   0.00000       0.00000    
     21181 MEMB     117      POPE     H4R      HDA2A    0.780000E-01   1.00800           0   0.00000       0.00000    
     21182 MEMB     117      POPE     H4S      HDA2A    0.780000E-01   1.00800           0   0.00000       0.00000    
     21183 MEMB     117      POPE     C25      CD32A     2.07980       11.6110           0  -1.66000       1.30000    
     21184 MEMB     117      POPE     DC25     DRUD     -2.23580      0.400000           0   0.00000       0.00000    
     21185 MEMB     117      POPE     H5R      HDA2A    0.780000E-01   1.00800           0   0.00000       0.00000    
     21186 MEMB     117      POPE     H5S      HDA2A    0.780000E-01   1.00800           0   0.00000       0.00000    
     21187 MEMB     117      POPE     C26      CD32A     2.07980       11.6110           0  -1.66000       1.30000    
     21188 MEMB     117      POPE     DC26     DRUD     -2.23580      0.400000           0   0.00000       0.00000    
     21189 MEMB     117      POPE     H6R      HDA2A    0.780000E-01   1.00800           0   0.00000       0.00000    
     21190 MEMB     117      POPE     H6S      HDA2A    0.780000E-01   1.00800           0   0.00000       0.00000    
     21191 MEMB     117      POPE     C27      CD32A     2.07980       11.6110           0  -1.66000       1.30000    
     21192 MEMB     117      POPE     DC27     DRUD     -2.23580      0.400000           0   0.00000       0.00000    
     21193 MEMB     117      POPE     H7R      HDA2A    0.780000E-01   1.00800           0   0.00000       0.00000    
     21194 MEMB     117      POPE     H7S      HDA2A    0.780000E-01   1.00800           0   0.00000       0.00000    
     21195 MEMB     117      POPE     C28      CD32A     2.07980       11.6110           0  -1.66000       1.30000    
     21196 MEMB     117      POPE     DC28     DRUD     -2.23580      0.400000           0   0.00000       0.00000    
     21197 MEMB     117      POPE     H8R      HDA2A    0.780000E-01   1.00800           0   0.00000       0.00000    
     21198 MEMB     117      POPE     H8S      HDA2A    0.780000E-01   1.00800           0   0.00000       0.00000    
     21199 MEMB     117      POPE     C29      CD2C1A    2.33700       11.6110           0  -1.99000      0.750000    
     21200 MEMB     117      POPE     DC29     DRUD     -2.44800      0.400000           0   0.00000       0.00000    
     21201 MEMB     117      POPE     H91      HD2C1A   0.111000       1.00800           0   0.00000       0.00000    
     21202 MEMB     117      POPE     C210     CD2C1A    2.33700       11.6110           0  -1.99000      0.750000    
     21203 MEMB     117      POPE     DC210    DRUD     -2.44800      0.400000           0   0.00000       0.00000    
     21204 MEMB     117      POPE     H101     HD2C1A   0.111000       1.00800           0   0.00000       0.00000    
     21205 MEMB     117      POPE     C211     CD32A     2.07980       11.6110           0  -1.66000       1.30000    
     21206 MEMB     117      POPE     DC211    DRUD     -2.23580      0.400000           0   0.00000       0.00000    
     21207 MEMB     117      POPE     H11R     HDA2A    0.780000E-01   1.00800           0   0.00000       0.00000    
     21208 MEMB     117      POPE     H11S     HDA2A    0.780000E-01   1.00800           0   0.00000       0.00000    
     21209 MEMB     117      POPE     C212     CD32A     2.07980       11.6110           0  -1.66000       1.30000    
     21210 MEMB     117      POPE     DC212    DRUD     -2.23580      0.400000           0   0.00000       0.00000    
     21211 MEMB     117      POPE     H12R     HDA2A    0.780000E-01   1.00800           0   0.00000       0.00000    
     21212 MEMB     117      POPE     H12S     HDA2A    0.780000E-01   1.00800           0   0.00000       0.00000    
     21213 MEMB     117      POPE     C213     CD32A     2.07980       11.6110           0  -1.66000       1.30000    
     21214 MEMB     117      POPE     DC213    DRUD     -2.23580      0.400000           0   0.00000       0.00000    
     21215 MEMB     117      POPE     H13R     HDA2A    0.780000E-01   1.00800           0   0.00000       0.00000    
     21216 MEMB     117      POPE     H13S     HDA2A    0.780000E-01   1.00800           0   0.00000       0.00000    
     21217 MEMB     117      POPE     C214     CD32A     2.07980       11.6110           0  -1.66000       1.30000    
     21218 MEMB     117      POPE     DC214    DRUD     -2.23580      0.400000           0   0.00000       0.00000    
     21219 MEMB     117      POPE     H14R     HDA2A    0.780000E-01   1.00800           0   0.00000       0.00000    
     21220 MEMB     117      POPE     H14S     HDA2A    0.780000E-01   1.00800           0   0.00000       0.00000    
     21221 MEMB     117      POPE     C215     CD32A     2.07980       11.6110           0  -1.66000       1.30000    
     21222 MEMB     117      POPE     DC215    DRUD     -2.23580      0.400000           0   0.00000       0.00000    
     21223 MEMB     117      POPE     H15R     HDA2A    0.780000E-01   1.00800           0   0.00000       0.00000    
     21224 MEMB     117      POPE     H15S     HDA2A    0.780000E-01   1.00800           0   0.00000       0.00000    
     21225 MEMB     117      POPE     C216     CD32A     2.07980       11.6110           0  -1.66000       1.30000    
     21226 MEMB     117      POPE     DC216    DRUD     -2.23580      0.400000           0   0.00000       0.00000    
     21227 MEMB     117      POPE     H16R     HDA2A    0.780000E-01   1.00800           0   0.00000       0.00000    
     21228 MEMB     117      POPE     H16S     HDA2A    0.780000E-01   1.00800           0   0.00000       0.00000    
     21229 MEMB     117      POPE     C217     CD32A     2.07980       11.6110           0  -1.66000       1.30000    
     21230 MEMB     117      POPE     DC217    DRUD     -2.23580      0.400000           0   0.00000       0.00000    
     21231 MEMB     117      POPE     H17R     HDA2A    0.780000E-01   1.00800           0   0.00000       0.00000    
     21232 MEMB     117      POPE     H17S     HDA2A    0.780000E-01   1.00800           0   0.00000       0.00000    
     21233 MEMB     117      POPE     C218     CD33A     2.30820       11.6110           0  -2.05100       1.30000    
     21234 MEMB     117      POPE     DC218    DRUD     -2.48520      0.400000           0   0.00000       0.00000    
     21235 MEMB     117      POPE     H18R     HDA3A    0.590000E-01   1.00800           0   0.00000       0.00000    
     21236 MEMB     117      POPE     H18S     HDA3A    0.590000E-01   1.00800           0   0.00000       0.00000    
     21237 MEMB     117      POPE     H18T     HDA3A    0.590000E-01   1.00800           0   0.00000       0.00000    
     21238 MEMB     117      POPE     C33      CD32A     2.07980       11.6110           0  -1.66000       1.30000    
     21239 MEMB     117      POPE     DC33     DRUD     -2.23580      0.400000           0   0.00000       0.00000    
     21240 MEMB     117      POPE     H3X      HDA2A    0.780000E-01   1.00800           0   0.00000       0.00000    
     21241 MEMB     117      POPE     H3Y      HDA2A    0.780000E-01   1.00800           0   0.00000       0.00000    
     21242 MEMB     117      POPE     C34      CD32A     2.07980       11.6110           0  -1.66000       1.30000    
     21243 MEMB     117      POPE     DC34     DRUD     -2.23580      0.400000           0   0.00000       0.00000    
     21244 MEMB     117      POPE     H4X      HDA2A    0.780000E-01   1.00800           0   0.00000       0.00000    
     21245 MEMB     117      POPE     H4Y      HDA2A    0.780000E-01   1.00800           0   0.00000       0.00000    
     21246 MEMB     117      POPE     C35      CD32A     2.07980       11.6110           0  -1.66000       1.30000    
     21247 MEMB     117      POPE     DC35     DRUD     -2.23580      0.400000           0   0.00000       0.00000    
     21248 MEMB     117      POPE     H5X      HDA2A    0.780000E-01   1.00800           0   0.00000       0.00000    
     21249 MEMB     117      POPE     H5Y      HDA2A    0.780000E-01   1.00800           0   0.00000       0.00000    
     21250 MEMB     117      POPE     C36      CD32A     2.07980       11.6110           0  -1.66000       1.30000    
     21251 MEMB     117      POPE     DC36     DRUD     -2.23580      0.400000           0   0.00000       0.00000    
     21252 MEMB     117      POPE     H6X      HDA2A    0.780000E-01   1.00800           0   0.00000       0.00000    
     21253 MEMB     117      POPE     H6Y      HDA2A    0.780000E-01   1.00800           0   0.00000       0.00000    
     21254 MEMB     117      POPE     C37      CD32A     2.07980       11.6110           0  -1.66000       1.30000    
     21255 MEMB     117      POPE     DC37     DRUD     -2.23580      0.400000           0   0.00000       0.00000    
     21256 MEMB     117      POPE     H7X      HDA2A    0.780000E-01   1.00800           0   0.00000       0.00000    
     21257 MEMB     117      POPE     H7Y      HDA2A    0.780000E-01   1.00800           0   0.00000       0.00000    
     21258 MEMB     117      POPE     C38      CD32A     2.07980       11.6110           0  -1.66000       1.30000    
     21259 MEMB     117      POPE     DC38     DRUD     -2.23580      0.400000           0   0.00000       0.00000    
     21260 MEMB     117      POPE     H8X      HDA2A    0.780000E-01   1.00800           0   0.00000       0.00000    
     21261 MEMB     117      POPE     H8Y      HDA2A    0.780000E-01   1.00800           0   0.00000       0.00000    
     21262 MEMB     117      POPE     C39      CD32A     2.07980       11.6110           0  -1.66000       1.30000    
     21263 MEMB     117      POPE     DC39     DRUD     -2.23580      0.400000           0   0.00000       0.00000    
     21264 MEMB     117      POPE     H9X      HDA2A    0.780000E-01   1.00800           0   0.00000       0.00000    
     21265 MEMB     117      POPE     H9Y      HDA2A    0.780000E-01   1.00800           0   0.00000       0.00000    
     21266 MEMB     117      POPE     C310     CD32A     2.07980       11.6110           0  -1.66000       1.30000    
     21267 MEMB     117      POPE     DC310    DRUD     -2.23580      0.400000           0   0.00000       0.00000    
     21268 MEMB     117      POPE     H10X     HDA2A    0.780000E-01   1.00800           0   0.00000       0.00000    
     21269 MEMB     117      POPE     H10Y     HDA2A    0.780000E-01   1.00800           0   0.00000       0.00000    
     21270 MEMB     117      POPE     C311     CD32A     2.07980       11.6110           0  -1.66000       1.30000    
     21271 MEMB     117      POPE     DC311    DRUD     -2.23580      0.400000           0   0.00000       0.00000    
     21272 MEMB     117      POPE     H11X     HDA2A    0.780000E-01   1.00800           0   0.00000       0.00000    
     21273 MEMB     117      POPE     H11Y     HDA2A    0.780000E-01   1.00800           0   0.00000       0.00000    
     21274 MEMB     117      POPE     C312     CD32A     2.07980       11.6110           0  -1.66000       1.30000    
     21275 MEMB     117      POPE     DC312    DRUD     -2.23580      0.400000           0   0.00000       0.00000    
     21276 MEMB     117      POPE     H12X     HDA2A    0.780000E-01   1.00800           0   0.00000       0.00000    
     21277 MEMB     117      POPE     H12Y     HDA2A    0.780000E-01   1.00800           0   0.00000       0.00000    
     21278 MEMB     117      POPE     C313     CD32A     2.07980       11.6110           0  -1.66000       1.30000    
     21279 MEMB     117      POPE     DC313    DRUD     -2.23580      0.400000           0   0.00000       0.00000    
     21280 MEMB     117      POPE     H13X     HDA2A    0.780000E-01   1.00800           0   0.00000       0.00000    
     21281 MEMB     117      POPE     H13Y     HDA2A    0.780000E-01   1.00800           0   0.00000       0.00000    
     21282 MEMB     117      POPE     C314     CD32A     2.07980       11.6110           0  -1.66000       1.30000    
     21283 MEMB     117      POPE     DC314    DRUD     -2.23580      0.400000           0   0.00000       0.00000    
     21284 MEMB     117      POPE     H14X     HDA2A    0.780000E-01   1.00800           0   0.00000       0.00000    
     21285 MEMB     117      POPE     H14Y     HDA2A    0.780000E-01   1.00800           0   0.00000       0.00000    
     21286 MEMB     117      POPE     C315     CD32A     2.07980       11.6110           0  -1.66000       1.30000    
     21287 MEMB     117      POPE     DC315    DRUD     -2.23580      0.400000           0   0.00000       0.00000    
     21288 MEMB     117      POPE     H15X     HDA2A    0.780000E-01   1.00800           0   0.00000       0.00000    
     21289 MEMB     117      POPE     H15Y     HDA2A    0.780000E-01   1.00800           0   0.00000       0.00000    
     21290 MEMB     117      POPE     C316     CD33A     2.30820       11.6110           0  -2.05100       1.30000    
     21291 MEMB     117      POPE     DC316    DRUD     -2.48520      0.400000           0   0.00000       0.00000    
     21292 MEMB     117      POPE     H16X     HDA3A    0.590000E-01   1.00800           0   0.00000       0.00000    
     21293 MEMB     117      POPE     H16Y     HDA3A    0.590000E-01   1.00800           0   0.00000       0.00000    
     21294 MEMB     117      POPE     H16Z     HDA3A    0.590000E-01   1.00800           0   0.00000       0.00000    
     21295 MEMB     118      POPE     N        ND3P3A    1.62810       13.6070           0  -1.29800      0.895000    
     21296 MEMB     118      POPE     DN       DRUD     -1.97710      0.400000           0   0.00000       0.00000    
     21297 MEMB     118      POPE     HN1      HDP1B    0.340000       1.00800           0   0.00000       0.00000    
     21298 MEMB     118      POPE     HN2      HDP1B    0.340000       1.00800           0   0.00000       0.00000    
     21299 MEMB     118      POPE     HN3      HDP1B    0.340000       1.00800           0   0.00000       0.00000    
     21300 MEMB     118      POPE     C12      CD32A     2.27610       11.6110           0  -1.65600      0.895000    
     21301 MEMB     118      POPE     DC12     DRUD     -2.23310      0.400000           0   0.00000       0.00000    
     21302 MEMB     118      POPE     H12A     HDA2A    0.143000       1.00800           0   0.00000       0.00000    
     21303 MEMB     118      POPE     H12B     HDA2A    0.143000       1.00800           0   0.00000       0.00000    
     21304 MEMB     118      POPE     C11      CD32A     2.42220       11.6110           0  -1.64200      0.862000    
     21305 MEMB     118      POPE     DC11     DRUD     -2.22370      0.400000           0   0.00000       0.00000    
     21306 MEMB     118      POPE     H11A     HDA2A    0.260000E-01   1.00800           0   0.00000       0.00000    
     21307 MEMB     118      POPE     H11B     HDA2A    0.260000E-01   1.00800           0   0.00000       0.00000    
     21308 MEMB     118      POPE     P        PD1A      2.90360       30.5740           0 -0.974000       2.09800    
     21309 MEMB     118      POPE     DP       DRUD     -1.71260      0.400000           0   0.00000       0.00000    
     21310 MEMB     118      POPE     O13      OD2C2B   0.798400       15.5994           0 -0.931000       1.08300    
     21311 MEMB     118      POPE     DO13     DRUD     -1.67440      0.400000           0   0.00000       0.00000    
     21312 MEMB     118      POPE     O14      OD2C2B   0.798400       15.5994           0 -0.931000       1.08300    
     21313 MEMB     118      POPE     DO14     DRUD     -1.67440      0.400000           0   0.00000       0.00000    
     21314 MEMB     118      POPE     O11      OD30B     1.17720       15.5994           0 -0.901000      0.181000    
     21315 MEMB     118      POPE     DO11     DRUD     -1.64720      0.400000           0   0.00000       0.00000    
     21316 MEMB     118      POPE     O12      OD30B     1.17720       15.5994           0 -0.901000      0.181000    
     21317 MEMB     118      POPE     DO12     DRUD     -1.64720      0.400000           0   0.00000       0.00000    
     21318 MEMB     118      POPE     C1       CD32A     2.42220       11.6110           0  -1.64200      0.862000    
     21319 MEMB     118      POPE     DC1      DRUD     -2.22370      0.400000           0   0.00000       0.00000    
     21320 MEMB     118      POPE     HA       HDA2A    0.260000E-01   1.00800           0   0.00000       0.00000    
     21321 MEMB     118      POPE     HB       HDA2A    0.260000E-01   1.00800           0   0.00000       0.00000    
     21322 MEMB     118      POPE     C2       CD31C     2.52830       11.6110           0  -1.79700      0.410000    
     21323 MEMB     118      POPE     DC2      DRUD     -2.32630      0.400000           0   0.00000       0.00000    
     21324 MEMB     118      POPE     HS       HDA1A    0.116000       1.00800           0   0.00000       0.00000    
     21325 MEMB     118      POPE     O21      OD30CL    1.48470       15.5994           0 -0.732000      0.601000    
     21326 MEMB     118      POPE     DO21     DRUD     -1.48470      0.400000           0   0.00000       0.00000    
     21327 MEMB     118      POPE     C21      CD2O3B    2.72820       11.6110           0  -1.37000       1.74700    
     21328 MEMB     118      POPE     DC21     DRUD     -2.03120      0.400000           0   0.00000       0.00000    
     21329 MEMB     118      POPE     O22      OD2C3B    1.64990       15.5994           0 -0.904000      0.565000    
     21330 MEMB     118      POPE     DO22     DRUD     -1.64990      0.400000           0   0.00000       0.00000    
     21331 MEMB     118      POPE     C22      CD32C     2.24380       11.6110           0  -1.99300      0.410000    
     21332 MEMB     118      POPE     DC22     DRUD     -2.44980      0.400000           0   0.00000       0.00000    
     21333 MEMB     118      POPE     H2R      HDA2A    0.690000E-01   1.00800           0   0.00000       0.00000    
     21334 MEMB     118      POPE     H2S      HDA2A    0.690000E-01   1.00800           0   0.00000       0.00000    
     21335 MEMB     118      POPE     LP1A     LPD     -0.349000       0.00000          -1   0.00000       0.00000    
     21336 MEMB     118      POPE     LP1B     LPD     -0.258000       0.00000          -1   0.00000       0.00000    
     21337 MEMB     118      POPE     LPMA     LPD     -0.170000       0.00000          -1   0.00000       0.00000    
     21338 MEMB     118      POPE     LPMB     LPD     -0.170000       0.00000          -1   0.00000       0.00000    
     21339 MEMB     118      POPE     C3       CD32C     2.41230       11.6110           0  -1.79700      0.410000    
     21340 MEMB     118      POPE     DC3      DRUD     -2.32630      0.400000           0   0.00000       0.00000    
     21341 MEMB     118      POPE     HX       HDA2A    0.116000       1.00800           0   0.00000       0.00000    
     21342 MEMB     118      POPE     HY       HDA2A    0.116000       1.00800           0   0.00000       0.00000    
     21343 MEMB     118      POPE     O31      OD30CL    1.48470       15.5994           0 -0.732000      0.601000    
     21344 MEMB     118      POPE     DO31     DRUD     -1.48470      0.400000           0   0.00000       0.00000    
     21345 MEMB     118      POPE     C31      CD2O3B    2.72820       11.6110           0  -1.37000       1.74700    
     21346 MEMB     118      POPE     DC31     DRUD     -2.03120      0.400000           0   0.00000       0.00000    
     21347 MEMB     118      POPE     O32      OD2C3B    1.64990       15.5994           0 -0.904000      0.565000    
     21348 MEMB     118      POPE     DO32     DRUD     -1.64990      0.400000           0   0.00000       0.00000    
     21349 MEMB     118      POPE     C32      CD32C     2.24380       11.6110           0  -1.99300      0.410000    
     21350 MEMB     118      POPE     DC32     DRUD     -2.44980      0.400000           0   0.00000       0.00000    
     21351 MEMB     118      POPE     H2X      HDA2A    0.690000E-01   1.00800           0   0.00000       0.00000    
     21352 MEMB     118      POPE     H2Y      HDA2A    0.690000E-01   1.00800           0   0.00000       0.00000    
     21353 MEMB     118      POPE     LP1C     LPD     -0.349000       0.00000          -1   0.00000       0.00000    
     21354 MEMB     118      POPE     LP1D     LPD     -0.258000       0.00000          -1   0.00000       0.00000    
     21355 MEMB     118      POPE     LPMC     LPD     -0.170000       0.00000          -1   0.00000       0.00000    
     21356 MEMB     118      POPE     LPMD     LPD     -0.170000       0.00000          -1   0.00000       0.00000    
     21357 MEMB     118      POPE     C23      CD32A     2.07980       11.6110           0  -1.66000       1.30000    
     21358 MEMB     118      POPE     DC23     DRUD     -2.23580      0.400000           0   0.00000       0.00000    
     21359 MEMB     118      POPE     H3R      HDA2A    0.780000E-01   1.00800           0   0.00000       0.00000    
     21360 MEMB     118      POPE     H3S      HDA2A    0.780000E-01   1.00800           0   0.00000       0.00000    
     21361 MEMB     118      POPE     C24      CD32A     2.07980       11.6110           0  -1.66000       1.30000    
     21362 MEMB     118      POPE     DC24     DRUD     -2.23580      0.400000           0   0.00000       0.00000    
     21363 MEMB     118      POPE     H4R      HDA2A    0.780000E-01   1.00800           0   0.00000       0.00000    
     21364 MEMB     118      POPE     H4S      HDA2A    0.780000E-01   1.00800           0   0.00000       0.00000    
     21365 MEMB     118      POPE     C25      CD32A     2.07980       11.6110           0  -1.66000       1.30000    
     21366 MEMB     118      POPE     DC25     DRUD     -2.23580      0.400000           0   0.00000       0.00000    
     21367 MEMB     118      POPE     H5R      HDA2A    0.780000E-01   1.00800           0   0.00000       0.00000    
     21368 MEMB     118      POPE     H5S      HDA2A    0.780000E-01   1.00800           0   0.00000       0.00000    
     21369 MEMB     118      POPE     C26      CD32A     2.07980       11.6110           0  -1.66000       1.30000    
     21370 MEMB     118      POPE     DC26     DRUD     -2.23580      0.400000           0   0.00000       0.00000    
     21371 MEMB     118      POPE     H6R      HDA2A    0.780000E-01   1.00800           0   0.00000       0.00000    
     21372 MEMB     118      POPE     H6S      HDA2A    0.780000E-01   1.00800           0   0.00000       0.00000    
     21373 MEMB     118      POPE     C27      CD32A     2.07980       11.6110           0  -1.66000       1.30000    
     21374 MEMB     118      POPE     DC27     DRUD     -2.23580      0.400000           0   0.00000       0.00000    
     21375 MEMB     118      POPE     H7R      HDA2A    0.780000E-01   1.00800           0   0.00000       0.00000    
     21376 MEMB     118      POPE     H7S      HDA2A    0.780000E-01   1.00800           0   0.00000       0.00000    
     21377 MEMB     118      POPE     C28      CD32A     2.07980       11.6110           0  -1.66000       1.30000    
     21378 MEMB     118      POPE     DC28     DRUD     -2.23580      0.400000           0   0.00000       0.00000    
     21379 MEMB     118      POPE     H8R      HDA2A    0.780000E-01   1.00800           0   0.00000       0.00000    
     21380 MEMB     118      POPE     H8S      HDA2A    0.780000E-01   1.00800           0   0.00000       0.00000    
     21381 MEMB     118      POPE     C29      CD2C1A    2.33700       11.6110           0  -1.99000      0.750000    
     21382 MEMB     118      POPE     DC29     DRUD     -2.44800      0.400000           0   0.00000       0.00000    
     21383 MEMB     118      POPE     H91      HD2C1A   0.111000       1.00800           0   0.00000       0.00000    
     21384 MEMB     118      POPE     C210     CD2C1A    2.33700       11.6110           0  -1.99000      0.750000    
     21385 MEMB     118      POPE     DC210    DRUD     -2.44800      0.400000           0   0.00000       0.00000    
     21386 MEMB     118      POPE     H101     HD2C1A   0.111000       1.00800           0   0.00000       0.00000    
     21387 MEMB     118      POPE     C211     CD32A     2.07980       11.6110           0  -1.66000       1.30000    
     21388 MEMB     118      POPE     DC211    DRUD     -2.23580      0.400000           0   0.00000       0.00000    
     21389 MEMB     118      POPE     H11R     HDA2A    0.780000E-01   1.00800           0   0.00000       0.00000    
     21390 MEMB     118      POPE     H11S     HDA2A    0.780000E-01   1.00800           0   0.00000       0.00000    
     21391 MEMB     118      POPE     C212     CD32A     2.07980       11.6110           0  -1.66000       1.30000    
     21392 MEMB     118      POPE     DC212    DRUD     -2.23580      0.400000           0   0.00000       0.00000    
     21393 MEMB     118      POPE     H12R     HDA2A    0.780000E-01   1.00800           0   0.00000       0.00000    
     21394 MEMB     118      POPE     H12S     HDA2A    0.780000E-01   1.00800           0   0.00000       0.00000    
     21395 MEMB     118      POPE     C213     CD32A     2.07980       11.6110           0  -1.66000       1.30000    
     21396 MEMB     118      POPE     DC213    DRUD     -2.23580      0.400000           0   0.00000       0.00000    
     21397 MEMB     118      POPE     H13R     HDA2A    0.780000E-01   1.00800           0   0.00000       0.00000    
     21398 MEMB     118      POPE     H13S     HDA2A    0.780000E-01   1.00800           0   0.00000       0.00000    
     21399 MEMB     118      POPE     C214     CD32A     2.07980       11.6110           0  -1.66000       1.30000    
     21400 MEMB     118      POPE     DC214    DRUD     -2.23580      0.400000           0   0.00000       0.00000    
     21401 MEMB     118      POPE     H14R     HDA2A    0.780000E-01   1.00800           0   0.00000       0.00000    
     21402 MEMB     118      POPE     H14S     HDA2A    0.780000E-01   1.00800           0   0.00000       0.00000    
     21403 MEMB     118      POPE     C215     CD32A     2.07980       11.6110           0  -1.66000       1.30000    
     21404 MEMB     118      POPE     DC215    DRUD     -2.23580      0.400000           0   0.00000       0.00000    
     21405 MEMB     118      POPE     H15R     HDA2A    0.780000E-01   1.00800           0   0.00000       0.00000    
     21406 MEMB     118      POPE     H15S     HDA2A    0.780000E-01   1.00800           0   0.00000       0.00000    
     21407 MEMB     118      POPE     C216     CD32A     2.07980       11.6110           0  -1.66000       1.30000    
     21408 MEMB     118      POPE     DC216    DRUD     -2.23580      0.400000           0   0.00000       0.00000    
     21409 MEMB     118      POPE     H16R     HDA2A    0.780000E-01   1.00800           0   0.00000       0.00000    
     21410 MEMB     118      POPE     H16S     HDA2A    0.780000E-01   1.00800           0   0.00000       0.00000    
     21411 MEMB     118      POPE     C217     CD32A     2.07980       11.6110           0  -1.66000       1.30000    
     21412 MEMB     118      POPE     DC217    DRUD     -2.23580      0.400000           0   0.00000       0.00000    
     21413 MEMB     118      POPE     H17R     HDA2A    0.780000E-01   1.00800           0   0.00000       0.00000    
     21414 MEMB     118      POPE     H17S     HDA2A    0.780000E-01   1.00800           0   0.00000       0.00000    
     21415 MEMB     118      POPE     C218     CD33A     2.30820       11.6110           0  -2.05100       1.30000    
     21416 MEMB     118      POPE     DC218    DRUD     -2.48520      0.400000           0   0.00000       0.00000    
     21417 MEMB     118      POPE     H18R     HDA3A    0.590000E-01   1.00800           0   0.00000       0.00000    
     21418 MEMB     118      POPE     H18S     HDA3A    0.590000E-01   1.00800           0   0.00000       0.00000    
     21419 MEMB     118      POPE     H18T     HDA3A    0.590000E-01   1.00800           0   0.00000       0.00000    
     21420 MEMB     118      POPE     C33      CD32A     2.07980       11.6110           0  -1.66000       1.30000    
     21421 MEMB     118      POPE     DC33     DRUD     -2.23580      0.400000           0   0.00000       0.00000    
     21422 MEMB     118      POPE     H3X      HDA2A    0.780000E-01   1.00800           0   0.00000       0.00000    
     21423 MEMB     118      POPE     H3Y      HDA2A    0.780000E-01   1.00800           0   0.00000       0.00000    
     21424 MEMB     118      POPE     C34      CD32A     2.07980       11.6110           0  -1.66000       1.30000    
     21425 MEMB     118      POPE     DC34     DRUD     -2.23580      0.400000           0   0.00000       0.00000    
     21426 MEMB     118      POPE     H4X      HDA2A    0.780000E-01   1.00800           0   0.00000       0.00000    
     21427 MEMB     118      POPE     H4Y      HDA2A    0.780000E-01   1.00800           0   0.00000       0.00000    
     21428 MEMB     118      POPE     C35      CD32A     2.07980       11.6110           0  -1.66000       1.30000    
     21429 MEMB     118      POPE     DC35     DRUD     -2.23580      0.400000           0   0.00000       0.00000    
     21430 MEMB     118      POPE     H5X      HDA2A    0.780000E-01   1.00800           0   0.00000       0.00000    
     21431 MEMB     118      POPE     H5Y      HDA2A    0.780000E-01   1.00800           0   0.00000       0.00000    
     21432 MEMB     118      POPE     C36      CD32A     2.07980       11.6110           0  -1.66000       1.30000    
     21433 MEMB     118      POPE     DC36     DRUD     -2.23580      0.400000           0   0.00000       0.00000    
     21434 MEMB     118      POPE     H6X      HDA2A    0.780000E-01   1.00800           0   0.00000       0.00000    
     21435 MEMB     118      POPE     H6Y      HDA2A    0.780000E-01   1.00800           0   0.00000       0.00000    
     21436 MEMB     118      POPE     C37      CD32A     2.07980       11.6110           0  -1.66000       1.30000    
     21437 MEMB     118      POPE     DC37     DRUD     -2.23580      0.400000           0   0.00000       0.00000    
     21438 MEMB     118      POPE     H7X      HDA2A    0.780000E-01   1.00800           0   0.00000       0.00000    
     21439 MEMB     118      POPE     H7Y      HDA2A    0.780000E-01   1.00800           0   0.00000       0.00000    
     21440 MEMB     118      POPE     C38      CD32A     2.07980       11.6110           0  -1.66000       1.30000    
     21441 MEMB     118      POPE     DC38     DRUD     -2.23580      0.400000           0   0.00000       0.00000    
     21442 MEMB     118      POPE     H8X      HDA2A    0.780000E-01   1.00800           0   0.00000       0.00000    
     21443 MEMB     118      POPE     H8Y      HDA2A    0.780000E-01   1.00800           0   0.00000       0.00000    
     21444 MEMB     118      POPE     C39      CD32A     2.07980       11.6110           0  -1.66000       1.30000    
     21445 MEMB     118      POPE     DC39     DRUD     -2.23580      0.400000           0   0.00000       0.00000    
     21446 MEMB     118      POPE     H9X      HDA2A    0.780000E-01   1.00800           0   0.00000       0.00000    
     21447 MEMB     118      POPE     H9Y      HDA2A    0.780000E-01   1.00800           0   0.00000       0.00000    
     21448 MEMB     118      POPE     C310     CD32A     2.07980       11.6110           0  -1.66000       1.30000    
     21449 MEMB     118      POPE     DC310    DRUD     -2.23580      0.400000           0   0.00000       0.00000    
     21450 MEMB     118      POPE     H10X     HDA2A    0.780000E-01   1.00800           0   0.00000       0.00000    
     21451 MEMB     118      POPE     H10Y     HDA2A    0.780000E-01   1.00800           0   0.00000       0.00000    
     21452 MEMB     118      POPE     C311     CD32A     2.07980       11.6110           0  -1.66000       1.30000    
     21453 MEMB     118      POPE     DC311    DRUD     -2.23580      0.400000           0   0.00000       0.00000    
     21454 MEMB     118      POPE     H11X     HDA2A    0.780000E-01   1.00800           0   0.00000       0.00000    
     21455 MEMB     118      POPE     H11Y     HDA2A    0.780000E-01   1.00800           0   0.00000       0.00000    
     21456 MEMB     118      POPE     C312     CD32A     2.07980       11.6110           0  -1.66000       1.30000    
     21457 MEMB     118      POPE     DC312    DRUD     -2.23580      0.400000           0   0.00000       0.00000    
     21458 MEMB     118      POPE     H12X     HDA2A    0.780000E-01   1.00800           0   0.00000       0.00000    
     21459 MEMB     118      POPE     H12Y     HDA2A    0.780000E-01   1.00800           0   0.00000       0.00000    
     21460 MEMB     118      POPE     C313     CD32A     2.07980       11.6110           0  -1.66000       1.30000    
     21461 MEMB     118      POPE     DC313    DRUD     -2.23580      0.400000           0   0.00000       0.00000    
     21462 MEMB     118      POPE     H13X     HDA2A    0.780000E-01   1.00800           0   0.00000       0.00000    
     21463 MEMB     118      POPE     H13Y     HDA2A    0.780000E-01   1.00800           0   0.00000       0.00000    
     21464 MEMB     118      POPE     C314     CD32A     2.07980       11.6110           0  -1.66000       1.30000    
     21465 MEMB     118      POPE     DC314    DRUD     -2.23580      0.400000           0   0.00000       0.00000    
     21466 MEMB     118      POPE     H14X     HDA2A    0.780000E-01   1.00800           0   0.00000       0.00000    
     21467 MEMB     118      POPE     H14Y     HDA2A    0.780000E-01   1.00800           0   0.00000       0.00000    
     21468 MEMB     118      POPE     C315     CD32A     2.07980       11.6110           0  -1.66000       1.30000    
     21469 MEMB     118      POPE     DC315    DRUD     -2.23580      0.400000           0   0.00000       0.00000    
     21470 MEMB     118      POPE     H15X     HDA2A    0.780000E-01   1.00800           0   0.00000       0.00000    
     21471 MEMB     118      POPE     H15Y     HDA2A    0.780000E-01   1.00800           0   0.00000       0.00000    
     21472 MEMB     118      POPE     C316     CD33A     2.30820       11.6110           0  -2.05100       1.30000    
     21473 MEMB     118      POPE     DC316    DRUD     -2.48520      0.400000           0   0.00000       0.00000    
     21474 MEMB     118      POPE     H16X     HDA3A    0.590000E-01   1.00800           0   0.00000       0.00000    
     21475 MEMB     118      POPE     H16Y     HDA3A    0.590000E-01   1.00800           0   0.00000       0.00000    
     21476 MEMB     118      POPE     H16Z     HDA3A    0.590000E-01   1.00800           0   0.00000       0.00000    
     21477 MEMB     119      POPE     N        ND3P3A    1.62810       13.6070           0  -1.29800      0.895000    
     21478 MEMB     119      POPE     DN       DRUD     -1.97710      0.400000           0   0.00000       0.00000    
     21479 MEMB     119      POPE     HN1      HDP1B    0.340000       1.00800           0   0.00000       0.00000    
     21480 MEMB     119      POPE     HN2      HDP1B    0.340000       1.00800           0   0.00000       0.00000    
     21481 MEMB     119      POPE     HN3      HDP1B    0.340000       1.00800           0   0.00000       0.00000    
     21482 MEMB     119      POPE     C12      CD32A     2.27610       11.6110           0  -1.65600      0.895000    
     21483 MEMB     119      POPE     DC12     DRUD     -2.23310      0.400000           0   0.00000       0.00000    
     21484 MEMB     119      POPE     H12A     HDA2A    0.143000       1.00800           0   0.00000       0.00000    
     21485 MEMB     119      POPE     H12B     HDA2A    0.143000       1.00800           0   0.00000       0.00000    
     21486 MEMB     119      POPE     C11      CD32A     2.42220       11.6110           0  -1.64200      0.862000    
     21487 MEMB     119      POPE     DC11     DRUD     -2.22370      0.400000           0   0.00000       0.00000    
     21488 MEMB     119      POPE     H11A     HDA2A    0.260000E-01   1.00800           0   0.00000       0.00000    
     21489 MEMB     119      POPE     H11B     HDA2A    0.260000E-01   1.00800           0   0.00000       0.00000    
     21490 MEMB     119      POPE     P        PD1A      2.90360       30.5740           0 -0.974000       2.09800    
     21491 MEMB     119      POPE     DP       DRUD     -1.71260      0.400000           0   0.00000       0.00000    
     21492 MEMB     119      POPE     O13      OD2C2B   0.798400       15.5994           0 -0.931000       1.08300    
     21493 MEMB     119      POPE     DO13     DRUD     -1.67440      0.400000           0   0.00000       0.00000    
     21494 MEMB     119      POPE     O14      OD2C2B   0.798400       15.5994           0 -0.931000       1.08300    
     21495 MEMB     119      POPE     DO14     DRUD     -1.67440      0.400000           0   0.00000       0.00000    
     21496 MEMB     119      POPE     O11      OD30B     1.17720       15.5994           0 -0.901000      0.181000    
     21497 MEMB     119      POPE     DO11     DRUD     -1.64720      0.400000           0   0.00000       0.00000    
     21498 MEMB     119      POPE     O12      OD30B     1.17720       15.5994           0 -0.901000      0.181000    
     21499 MEMB     119      POPE     DO12     DRUD     -1.64720      0.400000           0   0.00000       0.00000    
     21500 MEMB     119      POPE     C1       CD32A     2.42220       11.6110           0  -1.64200      0.862000    
     21501 MEMB     119      POPE     DC1      DRUD     -2.22370      0.400000           0   0.00000       0.00000    
     21502 MEMB     119      POPE     HA       HDA2A    0.260000E-01   1.00800           0   0.00000       0.00000    
     21503 MEMB     119      POPE     HB       HDA2A    0.260000E-01   1.00800           0   0.00000       0.00000    
     21504 MEMB     119      POPE     C2       CD31C     2.52830       11.6110           0  -1.79700      0.410000    
     21505 MEMB     119      POPE     DC2      DRUD     -2.32630      0.400000           0   0.00000       0.00000    
     21506 MEMB     119      POPE     HS       HDA1A    0.116000       1.00800           0   0.00000       0.00000    
     21507 MEMB     119      POPE     O21      OD30CL    1.48470       15.5994           0 -0.732000      0.601000    
     21508 MEMB     119      POPE     DO21     DRUD     -1.48470      0.400000           0   0.00000       0.00000    
     21509 MEMB     119      POPE     C21      CD2O3B    2.72820       11.6110           0  -1.37000       1.74700    
     21510 MEMB     119      POPE     DC21     DRUD     -2.03120      0.400000           0   0.00000       0.00000    
     21511 MEMB     119      POPE     O22      OD2C3B    1.64990       15.5994           0 -0.904000      0.565000    
     21512 MEMB     119      POPE     DO22     DRUD     -1.64990      0.400000           0   0.00000       0.00000    
     21513 MEMB     119      POPE     C22      CD32C     2.24380       11.6110           0  -1.99300      0.410000    
     21514 MEMB     119      POPE     DC22     DRUD     -2.44980      0.400000           0   0.00000       0.00000    
     21515 MEMB     119      POPE     H2R      HDA2A    0.690000E-01   1.00800           0   0.00000       0.00000    
     21516 MEMB     119      POPE     H2S      HDA2A    0.690000E-01   1.00800           0   0.00000       0.00000    
     21517 MEMB     119      POPE     LP1A     LPD     -0.349000       0.00000          -1   0.00000       0.00000    
     21518 MEMB     119      POPE     LP1B     LPD     -0.258000       0.00000          -1   0.00000       0.00000    
     21519 MEMB     119      POPE     LPMA     LPD     -0.170000       0.00000          -1   0.00000       0.00000    
     21520 MEMB     119      POPE     LPMB     LPD     -0.170000       0.00000          -1   0.00000       0.00000    
     21521 MEMB     119      POPE     C3       CD32C     2.41230       11.6110           0  -1.79700      0.410000    
     21522 MEMB     119      POPE     DC3      DRUD     -2.32630      0.400000           0   0.00000       0.00000    
     21523 MEMB     119      POPE     HX       HDA2A    0.116000       1.00800           0   0.00000       0.00000    
     21524 MEMB     119      POPE     HY       HDA2A    0.116000       1.00800           0   0.00000       0.00000    
     21525 MEMB     119      POPE     O31      OD30CL    1.48470       15.5994           0 -0.732000      0.601000    
     21526 MEMB     119      POPE     DO31     DRUD     -1.48470      0.400000           0   0.00000       0.00000    
     21527 MEMB     119      POPE     C31      CD2O3B    2.72820       11.6110           0  -1.37000       1.74700    
     21528 MEMB     119      POPE     DC31     DRUD     -2.03120      0.400000           0   0.00000       0.00000    
     21529 MEMB     119      POPE     O32      OD2C3B    1.64990       15.5994           0 -0.904000      0.565000    
     21530 MEMB     119      POPE     DO32     DRUD     -1.64990      0.400000           0   0.00000       0.00000    
     21531 MEMB     119      POPE     C32      CD32C     2.24380       11.6110           0  -1.99300      0.410000    
     21532 MEMB     119      POPE     DC32     DRUD     -2.44980      0.400000           0   0.00000       0.00000    
     21533 MEMB     119      POPE     H2X      HDA2A    0.690000E-01   1.00800           0   0.00000       0.00000    
     21534 MEMB     119      POPE     H2Y      HDA2A    0.690000E-01   1.00800           0   0.00000       0.00000    
     21535 MEMB     119      POPE     LP1C     LPD     -0.349000       0.00000          -1   0.00000       0.00000    
     21536 MEMB     119      POPE     LP1D     LPD     -0.258000       0.00000          -1   0.00000       0.00000    
     21537 MEMB     119      POPE     LPMC     LPD     -0.170000       0.00000          -1   0.00000       0.00000    
     21538 MEMB     119      POPE     LPMD     LPD     -0.170000       0.00000          -1   0.00000       0.00000    
     21539 MEMB     119      POPE     C23      CD32A     2.07980       11.6110           0  -1.66000       1.30000    
     21540 MEMB     119      POPE     DC23     DRUD     -2.23580      0.400000           0   0.00000       0.00000    
     21541 MEMB     119      POPE     H3R      HDA2A    0.780000E-01   1.00800           0   0.00000       0.00000    
     21542 MEMB     119      POPE     H3S      HDA2A    0.780000E-01   1.00800           0   0.00000       0.00000    
     21543 MEMB     119      POPE     C24      CD32A     2.07980       11.6110           0  -1.66000       1.30000    
     21544 MEMB     119      POPE     DC24     DRUD     -2.23580      0.400000           0   0.00000       0.00000    
     21545 MEMB     119      POPE     H4R      HDA2A    0.780000E-01   1.00800           0   0.00000       0.00000    
     21546 MEMB     119      POPE     H4S      HDA2A    0.780000E-01   1.00800           0   0.00000       0.00000    
     21547 MEMB     119      POPE     C25      CD32A     2.07980       11.6110           0  -1.66000       1.30000    
     21548 MEMB     119      POPE     DC25     DRUD     -2.23580      0.400000           0   0.00000       0.00000    
     21549 MEMB     119      POPE     H5R      HDA2A    0.780000E-01   1.00800           0   0.00000       0.00000    
     21550 MEMB     119      POPE     H5S      HDA2A    0.780000E-01   1.00800           0   0.00000       0.00000    
     21551 MEMB     119      POPE     C26      CD32A     2.07980       11.6110           0  -1.66000       1.30000    
     21552 MEMB     119      POPE     DC26     DRUD     -2.23580      0.400000           0   0.00000       0.00000    
     21553 MEMB     119      POPE     H6R      HDA2A    0.780000E-01   1.00800           0   0.00000       0.00000    
     21554 MEMB     119      POPE     H6S      HDA2A    0.780000E-01   1.00800           0   0.00000       0.00000    
     21555 MEMB     119      POPE     C27      CD32A     2.07980       11.6110           0  -1.66000       1.30000    
     21556 MEMB     119      POPE     DC27     DRUD     -2.23580      0.400000           0   0.00000       0.00000    
     21557 MEMB     119      POPE     H7R      HDA2A    0.780000E-01   1.00800           0   0.00000       0.00000    
     21558 MEMB     119      POPE     H7S      HDA2A    0.780000E-01   1.00800           0   0.00000       0.00000    
     21559 MEMB     119      POPE     C28      CD32A     2.07980       11.6110           0  -1.66000       1.30000    
     21560 MEMB     119      POPE     DC28     DRUD     -2.23580      0.400000           0   0.00000       0.00000    
     21561 MEMB     119      POPE     H8R      HDA2A    0.780000E-01   1.00800           0   0.00000       0.00000    
     21562 MEMB     119      POPE     H8S      HDA2A    0.780000E-01   1.00800           0   0.00000       0.00000    
     21563 MEMB     119      POPE     C29      CD2C1A    2.33700       11.6110           0  -1.99000      0.750000    
     21564 MEMB     119      POPE     DC29     DRUD     -2.44800      0.400000           0   0.00000       0.00000    
     21565 MEMB     119      POPE     H91      HD2C1A   0.111000       1.00800           0   0.00000       0.00000    
     21566 MEMB     119      POPE     C210     CD2C1A    2.33700       11.6110           0  -1.99000      0.750000    
     21567 MEMB     119      POPE     DC210    DRUD     -2.44800      0.400000           0   0.00000       0.00000    
     21568 MEMB     119      POPE     H101     HD2C1A   0.111000       1.00800           0   0.00000       0.00000    
     21569 MEMB     119      POPE     C211     CD32A     2.07980       11.6110           0  -1.66000       1.30000    
     21570 MEMB     119      POPE     DC211    DRUD     -2.23580      0.400000           0   0.00000       0.00000    
     21571 MEMB     119      POPE     H11R     HDA2A    0.780000E-01   1.00800           0   0.00000       0.00000    
     21572 MEMB     119      POPE     H11S     HDA2A    0.780000E-01   1.00800           0   0.00000       0.00000    
     21573 MEMB     119      POPE     C212     CD32A     2.07980       11.6110           0  -1.66000       1.30000    
     21574 MEMB     119      POPE     DC212    DRUD     -2.23580      0.400000           0   0.00000       0.00000    
     21575 MEMB     119      POPE     H12R     HDA2A    0.780000E-01   1.00800           0   0.00000       0.00000    
     21576 MEMB     119      POPE     H12S     HDA2A    0.780000E-01   1.00800           0   0.00000       0.00000    
     21577 MEMB     119      POPE     C213     CD32A     2.07980       11.6110           0  -1.66000       1.30000    
     21578 MEMB     119      POPE     DC213    DRUD     -2.23580      0.400000           0   0.00000       0.00000    
     21579 MEMB     119      POPE     H13R     HDA2A    0.780000E-01   1.00800           0   0.00000       0.00000    
     21580 MEMB     119      POPE     H13S     HDA2A    0.780000E-01   1.00800           0   0.00000       0.00000    
     21581 MEMB     119      POPE     C214     CD32A     2.07980       11.6110           0  -1.66000       1.30000    
     21582 MEMB     119      POPE     DC214    DRUD     -2.23580      0.400000           0   0.00000       0.00000    
     21583 MEMB     119      POPE     H14R     HDA2A    0.780000E-01   1.00800           0   0.00000       0.00000    
     21584 MEMB     119      POPE     H14S     HDA2A    0.780000E-01   1.00800           0   0.00000       0.00000    
     21585 MEMB     119      POPE     C215     CD32A     2.07980       11.6110           0  -1.66000       1.30000    
     21586 MEMB     119      POPE     DC215    DRUD     -2.23580      0.400000           0   0.00000       0.00000    
     21587 MEMB     119      POPE     H15R     HDA2A    0.780000E-01   1.00800           0   0.00000       0.00000    
     21588 MEMB     119      POPE     H15S     HDA2A    0.780000E-01   1.00800           0   0.00000       0.00000    
     21589 MEMB     119      POPE     C216     CD32A     2.07980       11.6110           0  -1.66000       1.30000    
     21590 MEMB     119      POPE     DC216    DRUD     -2.23580      0.400000           0   0.00000       0.00000    
     21591 MEMB     119      POPE     H16R     HDA2A    0.780000E-01   1.00800           0   0.00000       0.00000    
     21592 MEMB     119      POPE     H16S     HDA2A    0.780000E-01   1.00800           0   0.00000       0.00000    
     21593 MEMB     119      POPE     C217     CD32A     2.07980       11.6110           0  -1.66000       1.30000    
     21594 MEMB     119      POPE     DC217    DRUD     -2.23580      0.400000           0   0.00000       0.00000    
     21595 MEMB     119      POPE     H17R     HDA2A    0.780000E-01   1.00800           0   0.00000       0.00000    
     21596 MEMB     119      POPE     H17S     HDA2A    0.780000E-01   1.00800           0   0.00000       0.00000    
     21597 MEMB     119      POPE     C218     CD33A     2.30820       11.6110           0  -2.05100       1.30000    
     21598 MEMB     119      POPE     DC218    DRUD     -2.48520      0.400000           0   0.00000       0.00000    
     21599 MEMB     119      POPE     H18R     HDA3A    0.590000E-01   1.00800           0   0.00000       0.00000    
     21600 MEMB     119      POPE     H18S     HDA3A    0.590000E-01   1.00800           0   0.00000       0.00000    
     21601 MEMB     119      POPE     H18T     HDA3A    0.590000E-01   1.00800           0   0.00000       0.00000    
     21602 MEMB     119      POPE     C33      CD32A     2.07980       11.6110           0  -1.66000       1.30000    
     21603 MEMB     119      POPE     DC33     DRUD     -2.23580      0.400000           0   0.00000       0.00000    
     21604 MEMB     119      POPE     H3X      HDA2A    0.780000E-01   1.00800           0   0.00000       0.00000    
     21605 MEMB     119      POPE     H3Y      HDA2A    0.780000E-01   1.00800           0   0.00000       0.00000    
     21606 MEMB     119      POPE     C34      CD32A     2.07980       11.6110           0  -1.66000       1.30000    
     21607 MEMB     119      POPE     DC34     DRUD     -2.23580      0.400000           0   0.00000       0.00000    
     21608 MEMB     119      POPE     H4X      HDA2A    0.780000E-01   1.00800           0   0.00000       0.00000    
     21609 MEMB     119      POPE     H4Y      HDA2A    0.780000E-01   1.00800           0   0.00000       0.00000    
     21610 MEMB     119      POPE     C35      CD32A     2.07980       11.6110           0  -1.66000       1.30000    
     21611 MEMB     119      POPE     DC35     DRUD     -2.23580      0.400000           0   0.00000       0.00000    
     21612 MEMB     119      POPE     H5X      HDA2A    0.780000E-01   1.00800           0   0.00000       0.00000    
     21613 MEMB     119      POPE     H5Y      HDA2A    0.780000E-01   1.00800           0   0.00000       0.00000    
     21614 MEMB     119      POPE     C36      CD32A     2.07980       11.6110           0  -1.66000       1.30000    
     21615 MEMB     119      POPE     DC36     DRUD     -2.23580      0.400000           0   0.00000       0.00000    
     21616 MEMB     119      POPE     H6X      HDA2A    0.780000E-01   1.00800           0   0.00000       0.00000    
     21617 MEMB     119      POPE     H6Y      HDA2A    0.780000E-01   1.00800           0   0.00000       0.00000    
     21618 MEMB     119      POPE     C37      CD32A     2.07980       11.6110           0  -1.66000       1.30000    
     21619 MEMB     119      POPE     DC37     DRUD     -2.23580      0.400000           0   0.00000       0.00000    
     21620 MEMB     119      POPE     H7X      HDA2A    0.780000E-01   1.00800           0   0.00000       0.00000    
     21621 MEMB     119      POPE     H7Y      HDA2A    0.780000E-01   1.00800           0   0.00000       0.00000    
     21622 MEMB     119      POPE     C38      CD32A     2.07980       11.6110           0  -1.66000       1.30000    
     21623 MEMB     119      POPE     DC38     DRUD     -2.23580      0.400000           0   0.00000       0.00000    
     21624 MEMB     119      POPE     H8X      HDA2A    0.780000E-01   1.00800           0   0.00000       0.00000    
     21625 MEMB     119      POPE     H8Y      HDA2A    0.780000E-01   1.00800           0   0.00000       0.00000    
     21626 MEMB     119      POPE     C39      CD32A     2.07980       11.6110           0  -1.66000       1.30000    
     21627 MEMB     119      POPE     DC39     DRUD     -2.23580      0.400000           0   0.00000       0.00000    
     21628 MEMB     119      POPE     H9X      HDA2A    0.780000E-01   1.00800           0   0.00000       0.00000    
     21629 MEMB     119      POPE     H9Y      HDA2A    0.780000E-01   1.00800           0   0.00000       0.00000    
     21630 MEMB     119      POPE     C310     CD32A     2.07980       11.6110           0  -1.66000       1.30000    
     21631 MEMB     119      POPE     DC310    DRUD     -2.23580      0.400000           0   0.00000       0.00000    
     21632 MEMB     119      POPE     H10X     HDA2A    0.780000E-01   1.00800           0   0.00000       0.00000    
     21633 MEMB     119      POPE     H10Y     HDA2A    0.780000E-01   1.00800           0   0.00000       0.00000    
     21634 MEMB     119      POPE     C311     CD32A     2.07980       11.6110           0  -1.66000       1.30000    
     21635 MEMB     119      POPE     DC311    DRUD     -2.23580      0.400000           0   0.00000       0.00000    
     21636 MEMB     119      POPE     H11X     HDA2A    0.780000E-01   1.00800           0   0.00000       0.00000    
     21637 MEMB     119      POPE     H11Y     HDA2A    0.780000E-01   1.00800           0   0.00000       0.00000    
     21638 MEMB     119      POPE     C312     CD32A     2.07980       11.6110           0  -1.66000       1.30000    
     21639 MEMB     119      POPE     DC312    DRUD     -2.23580      0.400000           0   0.00000       0.00000    
     21640 MEMB     119      POPE     H12X     HDA2A    0.780000E-01   1.00800           0   0.00000       0.00000    
     21641 MEMB     119      POPE     H12Y     HDA2A    0.780000E-01   1.00800           0   0.00000       0.00000    
     21642 MEMB     119      POPE     C313     CD32A     2.07980       11.6110           0  -1.66000       1.30000    
     21643 MEMB     119      POPE     DC313    DRUD     -2.23580      0.400000           0   0.00000       0.00000    
     21644 MEMB     119      POPE     H13X     HDA2A    0.780000E-01   1.00800           0   0.00000       0.00000    
     21645 MEMB     119      POPE     H13Y     HDA2A    0.780000E-01   1.00800           0   0.00000       0.00000    
     21646 MEMB     119      POPE     C314     CD32A     2.07980       11.6110           0  -1.66000       1.30000    
     21647 MEMB     119      POPE     DC314    DRUD     -2.23580      0.400000           0   0.00000       0.00000    
     21648 MEMB     119      POPE     H14X     HDA2A    0.780000E-01   1.00800           0   0.00000       0.00000    
     21649 MEMB     119      POPE     H14Y     HDA2A    0.780000E-01   1.00800           0   0.00000       0.00000    
     21650 MEMB     119      POPE     C315     CD32A     2.07980       11.6110           0  -1.66000       1.30000    
     21651 MEMB     119      POPE     DC315    DRUD     -2.23580      0.400000           0   0.00000       0.00000    
     21652 MEMB     119      POPE     H15X     HDA2A    0.780000E-01   1.00800           0   0.00000       0.00000    
     21653 MEMB     119      POPE     H15Y     HDA2A    0.780000E-01   1.00800           0   0.00000       0.00000    
     21654 MEMB     119      POPE     C316     CD33A     2.30820       11.6110           0  -2.05100       1.30000    
     21655 MEMB     119      POPE     DC316    DRUD     -2.48520      0.400000           0   0.00000       0.00000    
     21656 MEMB     119      POPE     H16X     HDA3A    0.590000E-01   1.00800           0   0.00000       0.00000    
     21657 MEMB     119      POPE     H16Y     HDA3A    0.590000E-01   1.00800           0   0.00000       0.00000    
     21658 MEMB     119      POPE     H16Z     HDA3A    0.590000E-01   1.00800           0   0.00000       0.00000    
     21659 MEMB     120      POPE     N        ND3P3A    1.62810       13.6070           0  -1.29800      0.895000    
     21660 MEMB     120      POPE     DN       DRUD     -1.97710      0.400000           0   0.00000       0.00000    
     21661 MEMB     120      POPE     HN1      HDP1B    0.340000       1.00800           0   0.00000       0.00000    
     21662 MEMB     120      POPE     HN2      HDP1B    0.340000       1.00800           0   0.00000       0.00000    
     21663 MEMB     120      POPE     HN3      HDP1B    0.340000       1.00800           0   0.00000       0.00000    
     21664 MEMB     120      POPE     C12      CD32A     2.27610       11.6110           0  -1.65600      0.895000    
     21665 MEMB     120      POPE     DC12     DRUD     -2.23310      0.400000           0   0.00000       0.00000    
     21666 MEMB     120      POPE     H12A     HDA2A    0.143000       1.00800           0   0.00000       0.00000    
     21667 MEMB     120      POPE     H12B     HDA2A    0.143000       1.00800           0   0.00000       0.00000    
     21668 MEMB     120      POPE     C11      CD32A     2.42220       11.6110           0  -1.64200      0.862000    
     21669 MEMB     120      POPE     DC11     DRUD     -2.22370      0.400000           0   0.00000       0.00000    
     21670 MEMB     120      POPE     H11A     HDA2A    0.260000E-01   1.00800           0   0.00000       0.00000    
     21671 MEMB     120      POPE     H11B     HDA2A    0.260000E-01   1.00800           0   0.00000       0.00000    
     21672 MEMB     120      POPE     P        PD1A      2.90360       30.5740           0 -0.974000       2.09800    
     21673 MEMB     120      POPE     DP       DRUD     -1.71260      0.400000           0   0.00000       0.00000    
     21674 MEMB     120      POPE     O13      OD2C2B   0.798400       15.5994           0 -0.931000       1.08300    
     21675 MEMB     120      POPE     DO13     DRUD     -1.67440      0.400000           0   0.00000       0.00000    
     21676 MEMB     120      POPE     O14      OD2C2B   0.798400       15.5994           0 -0.931000       1.08300    
     21677 MEMB     120      POPE     DO14     DRUD     -1.67440      0.400000           0   0.00000       0.00000    
     21678 MEMB     120      POPE     O11      OD30B     1.17720       15.5994           0 -0.901000      0.181000    
     21679 MEMB     120      POPE     DO11     DRUD     -1.64720      0.400000           0   0.00000       0.00000    
     21680 MEMB     120      POPE     O12      OD30B     1.17720       15.5994           0 -0.901000      0.181000    
     21681 MEMB     120      POPE     DO12     DRUD     -1.64720      0.400000           0   0.00000       0.00000    
     21682 MEMB     120      POPE     C1       CD32A     2.42220       11.6110           0  -1.64200      0.862000    
     21683 MEMB     120      POPE     DC1      DRUD     -2.22370      0.400000           0   0.00000       0.00000    
     21684 MEMB     120      POPE     HA       HDA2A    0.260000E-01   1.00800           0   0.00000       0.00000    
     21685 MEMB     120      POPE     HB       HDA2A    0.260000E-01   1.00800           0   0.00000       0.00000    
     21686 MEMB     120      POPE     C2       CD31C     2.52830       11.6110           0  -1.79700      0.410000    
     21687 MEMB     120      POPE     DC2      DRUD     -2.32630      0.400000           0   0.00000       0.00000    
     21688 MEMB     120      POPE     HS       HDA1A    0.116000       1.00800           0   0.00000       0.00000    
     21689 MEMB     120      POPE     O21      OD30CL    1.48470       15.5994           0 -0.732000      0.601000    
     21690 MEMB     120      POPE     DO21     DRUD     -1.48470      0.400000           0   0.00000       0.00000    
     21691 MEMB     120      POPE     C21      CD2O3B    2.72820       11.6110           0  -1.37000       1.74700    
     21692 MEMB     120      POPE     DC21     DRUD     -2.03120      0.400000           0   0.00000       0.00000    
     21693 MEMB     120      POPE     O22      OD2C3B    1.64990       15.5994           0 -0.904000      0.565000    
     21694 MEMB     120      POPE     DO22     DRUD     -1.64990      0.400000           0   0.00000       0.00000    
     21695 MEMB     120      POPE     C22      CD32C     2.24380       11.6110           0  -1.99300      0.410000    
     21696 MEMB     120      POPE     DC22     DRUD     -2.44980      0.400000           0   0.00000       0.00000    
     21697 MEMB     120      POPE     H2R      HDA2A    0.690000E-01   1.00800           0   0.00000       0.00000    
     21698 MEMB     120      POPE     H2S      HDA2A    0.690000E-01   1.00800           0   0.00000       0.00000    
     21699 MEMB     120      POPE     LP1A     LPD     -0.349000       0.00000          -1   0.00000       0.00000    
     21700 MEMB     120      POPE     LP1B     LPD     -0.258000       0.00000          -1   0.00000       0.00000    
     21701 MEMB     120      POPE     LPMA     LPD     -0.170000       0.00000          -1   0.00000       0.00000    
     21702 MEMB     120      POPE     LPMB     LPD     -0.170000       0.00000          -1   0.00000       0.00000    
     21703 MEMB     120      POPE     C3       CD32C     2.41230       11.6110           0  -1.79700      0.410000    
     21704 MEMB     120      POPE     DC3      DRUD     -2.32630      0.400000           0   0.00000       0.00000    
     21705 MEMB     120      POPE     HX       HDA2A    0.116000       1.00800           0   0.00000       0.00000    
     21706 MEMB     120      POPE     HY       HDA2A    0.116000       1.00800           0   0.00000       0.00000    
     21707 MEMB     120      POPE     O31      OD30CL    1.48470       15.5994           0 -0.732000      0.601000    
     21708 MEMB     120      POPE     DO31     DRUD     -1.48470      0.400000           0   0.00000       0.00000    
     21709 MEMB     120      POPE     C31      CD2O3B    2.72820       11.6110           0  -1.37000       1.74700    
     21710 MEMB     120      POPE     DC31     DRUD     -2.03120      0.400000           0   0.00000       0.00000    
     21711 MEMB     120      POPE     O32      OD2C3B    1.64990       15.5994           0 -0.904000      0.565000    
     21712 MEMB     120      POPE     DO32     DRUD     -1.64990      0.400000           0   0.00000       0.00000    
     21713 MEMB     120      POPE     C32      CD32C     2.24380       11.6110           0  -1.99300      0.410000    
     21714 MEMB     120      POPE     DC32     DRUD     -2.44980      0.400000           0   0.00000       0.00000    
     21715 MEMB     120      POPE     H2X      HDA2A    0.690000E-01   1.00800           0   0.00000       0.00000    
     21716 MEMB     120      POPE     H2Y      HDA2A    0.690000E-01   1.00800           0   0.00000       0.00000    
     21717 MEMB     120      POPE     LP1C     LPD     -0.349000       0.00000          -1   0.00000       0.00000    
     21718 MEMB     120      POPE     LP1D     LPD     -0.258000       0.00000          -1   0.00000       0.00000    
     21719 MEMB     120      POPE     LPMC     LPD     -0.170000       0.00000          -1   0.00000       0.00000    
     21720 MEMB     120      POPE     LPMD     LPD     -0.170000       0.00000          -1   0.00000       0.00000    
     21721 MEMB     120      POPE     C23      CD32A     2.07980       11.6110           0  -1.66000       1.30000    
     21722 MEMB     120      POPE     DC23     DRUD     -2.23580      0.400000           0   0.00000       0.00000    
     21723 MEMB     120      POPE     H3R      HDA2A    0.780000E-01   1.00800           0   0.00000       0.00000    
     21724 MEMB     120      POPE     H3S      HDA2A    0.780000E-01   1.00800           0   0.00000       0.00000    
     21725 MEMB     120      POPE     C24      CD32A     2.07980       11.6110           0  -1.66000       1.30000    
     21726 MEMB     120      POPE     DC24     DRUD     -2.23580      0.400000           0   0.00000       0.00000    
     21727 MEMB     120      POPE     H4R      HDA2A    0.780000E-01   1.00800           0   0.00000       0.00000    
     21728 MEMB     120      POPE     H4S      HDA2A    0.780000E-01   1.00800           0   0.00000       0.00000    
     21729 MEMB     120      POPE     C25      CD32A     2.07980       11.6110           0  -1.66000       1.30000    
     21730 MEMB     120      POPE     DC25     DRUD     -2.23580      0.400000           0   0.00000       0.00000    
     21731 MEMB     120      POPE     H5R      HDA2A    0.780000E-01   1.00800           0   0.00000       0.00000    
     21732 MEMB     120      POPE     H5S      HDA2A    0.780000E-01   1.00800           0   0.00000       0.00000    
     21733 MEMB     120      POPE     C26      CD32A     2.07980       11.6110           0  -1.66000       1.30000    
     21734 MEMB     120      POPE     DC26     DRUD     -2.23580      0.400000           0   0.00000       0.00000    
     21735 MEMB     120      POPE     H6R      HDA2A    0.780000E-01   1.00800           0   0.00000       0.00000    
     21736 MEMB     120      POPE     H6S      HDA2A    0.780000E-01   1.00800           0   0.00000       0.00000    
     21737 MEMB     120      POPE     C27      CD32A     2.07980       11.6110           0  -1.66000       1.30000    
     21738 MEMB     120      POPE     DC27     DRUD     -2.23580      0.400000           0   0.00000       0.00000    
     21739 MEMB     120      POPE     H7R      HDA2A    0.780000E-01   1.00800           0   0.00000       0.00000    
     21740 MEMB     120      POPE     H7S      HDA2A    0.780000E-01   1.00800           0   0.00000       0.00000    
     21741 MEMB     120      POPE     C28      CD32A     2.07980       11.6110           0  -1.66000       1.30000    
     21742 MEMB     120      POPE     DC28     DRUD     -2.23580      0.400000           0   0.00000       0.00000    
     21743 MEMB     120      POPE     H8R      HDA2A    0.780000E-01   1.00800           0   0.00000       0.00000    
     21744 MEMB     120      POPE     H8S      HDA2A    0.780000E-01   1.00800           0   0.00000       0.00000    
     21745 MEMB     120      POPE     C29      CD2C1A    2.33700       11.6110           0  -1.99000      0.750000    
     21746 MEMB     120      POPE     DC29     DRUD     -2.44800      0.400000           0   0.00000       0.00000    
     21747 MEMB     120      POPE     H91      HD2C1A   0.111000       1.00800           0   0.00000       0.00000    
     21748 MEMB     120      POPE     C210     CD2C1A    2.33700       11.6110           0  -1.99000      0.750000    
     21749 MEMB     120      POPE     DC210    DRUD     -2.44800      0.400000           0   0.00000       0.00000    
     21750 MEMB     120      POPE     H101     HD2C1A   0.111000       1.00800           0   0.00000       0.00000    
     21751 MEMB     120      POPE     C211     CD32A     2.07980       11.6110           0  -1.66000       1.30000    
     21752 MEMB     120      POPE     DC211    DRUD     -2.23580      0.400000           0   0.00000       0.00000    
     21753 MEMB     120      POPE     H11R     HDA2A    0.780000E-01   1.00800           0   0.00000       0.00000    
     21754 MEMB     120      POPE     H11S     HDA2A    0.780000E-01   1.00800           0   0.00000       0.00000    
     21755 MEMB     120      POPE     C212     CD32A     2.07980       11.6110           0  -1.66000       1.30000    
     21756 MEMB     120      POPE     DC212    DRUD     -2.23580      0.400000           0   0.00000       0.00000    
     21757 MEMB     120      POPE     H12R     HDA2A    0.780000E-01   1.00800           0   0.00000       0.00000    
     21758 MEMB     120      POPE     H12S     HDA2A    0.780000E-01   1.00800           0   0.00000       0.00000    
     21759 MEMB     120      POPE     C213     CD32A     2.07980       11.6110           0  -1.66000       1.30000    
     21760 MEMB     120      POPE     DC213    DRUD     -2.23580      0.400000           0   0.00000       0.00000    
     21761 MEMB     120      POPE     H13R     HDA2A    0.780000E-01   1.00800           0   0.00000       0.00000    
     21762 MEMB     120      POPE     H13S     HDA2A    0.780000E-01   1.00800           0   0.00000       0.00000    
     21763 MEMB     120      POPE     C214     CD32A     2.07980       11.6110           0  -1.66000       1.30000    
     21764 MEMB     120      POPE     DC214    DRUD     -2.23580      0.400000           0   0.00000       0.00000    
     21765 MEMB     120      POPE     H14R     HDA2A    0.780000E-01   1.00800           0   0.00000       0.00000    
     21766 MEMB     120      POPE     H14S     HDA2A    0.780000E-01   1.00800           0   0.00000       0.00000    
     21767 MEMB     120      POPE     C215     CD32A     2.07980       11.6110           0  -1.66000       1.30000    
     21768 MEMB     120      POPE     DC215    DRUD     -2.23580      0.400000           0   0.00000       0.00000    
     21769 MEMB     120      POPE     H15R     HDA2A    0.780000E-01   1.00800           0   0.00000       0.00000    
     21770 MEMB     120      POPE     H15S     HDA2A    0.780000E-01   1.00800           0   0.00000       0.00000    
     21771 MEMB     120      POPE     C216     CD32A     2.07980       11.6110           0  -1.66000       1.30000    
     21772 MEMB     120      POPE     DC216    DRUD     -2.23580      0.400000           0   0.00000       0.00000    
     21773 MEMB     120      POPE     H16R     HDA2A    0.780000E-01   1.00800           0   0.00000       0.00000    
     21774 MEMB     120      POPE     H16S     HDA2A    0.780000E-01   1.00800           0   0.00000       0.00000    
     21775 MEMB     120      POPE     C217     CD32A     2.07980       11.6110           0  -1.66000       1.30000    
     21776 MEMB     120      POPE     DC217    DRUD     -2.23580      0.400000           0   0.00000       0.00000    
     21777 MEMB     120      POPE     H17R     HDA2A    0.780000E-01   1.00800           0   0.00000       0.00000    
     21778 MEMB     120      POPE     H17S     HDA2A    0.780000E-01   1.00800           0   0.00000       0.00000    
     21779 MEMB     120      POPE     C218     CD33A     2.30820       11.6110           0  -2.05100       1.30000    
     21780 MEMB     120      POPE     DC218    DRUD     -2.48520      0.400000           0   0.00000       0.00000    
     21781 MEMB     120      POPE     H18R     HDA3A    0.590000E-01   1.00800           0   0.00000       0.00000    
     21782 MEMB     120      POPE     H18S     HDA3A    0.590000E-01   1.00800           0   0.00000       0.00000    
     21783 MEMB     120      POPE     H18T     HDA3A    0.590000E-01   1.00800           0   0.00000       0.00000    
     21784 MEMB     120      POPE     C33      CD32A     2.07980       11.6110           0  -1.66000       1.30000    
     21785 MEMB     120      POPE     DC33     DRUD     -2.23580      0.400000           0   0.00000       0.00000    
     21786 MEMB     120      POPE     H3X      HDA2A    0.780000E-01   1.00800           0   0.00000       0.00000    
     21787 MEMB     120      POPE     H3Y      HDA2A    0.780000E-01   1.00800           0   0.00000       0.00000    
     21788 MEMB     120      POPE     C34      CD32A     2.07980       11.6110           0  -1.66000       1.30000    
     21789 MEMB     120      POPE     DC34     DRUD     -2.23580      0.400000           0   0.00000       0.00000    
     21790 MEMB     120      POPE     H4X      HDA2A    0.780000E-01   1.00800           0   0.00000       0.00000    
     21791 MEMB     120      POPE     H4Y      HDA2A    0.780000E-01   1.00800           0   0.00000       0.00000    
     21792 MEMB     120      POPE     C35      CD32A     2.07980       11.6110           0  -1.66000       1.30000    
     21793 MEMB     120      POPE     DC35     DRUD     -2.23580      0.400000           0   0.00000       0.00000    
     21794 MEMB     120      POPE     H5X      HDA2A    0.780000E-01   1.00800           0   0.00000       0.00000    
     21795 MEMB     120      POPE     H5Y      HDA2A    0.780000E-01   1.00800           0   0.00000       0.00000    
     21796 MEMB     120      POPE     C36      CD32A     2.07980       11.6110           0  -1.66000       1.30000    
     21797 MEMB     120      POPE     DC36     DRUD     -2.23580      0.400000           0   0.00000       0.00000    
     21798 MEMB     120      POPE     H6X      HDA2A    0.780000E-01   1.00800           0   0.00000       0.00000    
     21799 MEMB     120      POPE     H6Y      HDA2A    0.780000E-01   1.00800           0   0.00000       0.00000    
     21800 MEMB     120      POPE     C37      CD32A     2.07980       11.6110           0  -1.66000       1.30000    
     21801 MEMB     120      POPE     DC37     DRUD     -2.23580      0.400000           0   0.00000       0.00000    
     21802 MEMB     120      POPE     H7X      HDA2A    0.780000E-01   1.00800           0   0.00000       0.00000    
     21803 MEMB     120      POPE     H7Y      HDA2A    0.780000E-01   1.00800           0   0.00000       0.00000    
     21804 MEMB     120      POPE     C38      CD32A     2.07980       11.6110           0  -1.66000       1.30000    
     21805 MEMB     120      POPE     DC38     DRUD     -2.23580      0.400000           0   0.00000       0.00000    
     21806 MEMB     120      POPE     H8X      HDA2A    0.780000E-01   1.00800           0   0.00000       0.00000    
     21807 MEMB     120      POPE     H8Y      HDA2A    0.780000E-01   1.00800           0   0.00000       0.00000    
     21808 MEMB     120      POPE     C39      CD32A     2.07980       11.6110           0  -1.66000       1.30000    
     21809 MEMB     120      POPE     DC39     DRUD     -2.23580      0.400000           0   0.00000       0.00000    
     21810 MEMB     120      POPE     H9X      HDA2A    0.780000E-01   1.00800           0   0.00000       0.00000    
     21811 MEMB     120      POPE     H9Y      HDA2A    0.780000E-01   1.00800           0   0.00000       0.00000    
     21812 MEMB     120      POPE     C310     CD32A     2.07980       11.6110           0  -1.66000       1.30000    
     21813 MEMB     120      POPE     DC310    DRUD     -2.23580      0.400000           0   0.00000       0.00000    
     21814 MEMB     120      POPE     H10X     HDA2A    0.780000E-01   1.00800           0   0.00000       0.00000    
     21815 MEMB     120      POPE     H10Y     HDA2A    0.780000E-01   1.00800           0   0.00000       0.00000    
     21816 MEMB     120      POPE     C311     CD32A     2.07980       11.6110           0  -1.66000       1.30000    
     21817 MEMB     120      POPE     DC311    DRUD     -2.23580      0.400000           0   0.00000       0.00000    
     21818 MEMB     120      POPE     H11X     HDA2A    0.780000E-01   1.00800           0   0.00000       0.00000    
     21819 MEMB     120      POPE     H11Y     HDA2A    0.780000E-01   1.00800           0   0.00000       0.00000    
     21820 MEMB     120      POPE     C312     CD32A     2.07980       11.6110           0  -1.66000       1.30000    
     21821 MEMB     120      POPE     DC312    DRUD     -2.23580      0.400000           0   0.00000       0.00000    
     21822 MEMB     120      POPE     H12X     HDA2A    0.780000E-01   1.00800           0   0.00000       0.00000    
     21823 MEMB     120      POPE     H12Y     HDA2A    0.780000E-01   1.00800           0   0.00000       0.00000    
     21824 MEMB     120      POPE     C313     CD32A     2.07980       11.6110           0  -1.66000       1.30000    
     21825 MEMB     120      POPE     DC313    DRUD     -2.23580      0.400000           0   0.00000       0.00000    
     21826 MEMB     120      POPE     H13X     HDA2A    0.780000E-01   1.00800           0   0.00000       0.00000    
     21827 MEMB     120      POPE     H13Y     HDA2A    0.780000E-01   1.00800           0   0.00000       0.00000    
     21828 MEMB     120      POPE     C314     CD32A     2.07980       11.6110           0  -1.66000       1.30000    
     21829 MEMB     120      POPE     DC314    DRUD     -2.23580      0.400000           0   0.00000       0.00000    
     21830 MEMB     120      POPE     H14X     HDA2A    0.780000E-01   1.00800           0   0.00000       0.00000    
     21831 MEMB     120      POPE     H14Y     HDA2A    0.780000E-01   1.00800           0   0.00000       0.00000    
     21832 MEMB     120      POPE     C315     CD32A     2.07980       11.6110           0  -1.66000       1.30000    
     21833 MEMB     120      POPE     DC315    DRUD     -2.23580      0.400000           0   0.00000       0.00000    
     21834 MEMB     120      POPE     H15X     HDA2A    0.780000E-01   1.00800           0   0.00000       0.00000    
     21835 MEMB     120      POPE     H15Y     HDA2A    0.780000E-01   1.00800           0   0.00000       0.00000    
     21836 MEMB     120      POPE     C316     CD33A     2.30820       11.6110           0  -2.05100       1.30000    
     21837 MEMB     120      POPE     DC316    DRUD     -2.48520      0.400000           0   0.00000       0.00000    
     21838 MEMB     120      POPE     H16X     HDA3A    0.590000E-01   1.00800           0   0.00000       0.00000    
     21839 MEMB     120      POPE     H16Y     HDA3A    0.590000E-01   1.00800           0   0.00000       0.00000    
     21840 MEMB     120      POPE     H16Z     HDA3A    0.590000E-01   1.00800           0   0.00000       0.00000    
     21841 MEMB     121      POPE     N        ND3P3A    1.62810       13.6070           0  -1.29800      0.895000    
     21842 MEMB     121      POPE     DN       DRUD     -1.97710      0.400000           0   0.00000       0.00000    
     21843 MEMB     121      POPE     HN1      HDP1B    0.340000       1.00800           0   0.00000       0.00000    
     21844 MEMB     121      POPE     HN2      HDP1B    0.340000       1.00800           0   0.00000       0.00000    
     21845 MEMB     121      POPE     HN3      HDP1B    0.340000       1.00800           0   0.00000       0.00000    
     21846 MEMB     121      POPE     C12      CD32A     2.27610       11.6110           0  -1.65600      0.895000    
     21847 MEMB     121      POPE     DC12     DRUD     -2.23310      0.400000           0   0.00000       0.00000    
     21848 MEMB     121      POPE     H12A     HDA2A    0.143000       1.00800           0   0.00000       0.00000    
     21849 MEMB     121      POPE     H12B     HDA2A    0.143000       1.00800           0   0.00000       0.00000    
     21850 MEMB     121      POPE     C11      CD32A     2.42220       11.6110           0  -1.64200      0.862000    
     21851 MEMB     121      POPE     DC11     DRUD     -2.22370      0.400000           0   0.00000       0.00000    
     21852 MEMB     121      POPE     H11A     HDA2A    0.260000E-01   1.00800           0   0.00000       0.00000    
     21853 MEMB     121      POPE     H11B     HDA2A    0.260000E-01   1.00800           0   0.00000       0.00000    
     21854 MEMB     121      POPE     P        PD1A      2.90360       30.5740           0 -0.974000       2.09800    
     21855 MEMB     121      POPE     DP       DRUD     -1.71260      0.400000           0   0.00000       0.00000    
     21856 MEMB     121      POPE     O13      OD2C2B   0.798400       15.5994           0 -0.931000       1.08300    
     21857 MEMB     121      POPE     DO13     DRUD     -1.67440      0.400000           0   0.00000       0.00000    
     21858 MEMB     121      POPE     O14      OD2C2B   0.798400       15.5994           0 -0.931000       1.08300    
     21859 MEMB     121      POPE     DO14     DRUD     -1.67440      0.400000           0   0.00000       0.00000    
     21860 MEMB     121      POPE     O11      OD30B     1.17720       15.5994           0 -0.901000      0.181000    
     21861 MEMB     121      POPE     DO11     DRUD     -1.64720      0.400000           0   0.00000       0.00000    
     21862 MEMB     121      POPE     O12      OD30B     1.17720       15.5994           0 -0.901000      0.181000    
     21863 MEMB     121      POPE     DO12     DRUD     -1.64720      0.400000           0   0.00000       0.00000    
     21864 MEMB     121      POPE     C1       CD32A     2.42220       11.6110           0  -1.64200      0.862000    
     21865 MEMB     121      POPE     DC1      DRUD     -2.22370      0.400000           0   0.00000       0.00000    
     21866 MEMB     121      POPE     HA       HDA2A    0.260000E-01   1.00800           0   0.00000       0.00000    
     21867 MEMB     121      POPE     HB       HDA2A    0.260000E-01   1.00800           0   0.00000       0.00000    
     21868 MEMB     121      POPE     C2       CD31C     2.52830       11.6110           0  -1.79700      0.410000    
     21869 MEMB     121      POPE     DC2      DRUD     -2.32630      0.400000           0   0.00000       0.00000    
     21870 MEMB     121      POPE     HS       HDA1A    0.116000       1.00800           0   0.00000       0.00000    
     21871 MEMB     121      POPE     O21      OD30CL    1.48470       15.5994           0 -0.732000      0.601000    
     21872 MEMB     121      POPE     DO21     DRUD     -1.48470      0.400000           0   0.00000       0.00000    
     21873 MEMB     121      POPE     C21      CD2O3B    2.72820       11.6110           0  -1.37000       1.74700    
     21874 MEMB     121      POPE     DC21     DRUD     -2.03120      0.400000           0   0.00000       0.00000    
     21875 MEMB     121      POPE     O22      OD2C3B    1.64990       15.5994           0 -0.904000      0.565000    
     21876 MEMB     121      POPE     DO22     DRUD     -1.64990      0.400000           0   0.00000       0.00000    
     21877 MEMB     121      POPE     C22      CD32C     2.24380       11.6110           0  -1.99300      0.410000    
     21878 MEMB     121      POPE     DC22     DRUD     -2.44980      0.400000           0   0.00000       0.00000    
     21879 MEMB     121      POPE     H2R      HDA2A    0.690000E-01   1.00800           0   0.00000       0.00000    
     21880 MEMB     121      POPE     H2S      HDA2A    0.690000E-01   1.00800           0   0.00000       0.00000    
     21881 MEMB     121      POPE     LP1A     LPD     -0.349000       0.00000          -1   0.00000       0.00000    
     21882 MEMB     121      POPE     LP1B     LPD     -0.258000       0.00000          -1   0.00000       0.00000    
     21883 MEMB     121      POPE     LPMA     LPD     -0.170000       0.00000          -1   0.00000       0.00000    
     21884 MEMB     121      POPE     LPMB     LPD     -0.170000       0.00000          -1   0.00000       0.00000    
     21885 MEMB     121      POPE     C3       CD32C     2.41230       11.6110           0  -1.79700      0.410000    
     21886 MEMB     121      POPE     DC3      DRUD     -2.32630      0.400000           0   0.00000       0.00000    
     21887 MEMB     121      POPE     HX       HDA2A    0.116000       1.00800           0   0.00000       0.00000    
     21888 MEMB     121      POPE     HY       HDA2A    0.116000       1.00800           0   0.00000       0.00000    
     21889 MEMB     121      POPE     O31      OD30CL    1.48470       15.5994           0 -0.732000      0.601000    
     21890 MEMB     121      POPE     DO31     DRUD     -1.48470      0.400000           0   0.00000       0.00000    
     21891 MEMB     121      POPE     C31      CD2O3B    2.72820       11.6110           0  -1.37000       1.74700    
     21892 MEMB     121      POPE     DC31     DRUD     -2.03120      0.400000           0   0.00000       0.00000    
     21893 MEMB     121      POPE     O32      OD2C3B    1.64990       15.5994           0 -0.904000      0.565000    
     21894 MEMB     121      POPE     DO32     DRUD     -1.64990      0.400000           0   0.00000       0.00000    
     21895 MEMB     121      POPE     C32      CD32C     2.24380       11.6110           0  -1.99300      0.410000    
     21896 MEMB     121      POPE     DC32     DRUD     -2.44980      0.400000           0   0.00000       0.00000    
     21897 MEMB     121      POPE     H2X      HDA2A    0.690000E-01   1.00800           0   0.00000       0.00000    
     21898 MEMB     121      POPE     H2Y      HDA2A    0.690000E-01   1.00800           0   0.00000       0.00000    
     21899 MEMB     121      POPE     LP1C     LPD     -0.349000       0.00000          -1   0.00000       0.00000    
     21900 MEMB     121      POPE     LP1D     LPD     -0.258000       0.00000          -1   0.00000       0.00000    
     21901 MEMB     121      POPE     LPMC     LPD     -0.170000       0.00000          -1   0.00000       0.00000    
     21902 MEMB     121      POPE     LPMD     LPD     -0.170000       0.00000          -1   0.00000       0.00000    
     21903 MEMB     121      POPE     C23      CD32A     2.07980       11.6110           0  -1.66000       1.30000    
     21904 MEMB     121      POPE     DC23     DRUD     -2.23580      0.400000           0   0.00000       0.00000    
     21905 MEMB     121      POPE     H3R      HDA2A    0.780000E-01   1.00800           0   0.00000       0.00000    
     21906 MEMB     121      POPE     H3S      HDA2A    0.780000E-01   1.00800           0   0.00000       0.00000    
     21907 MEMB     121      POPE     C24      CD32A     2.07980       11.6110           0  -1.66000       1.30000    
     21908 MEMB     121      POPE     DC24     DRUD     -2.23580      0.400000           0   0.00000       0.00000    
     21909 MEMB     121      POPE     H4R      HDA2A    0.780000E-01   1.00800           0   0.00000       0.00000    
     21910 MEMB     121      POPE     H4S      HDA2A    0.780000E-01   1.00800           0   0.00000       0.00000    
     21911 MEMB     121      POPE     C25      CD32A     2.07980       11.6110           0  -1.66000       1.30000    
     21912 MEMB     121      POPE     DC25     DRUD     -2.23580      0.400000           0   0.00000       0.00000    
     21913 MEMB     121      POPE     H5R      HDA2A    0.780000E-01   1.00800           0   0.00000       0.00000    
     21914 MEMB     121      POPE     H5S      HDA2A    0.780000E-01   1.00800           0   0.00000       0.00000    
     21915 MEMB     121      POPE     C26      CD32A     2.07980       11.6110           0  -1.66000       1.30000    
     21916 MEMB     121      POPE     DC26     DRUD     -2.23580      0.400000           0   0.00000       0.00000    
     21917 MEMB     121      POPE     H6R      HDA2A    0.780000E-01   1.00800           0   0.00000       0.00000    
     21918 MEMB     121      POPE     H6S      HDA2A    0.780000E-01   1.00800           0   0.00000       0.00000    
     21919 MEMB     121      POPE     C27      CD32A     2.07980       11.6110           0  -1.66000       1.30000    
     21920 MEMB     121      POPE     DC27     DRUD     -2.23580      0.400000           0   0.00000       0.00000    
     21921 MEMB     121      POPE     H7R      HDA2A    0.780000E-01   1.00800           0   0.00000       0.00000    
     21922 MEMB     121      POPE     H7S      HDA2A    0.780000E-01   1.00800           0   0.00000       0.00000    
     21923 MEMB     121      POPE     C28      CD32A     2.07980       11.6110           0  -1.66000       1.30000    
     21924 MEMB     121      POPE     DC28     DRUD     -2.23580      0.400000           0   0.00000       0.00000    
     21925 MEMB     121      POPE     H8R      HDA2A    0.780000E-01   1.00800           0   0.00000       0.00000    
     21926 MEMB     121      POPE     H8S      HDA2A    0.780000E-01   1.00800           0   0.00000       0.00000    
     21927 MEMB     121      POPE     C29      CD2C1A    2.33700       11.6110           0  -1.99000      0.750000    
     21928 MEMB     121      POPE     DC29     DRUD     -2.44800      0.400000           0   0.00000       0.00000    
     21929 MEMB     121      POPE     H91      HD2C1A   0.111000       1.00800           0   0.00000       0.00000    
     21930 MEMB     121      POPE     C210     CD2C1A    2.33700       11.6110           0  -1.99000      0.750000    
     21931 MEMB     121      POPE     DC210    DRUD     -2.44800      0.400000           0   0.00000       0.00000    
     21932 MEMB     121      POPE     H101     HD2C1A   0.111000       1.00800           0   0.00000       0.00000    
     21933 MEMB     121      POPE     C211     CD32A     2.07980       11.6110           0  -1.66000       1.30000    
     21934 MEMB     121      POPE     DC211    DRUD     -2.23580      0.400000           0   0.00000       0.00000    
     21935 MEMB     121      POPE     H11R     HDA2A    0.780000E-01   1.00800           0   0.00000       0.00000    
     21936 MEMB     121      POPE     H11S     HDA2A    0.780000E-01   1.00800           0   0.00000       0.00000    
     21937 MEMB     121      POPE     C212     CD32A     2.07980       11.6110           0  -1.66000       1.30000    
     21938 MEMB     121      POPE     DC212    DRUD     -2.23580      0.400000           0   0.00000       0.00000    
     21939 MEMB     121      POPE     H12R     HDA2A    0.780000E-01   1.00800           0   0.00000       0.00000    
     21940 MEMB     121      POPE     H12S     HDA2A    0.780000E-01   1.00800           0   0.00000       0.00000    
     21941 MEMB     121      POPE     C213     CD32A     2.07980       11.6110           0  -1.66000       1.30000    
     21942 MEMB     121      POPE     DC213    DRUD     -2.23580      0.400000           0   0.00000       0.00000    
     21943 MEMB     121      POPE     H13R     HDA2A    0.780000E-01   1.00800           0   0.00000       0.00000    
     21944 MEMB     121      POPE     H13S     HDA2A    0.780000E-01   1.00800           0   0.00000       0.00000    
     21945 MEMB     121      POPE     C214     CD32A     2.07980       11.6110           0  -1.66000       1.30000    
     21946 MEMB     121      POPE     DC214    DRUD     -2.23580      0.400000           0   0.00000       0.00000    
     21947 MEMB     121      POPE     H14R     HDA2A    0.780000E-01   1.00800           0   0.00000       0.00000    
     21948 MEMB     121      POPE     H14S     HDA2A    0.780000E-01   1.00800           0   0.00000       0.00000    
     21949 MEMB     121      POPE     C215     CD32A     2.07980       11.6110           0  -1.66000       1.30000    
     21950 MEMB     121      POPE     DC215    DRUD     -2.23580      0.400000           0   0.00000       0.00000    
     21951 MEMB     121      POPE     H15R     HDA2A    0.780000E-01   1.00800           0   0.00000       0.00000    
     21952 MEMB     121      POPE     H15S     HDA2A    0.780000E-01   1.00800           0   0.00000       0.00000    
     21953 MEMB     121      POPE     C216     CD32A     2.07980       11.6110           0  -1.66000       1.30000    
     21954 MEMB     121      POPE     DC216    DRUD     -2.23580      0.400000           0   0.00000       0.00000    
     21955 MEMB     121      POPE     H16R     HDA2A    0.780000E-01   1.00800           0   0.00000       0.00000    
     21956 MEMB     121      POPE     H16S     HDA2A    0.780000E-01   1.00800           0   0.00000       0.00000    
     21957 MEMB     121      POPE     C217     CD32A     2.07980       11.6110           0  -1.66000       1.30000    
     21958 MEMB     121      POPE     DC217    DRUD     -2.23580      0.400000           0   0.00000       0.00000    
     21959 MEMB     121      POPE     H17R     HDA2A    0.780000E-01   1.00800           0   0.00000       0.00000    
     21960 MEMB     121      POPE     H17S     HDA2A    0.780000E-01   1.00800           0   0.00000       0.00000    
     21961 MEMB     121      POPE     C218     CD33A     2.30820       11.6110           0  -2.05100       1.30000    
     21962 MEMB     121      POPE     DC218    DRUD     -2.48520      0.400000           0   0.00000       0.00000    
     21963 MEMB     121      POPE     H18R     HDA3A    0.590000E-01   1.00800           0   0.00000       0.00000    
     21964 MEMB     121      POPE     H18S     HDA3A    0.590000E-01   1.00800           0   0.00000       0.00000    
     21965 MEMB     121      POPE     H18T     HDA3A    0.590000E-01   1.00800           0   0.00000       0.00000    
     21966 MEMB     121      POPE     C33      CD32A     2.07980       11.6110           0  -1.66000       1.30000    
     21967 MEMB     121      POPE     DC33     DRUD     -2.23580      0.400000           0   0.00000       0.00000    
     21968 MEMB     121      POPE     H3X      HDA2A    0.780000E-01   1.00800           0   0.00000       0.00000    
     21969 MEMB     121      POPE     H3Y      HDA2A    0.780000E-01   1.00800           0   0.00000       0.00000    
     21970 MEMB     121      POPE     C34      CD32A     2.07980       11.6110           0  -1.66000       1.30000    
     21971 MEMB     121      POPE     DC34     DRUD     -2.23580      0.400000           0   0.00000       0.00000    
     21972 MEMB     121      POPE     H4X      HDA2A    0.780000E-01   1.00800           0   0.00000       0.00000    
     21973 MEMB     121      POPE     H4Y      HDA2A    0.780000E-01   1.00800           0   0.00000       0.00000    
     21974 MEMB     121      POPE     C35      CD32A     2.07980       11.6110           0  -1.66000       1.30000    
     21975 MEMB     121      POPE     DC35     DRUD     -2.23580      0.400000           0   0.00000       0.00000    
     21976 MEMB     121      POPE     H5X      HDA2A    0.780000E-01   1.00800           0   0.00000       0.00000    
     21977 MEMB     121      POPE     H5Y      HDA2A    0.780000E-01   1.00800           0   0.00000       0.00000    
     21978 MEMB     121      POPE     C36      CD32A     2.07980       11.6110           0  -1.66000       1.30000    
     21979 MEMB     121      POPE     DC36     DRUD     -2.23580      0.400000           0   0.00000       0.00000    
     21980 MEMB     121      POPE     H6X      HDA2A    0.780000E-01   1.00800           0   0.00000       0.00000    
     21981 MEMB     121      POPE     H6Y      HDA2A    0.780000E-01   1.00800           0   0.00000       0.00000    
     21982 MEMB     121      POPE     C37      CD32A     2.07980       11.6110           0  -1.66000       1.30000    
     21983 MEMB     121      POPE     DC37     DRUD     -2.23580      0.400000           0   0.00000       0.00000    
     21984 MEMB     121      POPE     H7X      HDA2A    0.780000E-01   1.00800           0   0.00000       0.00000    
     21985 MEMB     121      POPE     H7Y      HDA2A    0.780000E-01   1.00800           0   0.00000       0.00000    
     21986 MEMB     121      POPE     C38      CD32A     2.07980       11.6110           0  -1.66000       1.30000    
     21987 MEMB     121      POPE     DC38     DRUD     -2.23580      0.400000           0   0.00000       0.00000    
     21988 MEMB     121      POPE     H8X      HDA2A    0.780000E-01   1.00800           0   0.00000       0.00000    
     21989 MEMB     121      POPE     H8Y      HDA2A    0.780000E-01   1.00800           0   0.00000       0.00000    
     21990 MEMB     121      POPE     C39      CD32A     2.07980       11.6110           0  -1.66000       1.30000    
     21991 MEMB     121      POPE     DC39     DRUD     -2.23580      0.400000           0   0.00000       0.00000    
     21992 MEMB     121      POPE     H9X      HDA2A    0.780000E-01   1.00800           0   0.00000       0.00000    
     21993 MEMB     121      POPE     H9Y      HDA2A    0.780000E-01   1.00800           0   0.00000       0.00000    
     21994 MEMB     121      POPE     C310     CD32A     2.07980       11.6110           0  -1.66000       1.30000    
     21995 MEMB     121      POPE     DC310    DRUD     -2.23580      0.400000           0   0.00000       0.00000    
     21996 MEMB     121      POPE     H10X     HDA2A    0.780000E-01   1.00800           0   0.00000       0.00000    
     21997 MEMB     121      POPE     H10Y     HDA2A    0.780000E-01   1.00800           0   0.00000       0.00000    
     21998 MEMB     121      POPE     C311     CD32A     2.07980       11.6110           0  -1.66000       1.30000    
     21999 MEMB     121      POPE     DC311    DRUD     -2.23580      0.400000           0   0.00000       0.00000    
     22000 MEMB     121      POPE     H11X     HDA2A    0.780000E-01   1.00800           0   0.00000       0.00000    
     22001 MEMB     121      POPE     H11Y     HDA2A    0.780000E-01   1.00800           0   0.00000       0.00000    
     22002 MEMB     121      POPE     C312     CD32A     2.07980       11.6110           0  -1.66000       1.30000    
     22003 MEMB     121      POPE     DC312    DRUD     -2.23580      0.400000           0   0.00000       0.00000    
     22004 MEMB     121      POPE     H12X     HDA2A    0.780000E-01   1.00800           0   0.00000       0.00000    
     22005 MEMB     121      POPE     H12Y     HDA2A    0.780000E-01   1.00800           0   0.00000       0.00000    
     22006 MEMB     121      POPE     C313     CD32A     2.07980       11.6110           0  -1.66000       1.30000    
     22007 MEMB     121      POPE     DC313    DRUD     -2.23580      0.400000           0   0.00000       0.00000    
     22008 MEMB     121      POPE     H13X     HDA2A    0.780000E-01   1.00800           0   0.00000       0.00000    
     22009 MEMB     121      POPE     H13Y     HDA2A    0.780000E-01   1.00800           0   0.00000       0.00000    
     22010 MEMB     121      POPE     C314     CD32A     2.07980       11.6110           0  -1.66000       1.30000    
     22011 MEMB     121      POPE     DC314    DRUD     -2.23580      0.400000           0   0.00000       0.00000    
     22012 MEMB     121      POPE     H14X     HDA2A    0.780000E-01   1.00800           0   0.00000       0.00000    
     22013 MEMB     121      POPE     H14Y     HDA2A    0.780000E-01   1.00800           0   0.00000       0.00000    
     22014 MEMB     121      POPE     C315     CD32A     2.07980       11.6110           0  -1.66000       1.30000    
     22015 MEMB     121      POPE     DC315    DRUD     -2.23580      0.400000           0   0.00000       0.00000    
     22016 MEMB     121      POPE     H15X     HDA2A    0.780000E-01   1.00800           0   0.00000       0.00000    
     22017 MEMB     121      POPE     H15Y     HDA2A    0.780000E-01   1.00800           0   0.00000       0.00000    
     22018 MEMB     121      POPE     C316     CD33A     2.30820       11.6110           0  -2.05100       1.30000    
     22019 MEMB     121      POPE     DC316    DRUD     -2.48520      0.400000           0   0.00000       0.00000    
     22020 MEMB     121      POPE     H16X     HDA3A    0.590000E-01   1.00800           0   0.00000       0.00000    
     22021 MEMB     121      POPE     H16Y     HDA3A    0.590000E-01   1.00800           0   0.00000       0.00000    
     22022 MEMB     121      POPE     H16Z     HDA3A    0.590000E-01   1.00800           0   0.00000       0.00000    
     22023 MEMB     122      POPE     N        ND3P3A    1.62810       13.6070           0  -1.29800      0.895000    
     22024 MEMB     122      POPE     DN       DRUD     -1.97710      0.400000           0   0.00000       0.00000    
     22025 MEMB     122      POPE     HN1      HDP1B    0.340000       1.00800           0   0.00000       0.00000    
     22026 MEMB     122      POPE     HN2      HDP1B    0.340000       1.00800           0   0.00000       0.00000    
     22027 MEMB     122      POPE     HN3      HDP1B    0.340000       1.00800           0   0.00000       0.00000    
     22028 MEMB     122      POPE     C12      CD32A     2.27610       11.6110           0  -1.65600      0.895000    
     22029 MEMB     122      POPE     DC12     DRUD     -2.23310      0.400000           0   0.00000       0.00000    
     22030 MEMB     122      POPE     H12A     HDA2A    0.143000       1.00800           0   0.00000       0.00000    
     22031 MEMB     122      POPE     H12B     HDA2A    0.143000       1.00800           0   0.00000       0.00000    
     22032 MEMB     122      POPE     C11      CD32A     2.42220       11.6110           0  -1.64200      0.862000    
     22033 MEMB     122      POPE     DC11     DRUD     -2.22370      0.400000           0   0.00000       0.00000    
     22034 MEMB     122      POPE     H11A     HDA2A    0.260000E-01   1.00800           0   0.00000       0.00000    
     22035 MEMB     122      POPE     H11B     HDA2A    0.260000E-01   1.00800           0   0.00000       0.00000    
     22036 MEMB     122      POPE     P        PD1A      2.90360       30.5740           0 -0.974000       2.09800    
     22037 MEMB     122      POPE     DP       DRUD     -1.71260      0.400000           0   0.00000       0.00000    
     22038 MEMB     122      POPE     O13      OD2C2B   0.798400       15.5994           0 -0.931000       1.08300    
     22039 MEMB     122      POPE     DO13     DRUD     -1.67440      0.400000           0   0.00000       0.00000    
     22040 MEMB     122      POPE     O14      OD2C2B   0.798400       15.5994           0 -0.931000       1.08300    
     22041 MEMB     122      POPE     DO14     DRUD     -1.67440      0.400000           0   0.00000       0.00000    
     22042 MEMB     122      POPE     O11      OD30B     1.17720       15.5994           0 -0.901000      0.181000    
     22043 MEMB     122      POPE     DO11     DRUD     -1.64720      0.400000           0   0.00000       0.00000    
     22044 MEMB     122      POPE     O12      OD30B     1.17720       15.5994           0 -0.901000      0.181000    
     22045 MEMB     122      POPE     DO12     DRUD     -1.64720      0.400000           0   0.00000       0.00000    
     22046 MEMB     122      POPE     C1       CD32A     2.42220       11.6110           0  -1.64200      0.862000    
     22047 MEMB     122      POPE     DC1      DRUD     -2.22370      0.400000           0   0.00000       0.00000    
     22048 MEMB     122      POPE     HA       HDA2A    0.260000E-01   1.00800           0   0.00000       0.00000    
     22049 MEMB     122      POPE     HB       HDA2A    0.260000E-01   1.00800           0   0.00000       0.00000    
     22050 MEMB     122      POPE     C2       CD31C     2.52830       11.6110           0  -1.79700      0.410000    
     22051 MEMB     122      POPE     DC2      DRUD     -2.32630      0.400000           0   0.00000       0.00000    
     22052 MEMB     122      POPE     HS       HDA1A    0.116000       1.00800           0   0.00000       0.00000    
     22053 MEMB     122      POPE     O21      OD30CL    1.48470       15.5994           0 -0.732000      0.601000    
     22054 MEMB     122      POPE     DO21     DRUD     -1.48470      0.400000           0   0.00000       0.00000    
     22055 MEMB     122      POPE     C21      CD2O3B    2.72820       11.6110           0  -1.37000       1.74700    
     22056 MEMB     122      POPE     DC21     DRUD     -2.03120      0.400000           0   0.00000       0.00000    
     22057 MEMB     122      POPE     O22      OD2C3B    1.64990       15.5994           0 -0.904000      0.565000    
     22058 MEMB     122      POPE     DO22     DRUD     -1.64990      0.400000           0   0.00000       0.00000    
     22059 MEMB     122      POPE     C22      CD32C     2.24380       11.6110           0  -1.99300      0.410000    
     22060 MEMB     122      POPE     DC22     DRUD     -2.44980      0.400000           0   0.00000       0.00000    
     22061 MEMB     122      POPE     H2R      HDA2A    0.690000E-01   1.00800           0   0.00000       0.00000    
     22062 MEMB     122      POPE     H2S      HDA2A    0.690000E-01   1.00800           0   0.00000       0.00000    
     22063 MEMB     122      POPE     LP1A     LPD     -0.349000       0.00000          -1   0.00000       0.00000    
     22064 MEMB     122      POPE     LP1B     LPD     -0.258000       0.00000          -1   0.00000       0.00000    
     22065 MEMB     122      POPE     LPMA     LPD     -0.170000       0.00000          -1   0.00000       0.00000    
     22066 MEMB     122      POPE     LPMB     LPD     -0.170000       0.00000          -1   0.00000       0.00000    
     22067 MEMB     122      POPE     C3       CD32C     2.41230       11.6110           0  -1.79700      0.410000    
     22068 MEMB     122      POPE     DC3      DRUD     -2.32630      0.400000           0   0.00000       0.00000    
     22069 MEMB     122      POPE     HX       HDA2A    0.116000       1.00800           0   0.00000       0.00000    
     22070 MEMB     122      POPE     HY       HDA2A    0.116000       1.00800           0   0.00000       0.00000    
     22071 MEMB     122      POPE     O31      OD30CL    1.48470       15.5994           0 -0.732000      0.601000    
     22072 MEMB     122      POPE     DO31     DRUD     -1.48470      0.400000           0   0.00000       0.00000    
     22073 MEMB     122      POPE     C31      CD2O3B    2.72820       11.6110           0  -1.37000       1.74700    
     22074 MEMB     122      POPE     DC31     DRUD     -2.03120      0.400000           0   0.00000       0.00000    
     22075 MEMB     122      POPE     O32      OD2C3B    1.64990       15.5994           0 -0.904000      0.565000    
     22076 MEMB     122      POPE     DO32     DRUD     -1.64990      0.400000           0   0.00000       0.00000    
     22077 MEMB     122      POPE     C32      CD32C     2.24380       11.6110           0  -1.99300      0.410000    
     22078 MEMB     122      POPE     DC32     DRUD     -2.44980      0.400000           0   0.00000       0.00000    
     22079 MEMB     122      POPE     H2X      HDA2A    0.690000E-01   1.00800           0   0.00000       0.00000    
     22080 MEMB     122      POPE     H2Y      HDA2A    0.690000E-01   1.00800           0   0.00000       0.00000    
     22081 MEMB     122      POPE     LP1C     LPD     -0.349000       0.00000          -1   0.00000       0.00000    
     22082 MEMB     122      POPE     LP1D     LPD     -0.258000       0.00000          -1   0.00000       0.00000    
     22083 MEMB     122      POPE     LPMC     LPD     -0.170000       0.00000          -1   0.00000       0.00000    
     22084 MEMB     122      POPE     LPMD     LPD     -0.170000       0.00000          -1   0.00000       0.00000    
     22085 MEMB     122      POPE     C23      CD32A     2.07980       11.6110           0  -1.66000       1.30000    
     22086 MEMB     122      POPE     DC23     DRUD     -2.23580      0.400000           0   0.00000       0.00000    
     22087 MEMB     122      POPE     H3R      HDA2A    0.780000E-01   1.00800           0   0.00000       0.00000    
     22088 MEMB     122      POPE     H3S      HDA2A    0.780000E-01   1.00800           0   0.00000       0.00000    
     22089 MEMB     122      POPE     C24      CD32A     2.07980       11.6110           0  -1.66000       1.30000    
     22090 MEMB     122      POPE     DC24     DRUD     -2.23580      0.400000           0   0.00000       0.00000    
     22091 MEMB     122      POPE     H4R      HDA2A    0.780000E-01   1.00800           0   0.00000       0.00000    
     22092 MEMB     122      POPE     H4S      HDA2A    0.780000E-01   1.00800           0   0.00000       0.00000    
     22093 MEMB     122      POPE     C25      CD32A     2.07980       11.6110           0  -1.66000       1.30000    
     22094 MEMB     122      POPE     DC25     DRUD     -2.23580      0.400000           0   0.00000       0.00000    
     22095 MEMB     122      POPE     H5R      HDA2A    0.780000E-01   1.00800           0   0.00000       0.00000    
     22096 MEMB     122      POPE     H5S      HDA2A    0.780000E-01   1.00800           0   0.00000       0.00000    
     22097 MEMB     122      POPE     C26      CD32A     2.07980       11.6110           0  -1.66000       1.30000    
     22098 MEMB     122      POPE     DC26     DRUD     -2.23580      0.400000           0   0.00000       0.00000    
     22099 MEMB     122      POPE     H6R      HDA2A    0.780000E-01   1.00800           0   0.00000       0.00000    
     22100 MEMB     122      POPE     H6S      HDA2A    0.780000E-01   1.00800           0   0.00000       0.00000    
     22101 MEMB     122      POPE     C27      CD32A     2.07980       11.6110           0  -1.66000       1.30000    
     22102 MEMB     122      POPE     DC27     DRUD     -2.23580      0.400000           0   0.00000       0.00000    
     22103 MEMB     122      POPE     H7R      HDA2A    0.780000E-01   1.00800           0   0.00000       0.00000    
     22104 MEMB     122      POPE     H7S      HDA2A    0.780000E-01   1.00800           0   0.00000       0.00000    
     22105 MEMB     122      POPE     C28      CD32A     2.07980       11.6110           0  -1.66000       1.30000    
     22106 MEMB     122      POPE     DC28     DRUD     -2.23580      0.400000           0   0.00000       0.00000    
     22107 MEMB     122      POPE     H8R      HDA2A    0.780000E-01   1.00800           0   0.00000       0.00000    
     22108 MEMB     122      POPE     H8S      HDA2A    0.780000E-01   1.00800           0   0.00000       0.00000    
     22109 MEMB     122      POPE     C29      CD2C1A    2.33700       11.6110           0  -1.99000      0.750000    
     22110 MEMB     122      POPE     DC29     DRUD     -2.44800      0.400000           0   0.00000       0.00000    
     22111 MEMB     122      POPE     H91      HD2C1A   0.111000       1.00800           0   0.00000       0.00000    
     22112 MEMB     122      POPE     C210     CD2C1A    2.33700       11.6110           0  -1.99000      0.750000    
     22113 MEMB     122      POPE     DC210    DRUD     -2.44800      0.400000           0   0.00000       0.00000    
     22114 MEMB     122      POPE     H101     HD2C1A   0.111000       1.00800           0   0.00000       0.00000    
     22115 MEMB     122      POPE     C211     CD32A     2.07980       11.6110           0  -1.66000       1.30000    
     22116 MEMB     122      POPE     DC211    DRUD     -2.23580      0.400000           0   0.00000       0.00000    
     22117 MEMB     122      POPE     H11R     HDA2A    0.780000E-01   1.00800           0   0.00000       0.00000    
     22118 MEMB     122      POPE     H11S     HDA2A    0.780000E-01   1.00800           0   0.00000       0.00000    
     22119 MEMB     122      POPE     C212     CD32A     2.07980       11.6110           0  -1.66000       1.30000    
     22120 MEMB     122      POPE     DC212    DRUD     -2.23580      0.400000           0   0.00000       0.00000    
     22121 MEMB     122      POPE     H12R     HDA2A    0.780000E-01   1.00800           0   0.00000       0.00000    
     22122 MEMB     122      POPE     H12S     HDA2A    0.780000E-01   1.00800           0   0.00000       0.00000    
     22123 MEMB     122      POPE     C213     CD32A     2.07980       11.6110           0  -1.66000       1.30000    
     22124 MEMB     122      POPE     DC213    DRUD     -2.23580      0.400000           0   0.00000       0.00000    
     22125 MEMB     122      POPE     H13R     HDA2A    0.780000E-01   1.00800           0   0.00000       0.00000    
     22126 MEMB     122      POPE     H13S     HDA2A    0.780000E-01   1.00800           0   0.00000       0.00000    
     22127 MEMB     122      POPE     C214     CD32A     2.07980       11.6110           0  -1.66000       1.30000    
     22128 MEMB     122      POPE     DC214    DRUD     -2.23580      0.400000           0   0.00000       0.00000    
     22129 MEMB     122      POPE     H14R     HDA2A    0.780000E-01   1.00800           0   0.00000       0.00000    
     22130 MEMB     122      POPE     H14S     HDA2A    0.780000E-01   1.00800           0   0.00000       0.00000    
     22131 MEMB     122      POPE     C215     CD32A     2.07980       11.6110           0  -1.66000       1.30000    
     22132 MEMB     122      POPE     DC215    DRUD     -2.23580      0.400000           0   0.00000       0.00000    
     22133 MEMB     122      POPE     H15R     HDA2A    0.780000E-01   1.00800           0   0.00000       0.00000    
     22134 MEMB     122      POPE     H15S     HDA2A    0.780000E-01   1.00800           0   0.00000       0.00000    
     22135 MEMB     122      POPE     C216     CD32A     2.07980       11.6110           0  -1.66000       1.30000    
     22136 MEMB     122      POPE     DC216    DRUD     -2.23580      0.400000           0   0.00000       0.00000    
     22137 MEMB     122      POPE     H16R     HDA2A    0.780000E-01   1.00800           0   0.00000       0.00000    
     22138 MEMB     122      POPE     H16S     HDA2A    0.780000E-01   1.00800           0   0.00000       0.00000    
     22139 MEMB     122      POPE     C217     CD32A     2.07980       11.6110           0  -1.66000       1.30000    
     22140 MEMB     122      POPE     DC217    DRUD     -2.23580      0.400000           0   0.00000       0.00000    
     22141 MEMB     122      POPE     H17R     HDA2A    0.780000E-01   1.00800           0   0.00000       0.00000    
     22142 MEMB     122      POPE     H17S     HDA2A    0.780000E-01   1.00800           0   0.00000       0.00000    
     22143 MEMB     122      POPE     C218     CD33A     2.30820       11.6110           0  -2.05100       1.30000    
     22144 MEMB     122      POPE     DC218    DRUD     -2.48520      0.400000           0   0.00000       0.00000    
     22145 MEMB     122      POPE     H18R     HDA3A    0.590000E-01   1.00800           0   0.00000       0.00000    
     22146 MEMB     122      POPE     H18S     HDA3A    0.590000E-01   1.00800           0   0.00000       0.00000    
     22147 MEMB     122      POPE     H18T     HDA3A    0.590000E-01   1.00800           0   0.00000       0.00000    
     22148 MEMB     122      POPE     C33      CD32A     2.07980       11.6110           0  -1.66000       1.30000    
     22149 MEMB     122      POPE     DC33     DRUD     -2.23580      0.400000           0   0.00000       0.00000    
     22150 MEMB     122      POPE     H3X      HDA2A    0.780000E-01   1.00800           0   0.00000       0.00000    
     22151 MEMB     122      POPE     H3Y      HDA2A    0.780000E-01   1.00800           0   0.00000       0.00000    
     22152 MEMB     122      POPE     C34      CD32A     2.07980       11.6110           0  -1.66000       1.30000    
     22153 MEMB     122      POPE     DC34     DRUD     -2.23580      0.400000           0   0.00000       0.00000    
     22154 MEMB     122      POPE     H4X      HDA2A    0.780000E-01   1.00800           0   0.00000       0.00000    
     22155 MEMB     122      POPE     H4Y      HDA2A    0.780000E-01   1.00800           0   0.00000       0.00000    
     22156 MEMB     122      POPE     C35      CD32A     2.07980       11.6110           0  -1.66000       1.30000    
     22157 MEMB     122      POPE     DC35     DRUD     -2.23580      0.400000           0   0.00000       0.00000    
     22158 MEMB     122      POPE     H5X      HDA2A    0.780000E-01   1.00800           0   0.00000       0.00000    
     22159 MEMB     122      POPE     H5Y      HDA2A    0.780000E-01   1.00800           0   0.00000       0.00000    
     22160 MEMB     122      POPE     C36      CD32A     2.07980       11.6110           0  -1.66000       1.30000    
     22161 MEMB     122      POPE     DC36     DRUD     -2.23580      0.400000           0   0.00000       0.00000    
     22162 MEMB     122      POPE     H6X      HDA2A    0.780000E-01   1.00800           0   0.00000       0.00000    
     22163 MEMB     122      POPE     H6Y      HDA2A    0.780000E-01   1.00800           0   0.00000       0.00000    
     22164 MEMB     122      POPE     C37      CD32A     2.07980       11.6110           0  -1.66000       1.30000    
     22165 MEMB     122      POPE     DC37     DRUD     -2.23580      0.400000           0   0.00000       0.00000    
     22166 MEMB     122      POPE     H7X      HDA2A    0.780000E-01   1.00800           0   0.00000       0.00000    
     22167 MEMB     122      POPE     H7Y      HDA2A    0.780000E-01   1.00800           0   0.00000       0.00000    
     22168 MEMB     122      POPE     C38      CD32A     2.07980       11.6110           0  -1.66000       1.30000    
     22169 MEMB     122      POPE     DC38     DRUD     -2.23580      0.400000           0   0.00000       0.00000    
     22170 MEMB     122      POPE     H8X      HDA2A    0.780000E-01   1.00800           0   0.00000       0.00000    
     22171 MEMB     122      POPE     H8Y      HDA2A    0.780000E-01   1.00800           0   0.00000       0.00000    
     22172 MEMB     122      POPE     C39      CD32A     2.07980       11.6110           0  -1.66000       1.30000    
     22173 MEMB     122      POPE     DC39     DRUD     -2.23580      0.400000           0   0.00000       0.00000    
     22174 MEMB     122      POPE     H9X      HDA2A    0.780000E-01   1.00800           0   0.00000       0.00000    
     22175 MEMB     122      POPE     H9Y      HDA2A    0.780000E-01   1.00800           0   0.00000       0.00000    
     22176 MEMB     122      POPE     C310     CD32A     2.07980       11.6110           0  -1.66000       1.30000    
     22177 MEMB     122      POPE     DC310    DRUD     -2.23580      0.400000           0   0.00000       0.00000    
     22178 MEMB     122      POPE     H10X     HDA2A    0.780000E-01   1.00800           0   0.00000       0.00000    
     22179 MEMB     122      POPE     H10Y     HDA2A    0.780000E-01   1.00800           0   0.00000       0.00000    
     22180 MEMB     122      POPE     C311     CD32A     2.07980       11.6110           0  -1.66000       1.30000    
     22181 MEMB     122      POPE     DC311    DRUD     -2.23580      0.400000           0   0.00000       0.00000    
     22182 MEMB     122      POPE     H11X     HDA2A    0.780000E-01   1.00800           0   0.00000       0.00000    
     22183 MEMB     122      POPE     H11Y     HDA2A    0.780000E-01   1.00800           0   0.00000       0.00000    
     22184 MEMB     122      POPE     C312     CD32A     2.07980       11.6110           0  -1.66000       1.30000    
     22185 MEMB     122      POPE     DC312    DRUD     -2.23580      0.400000           0   0.00000       0.00000    
     22186 MEMB     122      POPE     H12X     HDA2A    0.780000E-01   1.00800           0   0.00000       0.00000    
     22187 MEMB     122      POPE     H12Y     HDA2A    0.780000E-01   1.00800           0   0.00000       0.00000    
     22188 MEMB     122      POPE     C313     CD32A     2.07980       11.6110           0  -1.66000       1.30000    
     22189 MEMB     122      POPE     DC313    DRUD     -2.23580      0.400000           0   0.00000       0.00000    
     22190 MEMB     122      POPE     H13X     HDA2A    0.780000E-01   1.00800           0   0.00000       0.00000    
     22191 MEMB     122      POPE     H13Y     HDA2A    0.780000E-01   1.00800           0   0.00000       0.00000    
     22192 MEMB     122      POPE     C314     CD32A     2.07980       11.6110           0  -1.66000       1.30000    
     22193 MEMB     122      POPE     DC314    DRUD     -2.23580      0.400000           0   0.00000       0.00000    
     22194 MEMB     122      POPE     H14X     HDA2A    0.780000E-01   1.00800           0   0.00000       0.00000    
     22195 MEMB     122      POPE     H14Y     HDA2A    0.780000E-01   1.00800           0   0.00000       0.00000    
     22196 MEMB     122      POPE     C315     CD32A     2.07980       11.6110           0  -1.66000       1.30000    
     22197 MEMB     122      POPE     DC315    DRUD     -2.23580      0.400000           0   0.00000       0.00000    
     22198 MEMB     122      POPE     H15X     HDA2A    0.780000E-01   1.00800           0   0.00000       0.00000    
     22199 MEMB     122      POPE     H15Y     HDA2A    0.780000E-01   1.00800           0   0.00000       0.00000    
     22200 MEMB     122      POPE     C316     CD33A     2.30820       11.6110           0  -2.05100       1.30000    
     22201 MEMB     122      POPE     DC316    DRUD     -2.48520      0.400000           0   0.00000       0.00000    
     22202 MEMB     122      POPE     H16X     HDA3A    0.590000E-01   1.00800           0   0.00000       0.00000    
     22203 MEMB     122      POPE     H16Y     HDA3A    0.590000E-01   1.00800           0   0.00000       0.00000    
     22204 MEMB     122      POPE     H16Z     HDA3A    0.590000E-01   1.00800           0   0.00000       0.00000    
     22205 MEMB     123      POPE     N        ND3P3A    1.62810       13.6070           0  -1.29800      0.895000    
     22206 MEMB     123      POPE     DN       DRUD     -1.97710      0.400000           0   0.00000       0.00000    
     22207 MEMB     123      POPE     HN1      HDP1B    0.340000       1.00800           0   0.00000       0.00000    
     22208 MEMB     123      POPE     HN2      HDP1B    0.340000       1.00800           0   0.00000       0.00000    
     22209 MEMB     123      POPE     HN3      HDP1B    0.340000       1.00800           0   0.00000       0.00000    
     22210 MEMB     123      POPE     C12      CD32A     2.27610       11.6110           0  -1.65600      0.895000    
     22211 MEMB     123      POPE     DC12     DRUD     -2.23310      0.400000           0   0.00000       0.00000    
     22212 MEMB     123      POPE     H12A     HDA2A    0.143000       1.00800           0   0.00000       0.00000    
     22213 MEMB     123      POPE     H12B     HDA2A    0.143000       1.00800           0   0.00000       0.00000    
     22214 MEMB     123      POPE     C11      CD32A     2.42220       11.6110           0  -1.64200      0.862000    
     22215 MEMB     123      POPE     DC11     DRUD     -2.22370      0.400000           0   0.00000       0.00000    
     22216 MEMB     123      POPE     H11A     HDA2A    0.260000E-01   1.00800           0   0.00000       0.00000    
     22217 MEMB     123      POPE     H11B     HDA2A    0.260000E-01   1.00800           0   0.00000       0.00000    
     22218 MEMB     123      POPE     P        PD1A      2.90360       30.5740           0 -0.974000       2.09800    
     22219 MEMB     123      POPE     DP       DRUD     -1.71260      0.400000           0   0.00000       0.00000    
     22220 MEMB     123      POPE     O13      OD2C2B   0.798400       15.5994           0 -0.931000       1.08300    
     22221 MEMB     123      POPE     DO13     DRUD     -1.67440      0.400000           0   0.00000       0.00000    
     22222 MEMB     123      POPE     O14      OD2C2B   0.798400       15.5994           0 -0.931000       1.08300    
     22223 MEMB     123      POPE     DO14     DRUD     -1.67440      0.400000           0   0.00000       0.00000    
     22224 MEMB     123      POPE     O11      OD30B     1.17720       15.5994           0 -0.901000      0.181000    
     22225 MEMB     123      POPE     DO11     DRUD     -1.64720      0.400000           0   0.00000       0.00000    
     22226 MEMB     123      POPE     O12      OD30B     1.17720       15.5994           0 -0.901000      0.181000    
     22227 MEMB     123      POPE     DO12     DRUD     -1.64720      0.400000           0   0.00000       0.00000    
     22228 MEMB     123      POPE     C1       CD32A     2.42220       11.6110           0  -1.64200      0.862000    
     22229 MEMB     123      POPE     DC1      DRUD     -2.22370      0.400000           0   0.00000       0.00000    
     22230 MEMB     123      POPE     HA       HDA2A    0.260000E-01   1.00800           0   0.00000       0.00000    
     22231 MEMB     123      POPE     HB       HDA2A    0.260000E-01   1.00800           0   0.00000       0.00000    
     22232 MEMB     123      POPE     C2       CD31C     2.52830       11.6110           0  -1.79700      0.410000    
     22233 MEMB     123      POPE     DC2      DRUD     -2.32630      0.400000           0   0.00000       0.00000    
     22234 MEMB     123      POPE     HS       HDA1A    0.116000       1.00800           0   0.00000       0.00000    
     22235 MEMB     123      POPE     O21      OD30CL    1.48470       15.5994           0 -0.732000      0.601000    
     22236 MEMB     123      POPE     DO21     DRUD     -1.48470      0.400000           0   0.00000       0.00000    
     22237 MEMB     123      POPE     C21      CD2O3B    2.72820       11.6110           0  -1.37000       1.74700    
     22238 MEMB     123      POPE     DC21     DRUD     -2.03120      0.400000           0   0.00000       0.00000    
     22239 MEMB     123      POPE     O22      OD2C3B    1.64990       15.5994           0 -0.904000      0.565000    
     22240 MEMB     123      POPE     DO22     DRUD     -1.64990      0.400000           0   0.00000       0.00000    
     22241 MEMB     123      POPE     C22      CD32C     2.24380       11.6110           0  -1.99300      0.410000    
     22242 MEMB     123      POPE     DC22     DRUD     -2.44980      0.400000           0   0.00000       0.00000    
     22243 MEMB     123      POPE     H2R      HDA2A    0.690000E-01   1.00800           0   0.00000       0.00000    
     22244 MEMB     123      POPE     H2S      HDA2A    0.690000E-01   1.00800           0   0.00000       0.00000    
     22245 MEMB     123      POPE     LP1A     LPD     -0.349000       0.00000          -1   0.00000       0.00000    
     22246 MEMB     123      POPE     LP1B     LPD     -0.258000       0.00000          -1   0.00000       0.00000    
     22247 MEMB     123      POPE     LPMA     LPD     -0.170000       0.00000          -1   0.00000       0.00000    
     22248 MEMB     123      POPE     LPMB     LPD     -0.170000       0.00000          -1   0.00000       0.00000    
     22249 MEMB     123      POPE     C3       CD32C     2.41230       11.6110           0  -1.79700      0.410000    
     22250 MEMB     123      POPE     DC3      DRUD     -2.32630      0.400000           0   0.00000       0.00000    
     22251 MEMB     123      POPE     HX       HDA2A    0.116000       1.00800           0   0.00000       0.00000    
     22252 MEMB     123      POPE     HY       HDA2A    0.116000       1.00800           0   0.00000       0.00000    
     22253 MEMB     123      POPE     O31      OD30CL    1.48470       15.5994           0 -0.732000      0.601000    
     22254 MEMB     123      POPE     DO31     DRUD     -1.48470      0.400000           0   0.00000       0.00000    
     22255 MEMB     123      POPE     C31      CD2O3B    2.72820       11.6110           0  -1.37000       1.74700    
     22256 MEMB     123      POPE     DC31     DRUD     -2.03120      0.400000           0   0.00000       0.00000    
     22257 MEMB     123      POPE     O32      OD2C3B    1.64990       15.5994           0 -0.904000      0.565000    
     22258 MEMB     123      POPE     DO32     DRUD     -1.64990      0.400000           0   0.00000       0.00000    
     22259 MEMB     123      POPE     C32      CD32C     2.24380       11.6110           0  -1.99300      0.410000    
     22260 MEMB     123      POPE     DC32     DRUD     -2.44980      0.400000           0   0.00000       0.00000    
     22261 MEMB     123      POPE     H2X      HDA2A    0.690000E-01   1.00800           0   0.00000       0.00000    
     22262 MEMB     123      POPE     H2Y      HDA2A    0.690000E-01   1.00800           0   0.00000       0.00000    
     22263 MEMB     123      POPE     LP1C     LPD     -0.349000       0.00000          -1   0.00000       0.00000    
     22264 MEMB     123      POPE     LP1D     LPD     -0.258000       0.00000          -1   0.00000       0.00000    
     22265 MEMB     123      POPE     LPMC     LPD     -0.170000       0.00000          -1   0.00000       0.00000    
     22266 MEMB     123      POPE     LPMD     LPD     -0.170000       0.00000          -1   0.00000       0.00000    
     22267 MEMB     123      POPE     C23      CD32A     2.07980       11.6110           0  -1.66000       1.30000    
     22268 MEMB     123      POPE     DC23     DRUD     -2.23580      0.400000           0   0.00000       0.00000    
     22269 MEMB     123      POPE     H3R      HDA2A    0.780000E-01   1.00800           0   0.00000       0.00000    
     22270 MEMB     123      POPE     H3S      HDA2A    0.780000E-01   1.00800           0   0.00000       0.00000    
     22271 MEMB     123      POPE     C24      CD32A     2.07980       11.6110           0  -1.66000       1.30000    
     22272 MEMB     123      POPE     DC24     DRUD     -2.23580      0.400000           0   0.00000       0.00000    
     22273 MEMB     123      POPE     H4R      HDA2A    0.780000E-01   1.00800           0   0.00000       0.00000    
     22274 MEMB     123      POPE     H4S      HDA2A    0.780000E-01   1.00800           0   0.00000       0.00000    
     22275 MEMB     123      POPE     C25      CD32A     2.07980       11.6110           0  -1.66000       1.30000    
     22276 MEMB     123      POPE     DC25     DRUD     -2.23580      0.400000           0   0.00000       0.00000    
     22277 MEMB     123      POPE     H5R      HDA2A    0.780000E-01   1.00800           0   0.00000       0.00000    
     22278 MEMB     123      POPE     H5S      HDA2A    0.780000E-01   1.00800           0   0.00000       0.00000    
     22279 MEMB     123      POPE     C26      CD32A     2.07980       11.6110           0  -1.66000       1.30000    
     22280 MEMB     123      POPE     DC26     DRUD     -2.23580      0.400000           0   0.00000       0.00000    
     22281 MEMB     123      POPE     H6R      HDA2A    0.780000E-01   1.00800           0   0.00000       0.00000    
     22282 MEMB     123      POPE     H6S      HDA2A    0.780000E-01   1.00800           0   0.00000       0.00000    
     22283 MEMB     123      POPE     C27      CD32A     2.07980       11.6110           0  -1.66000       1.30000    
     22284 MEMB     123      POPE     DC27     DRUD     -2.23580      0.400000           0   0.00000       0.00000    
     22285 MEMB     123      POPE     H7R      HDA2A    0.780000E-01   1.00800           0   0.00000       0.00000    
     22286 MEMB     123      POPE     H7S      HDA2A    0.780000E-01   1.00800           0   0.00000       0.00000    
     22287 MEMB     123      POPE     C28      CD32A     2.07980       11.6110           0  -1.66000       1.30000    
     22288 MEMB     123      POPE     DC28     DRUD     -2.23580      0.400000           0   0.00000       0.00000    
     22289 MEMB     123      POPE     H8R      HDA2A    0.780000E-01   1.00800           0   0.00000       0.00000    
     22290 MEMB     123      POPE     H8S      HDA2A    0.780000E-01   1.00800           0   0.00000       0.00000    
     22291 MEMB     123      POPE     C29      CD2C1A    2.33700       11.6110           0  -1.99000      0.750000    
     22292 MEMB     123      POPE     DC29     DRUD     -2.44800      0.400000           0   0.00000       0.00000    
     22293 MEMB     123      POPE     H91      HD2C1A   0.111000       1.00800           0   0.00000       0.00000    
     22294 MEMB     123      POPE     C210     CD2C1A    2.33700       11.6110           0  -1.99000      0.750000    
     22295 MEMB     123      POPE     DC210    DRUD     -2.44800      0.400000           0   0.00000       0.00000    
     22296 MEMB     123      POPE     H101     HD2C1A   0.111000       1.00800           0   0.00000       0.00000    
     22297 MEMB     123      POPE     C211     CD32A     2.07980       11.6110           0  -1.66000       1.30000    
     22298 MEMB     123      POPE     DC211    DRUD     -2.23580      0.400000           0   0.00000       0.00000    
     22299 MEMB     123      POPE     H11R     HDA2A    0.780000E-01   1.00800           0   0.00000       0.00000    
     22300 MEMB     123      POPE     H11S     HDA2A    0.780000E-01   1.00800           0   0.00000       0.00000    
     22301 MEMB     123      POPE     C212     CD32A     2.07980       11.6110           0  -1.66000       1.30000    
     22302 MEMB     123      POPE     DC212    DRUD     -2.23580      0.400000           0   0.00000       0.00000    
     22303 MEMB     123      POPE     H12R     HDA2A    0.780000E-01   1.00800           0   0.00000       0.00000    
     22304 MEMB     123      POPE     H12S     HDA2A    0.780000E-01   1.00800           0   0.00000       0.00000    
     22305 MEMB     123      POPE     C213     CD32A     2.07980       11.6110           0  -1.66000       1.30000    
     22306 MEMB     123      POPE     DC213    DRUD     -2.23580      0.400000           0   0.00000       0.00000    
     22307 MEMB     123      POPE     H13R     HDA2A    0.780000E-01   1.00800           0   0.00000       0.00000    
     22308 MEMB     123      POPE     H13S     HDA2A    0.780000E-01   1.00800           0   0.00000       0.00000    
     22309 MEMB     123      POPE     C214     CD32A     2.07980       11.6110           0  -1.66000       1.30000    
     22310 MEMB     123      POPE     DC214    DRUD     -2.23580      0.400000           0   0.00000       0.00000    
     22311 MEMB     123      POPE     H14R     HDA2A    0.780000E-01   1.00800           0   0.00000       0.00000    
     22312 MEMB     123      POPE     H14S     HDA2A    0.780000E-01   1.00800           0   0.00000       0.00000    
     22313 MEMB     123      POPE     C215     CD32A     2.07980       11.6110           0  -1.66000       1.30000    
     22314 MEMB     123      POPE     DC215    DRUD     -2.23580      0.400000           0   0.00000       0.00000    
     22315 MEMB     123      POPE     H15R     HDA2A    0.780000E-01   1.00800           0   0.00000       0.00000    
     22316 MEMB     123      POPE     H15S     HDA2A    0.780000E-01   1.00800           0   0.00000       0.00000    
     22317 MEMB     123      POPE     C216     CD32A     2.07980       11.6110           0  -1.66000       1.30000    
     22318 MEMB     123      POPE     DC216    DRUD     -2.23580      0.400000           0   0.00000       0.00000    
     22319 MEMB     123      POPE     H16R     HDA2A    0.780000E-01   1.00800           0   0.00000       0.00000    
     22320 MEMB     123      POPE     H16S     HDA2A    0.780000E-01   1.00800           0   0.00000       0.00000    
     22321 MEMB     123      POPE     C217     CD32A     2.07980       11.6110           0  -1.66000       1.30000    
     22322 MEMB     123      POPE     DC217    DRUD     -2.23580      0.400000           0   0.00000       0.00000    
     22323 MEMB     123      POPE     H17R     HDA2A    0.780000E-01   1.00800           0   0.00000       0.00000    
     22324 MEMB     123      POPE     H17S     HDA2A    0.780000E-01   1.00800           0   0.00000       0.00000    
     22325 MEMB     123      POPE     C218     CD33A     2.30820       11.6110           0  -2.05100       1.30000    
     22326 MEMB     123      POPE     DC218    DRUD     -2.48520      0.400000           0   0.00000       0.00000    
     22327 MEMB     123      POPE     H18R     HDA3A    0.590000E-01   1.00800           0   0.00000       0.00000    
     22328 MEMB     123      POPE     H18S     HDA3A    0.590000E-01   1.00800           0   0.00000       0.00000    
     22329 MEMB     123      POPE     H18T     HDA3A    0.590000E-01   1.00800           0   0.00000       0.00000    
     22330 MEMB     123      POPE     C33      CD32A     2.07980       11.6110           0  -1.66000       1.30000    
     22331 MEMB     123      POPE     DC33     DRUD     -2.23580      0.400000           0   0.00000       0.00000    
     22332 MEMB     123      POPE     H3X      HDA2A    0.780000E-01   1.00800           0   0.00000       0.00000    
     22333 MEMB     123      POPE     H3Y      HDA2A    0.780000E-01   1.00800           0   0.00000       0.00000    
     22334 MEMB     123      POPE     C34      CD32A     2.07980       11.6110           0  -1.66000       1.30000    
     22335 MEMB     123      POPE     DC34     DRUD     -2.23580      0.400000           0   0.00000       0.00000    
     22336 MEMB     123      POPE     H4X      HDA2A    0.780000E-01   1.00800           0   0.00000       0.00000    
     22337 MEMB     123      POPE     H4Y      HDA2A    0.780000E-01   1.00800           0   0.00000       0.00000    
     22338 MEMB     123      POPE     C35      CD32A     2.07980       11.6110           0  -1.66000       1.30000    
     22339 MEMB     123      POPE     DC35     DRUD     -2.23580      0.400000           0   0.00000       0.00000    
     22340 MEMB     123      POPE     H5X      HDA2A    0.780000E-01   1.00800           0   0.00000       0.00000    
     22341 MEMB     123      POPE     H5Y      HDA2A    0.780000E-01   1.00800           0   0.00000       0.00000    
     22342 MEMB     123      POPE     C36      CD32A     2.07980       11.6110           0  -1.66000       1.30000    
     22343 MEMB     123      POPE     DC36     DRUD     -2.23580      0.400000           0   0.00000       0.00000    
     22344 MEMB     123      POPE     H6X      HDA2A    0.780000E-01   1.00800           0   0.00000       0.00000    
     22345 MEMB     123      POPE     H6Y      HDA2A    0.780000E-01   1.00800           0   0.00000       0.00000    
     22346 MEMB     123      POPE     C37      CD32A     2.07980       11.6110           0  -1.66000       1.30000    
     22347 MEMB     123      POPE     DC37     DRUD     -2.23580      0.400000           0   0.00000       0.00000    
     22348 MEMB     123      POPE     H7X      HDA2A    0.780000E-01   1.00800           0   0.00000       0.00000    
     22349 MEMB     123      POPE     H7Y      HDA2A    0.780000E-01   1.00800           0   0.00000       0.00000    
     22350 MEMB     123      POPE     C38      CD32A     2.07980       11.6110           0  -1.66000       1.30000    
     22351 MEMB     123      POPE     DC38     DRUD     -2.23580      0.400000           0   0.00000       0.00000    
     22352 MEMB     123      POPE     H8X      HDA2A    0.780000E-01   1.00800           0   0.00000       0.00000    
     22353 MEMB     123      POPE     H8Y      HDA2A    0.780000E-01   1.00800           0   0.00000       0.00000    
     22354 MEMB     123      POPE     C39      CD32A     2.07980       11.6110           0  -1.66000       1.30000    
     22355 MEMB     123      POPE     DC39     DRUD     -2.23580      0.400000           0   0.00000       0.00000    
     22356 MEMB     123      POPE     H9X      HDA2A    0.780000E-01   1.00800           0   0.00000       0.00000    
     22357 MEMB     123      POPE     H9Y      HDA2A    0.780000E-01   1.00800           0   0.00000       0.00000    
     22358 MEMB     123      POPE     C310     CD32A     2.07980       11.6110           0  -1.66000       1.30000    
     22359 MEMB     123      POPE     DC310    DRUD     -2.23580      0.400000           0   0.00000       0.00000    
     22360 MEMB     123      POPE     H10X     HDA2A    0.780000E-01   1.00800           0   0.00000       0.00000    
     22361 MEMB     123      POPE     H10Y     HDA2A    0.780000E-01   1.00800           0   0.00000       0.00000    
     22362 MEMB     123      POPE     C311     CD32A     2.07980       11.6110           0  -1.66000       1.30000    
     22363 MEMB     123      POPE     DC311    DRUD     -2.23580      0.400000           0   0.00000       0.00000    
     22364 MEMB     123      POPE     H11X     HDA2A    0.780000E-01   1.00800           0   0.00000       0.00000    
     22365 MEMB     123      POPE     H11Y     HDA2A    0.780000E-01   1.00800           0   0.00000       0.00000    
     22366 MEMB     123      POPE     C312     CD32A     2.07980       11.6110           0  -1.66000       1.30000    
     22367 MEMB     123      POPE     DC312    DRUD     -2.23580      0.400000           0   0.00000       0.00000    
     22368 MEMB     123      POPE     H12X     HDA2A    0.780000E-01   1.00800           0   0.00000       0.00000    
     22369 MEMB     123      POPE     H12Y     HDA2A    0.780000E-01   1.00800           0   0.00000       0.00000    
     22370 MEMB     123      POPE     C313     CD32A     2.07980       11.6110           0  -1.66000       1.30000    
     22371 MEMB     123      POPE     DC313    DRUD     -2.23580      0.400000           0   0.00000       0.00000    
     22372 MEMB     123      POPE     H13X     HDA2A    0.780000E-01   1.00800           0   0.00000       0.00000    
     22373 MEMB     123      POPE     H13Y     HDA2A    0.780000E-01   1.00800           0   0.00000       0.00000    
     22374 MEMB     123      POPE     C314     CD32A     2.07980       11.6110           0  -1.66000       1.30000    
     22375 MEMB     123      POPE     DC314    DRUD     -2.23580      0.400000           0   0.00000       0.00000    
     22376 MEMB     123      POPE     H14X     HDA2A    0.780000E-01   1.00800           0   0.00000       0.00000    
     22377 MEMB     123      POPE     H14Y     HDA2A    0.780000E-01   1.00800           0   0.00000       0.00000    
     22378 MEMB     123      POPE     C315     CD32A     2.07980       11.6110           0  -1.66000       1.30000    
     22379 MEMB     123      POPE     DC315    DRUD     -2.23580      0.400000           0   0.00000       0.00000    
     22380 MEMB     123      POPE     H15X     HDA2A    0.780000E-01   1.00800           0   0.00000       0.00000    
     22381 MEMB     123      POPE     H15Y     HDA2A    0.780000E-01   1.00800           0   0.00000       0.00000    
     22382 MEMB     123      POPE     C316     CD33A     2.30820       11.6110           0  -2.05100       1.30000    
     22383 MEMB     123      POPE     DC316    DRUD     -2.48520      0.400000           0   0.00000       0.00000    
     22384 MEMB     123      POPE     H16X     HDA3A    0.590000E-01   1.00800           0   0.00000       0.00000    
     22385 MEMB     123      POPE     H16Y     HDA3A    0.590000E-01   1.00800           0   0.00000       0.00000    
     22386 MEMB     123      POPE     H16Z     HDA3A    0.590000E-01   1.00800           0   0.00000       0.00000    
     22387 MEMB     124      POPE     N        ND3P3A    1.62810       13.6070           0  -1.29800      0.895000    
     22388 MEMB     124      POPE     DN       DRUD     -1.97710      0.400000           0   0.00000       0.00000    
     22389 MEMB     124      POPE     HN1      HDP1B    0.340000       1.00800           0   0.00000       0.00000    
     22390 MEMB     124      POPE     HN2      HDP1B    0.340000       1.00800           0   0.00000       0.00000    
     22391 MEMB     124      POPE     HN3      HDP1B    0.340000       1.00800           0   0.00000       0.00000    
     22392 MEMB     124      POPE     C12      CD32A     2.27610       11.6110           0  -1.65600      0.895000    
     22393 MEMB     124      POPE     DC12     DRUD     -2.23310      0.400000           0   0.00000       0.00000    
     22394 MEMB     124      POPE     H12A     HDA2A    0.143000       1.00800           0   0.00000       0.00000    
     22395 MEMB     124      POPE     H12B     HDA2A    0.143000       1.00800           0   0.00000       0.00000    
     22396 MEMB     124      POPE     C11      CD32A     2.42220       11.6110           0  -1.64200      0.862000    
     22397 MEMB     124      POPE     DC11     DRUD     -2.22370      0.400000           0   0.00000       0.00000    
     22398 MEMB     124      POPE     H11A     HDA2A    0.260000E-01   1.00800           0   0.00000       0.00000    
     22399 MEMB     124      POPE     H11B     HDA2A    0.260000E-01   1.00800           0   0.00000       0.00000    
     22400 MEMB     124      POPE     P        PD1A      2.90360       30.5740           0 -0.974000       2.09800    
     22401 MEMB     124      POPE     DP       DRUD     -1.71260      0.400000           0   0.00000       0.00000    
     22402 MEMB     124      POPE     O13      OD2C2B   0.798400       15.5994           0 -0.931000       1.08300    
     22403 MEMB     124      POPE     DO13     DRUD     -1.67440      0.400000           0   0.00000       0.00000    
     22404 MEMB     124      POPE     O14      OD2C2B   0.798400       15.5994           0 -0.931000       1.08300    
     22405 MEMB     124      POPE     DO14     DRUD     -1.67440      0.400000           0   0.00000       0.00000    
     22406 MEMB     124      POPE     O11      OD30B     1.17720       15.5994           0 -0.901000      0.181000    
     22407 MEMB     124      POPE     DO11     DRUD     -1.64720      0.400000           0   0.00000       0.00000    
     22408 MEMB     124      POPE     O12      OD30B     1.17720       15.5994           0 -0.901000      0.181000    
     22409 MEMB     124      POPE     DO12     DRUD     -1.64720      0.400000           0   0.00000       0.00000    
     22410 MEMB     124      POPE     C1       CD32A     2.42220       11.6110           0  -1.64200      0.862000    
     22411 MEMB     124      POPE     DC1      DRUD     -2.22370      0.400000           0   0.00000       0.00000    
     22412 MEMB     124      POPE     HA       HDA2A    0.260000E-01   1.00800           0   0.00000       0.00000    
     22413 MEMB     124      POPE     HB       HDA2A    0.260000E-01   1.00800           0   0.00000       0.00000    
     22414 MEMB     124      POPE     C2       CD31C     2.52830       11.6110           0  -1.79700      0.410000    
     22415 MEMB     124      POPE     DC2      DRUD     -2.32630      0.400000           0   0.00000       0.00000    
     22416 MEMB     124      POPE     HS       HDA1A    0.116000       1.00800           0   0.00000       0.00000    
     22417 MEMB     124      POPE     O21      OD30CL    1.48470       15.5994           0 -0.732000      0.601000    
     22418 MEMB     124      POPE     DO21     DRUD     -1.48470      0.400000           0   0.00000       0.00000    
     22419 MEMB     124      POPE     C21      CD2O3B    2.72820       11.6110           0  -1.37000       1.74700    
     22420 MEMB     124      POPE     DC21     DRUD     -2.03120      0.400000           0   0.00000       0.00000    
     22421 MEMB     124      POPE     O22      OD2C3B    1.64990       15.5994           0 -0.904000      0.565000    
     22422 MEMB     124      POPE     DO22     DRUD     -1.64990      0.400000           0   0.00000       0.00000    
     22423 MEMB     124      POPE     C22      CD32C     2.24380       11.6110           0  -1.99300      0.410000    
     22424 MEMB     124      POPE     DC22     DRUD     -2.44980      0.400000           0   0.00000       0.00000    
     22425 MEMB     124      POPE     H2R      HDA2A    0.690000E-01   1.00800           0   0.00000       0.00000    
     22426 MEMB     124      POPE     H2S      HDA2A    0.690000E-01   1.00800           0   0.00000       0.00000    
     22427 MEMB     124      POPE     LP1A     LPD     -0.349000       0.00000          -1   0.00000       0.00000    
     22428 MEMB     124      POPE     LP1B     LPD     -0.258000       0.00000          -1   0.00000       0.00000    
     22429 MEMB     124      POPE     LPMA     LPD     -0.170000       0.00000          -1   0.00000       0.00000    
     22430 MEMB     124      POPE     LPMB     LPD     -0.170000       0.00000          -1   0.00000       0.00000    
     22431 MEMB     124      POPE     C3       CD32C     2.41230       11.6110           0  -1.79700      0.410000    
     22432 MEMB     124      POPE     DC3      DRUD     -2.32630      0.400000           0   0.00000       0.00000    
     22433 MEMB     124      POPE     HX       HDA2A    0.116000       1.00800           0   0.00000       0.00000    
     22434 MEMB     124      POPE     HY       HDA2A    0.116000       1.00800           0   0.00000       0.00000    
     22435 MEMB     124      POPE     O31      OD30CL    1.48470       15.5994           0 -0.732000      0.601000    
     22436 MEMB     124      POPE     DO31     DRUD     -1.48470      0.400000           0   0.00000       0.00000    
     22437 MEMB     124      POPE     C31      CD2O3B    2.72820       11.6110           0  -1.37000       1.74700    
     22438 MEMB     124      POPE     DC31     DRUD     -2.03120      0.400000           0   0.00000       0.00000    
     22439 MEMB     124      POPE     O32      OD2C3B    1.64990       15.5994           0 -0.904000      0.565000    
     22440 MEMB     124      POPE     DO32     DRUD     -1.64990      0.400000           0   0.00000       0.00000    
     22441 MEMB     124      POPE     C32      CD32C     2.24380       11.6110           0  -1.99300      0.410000    
     22442 MEMB     124      POPE     DC32     DRUD     -2.44980      0.400000           0   0.00000       0.00000    
     22443 MEMB     124      POPE     H2X      HDA2A    0.690000E-01   1.00800           0   0.00000       0.00000    
     22444 MEMB     124      POPE     H2Y      HDA2A    0.690000E-01   1.00800           0   0.00000       0.00000    
     22445 MEMB     124      POPE     LP1C     LPD     -0.349000       0.00000          -1   0.00000       0.00000    
     22446 MEMB     124      POPE     LP1D     LPD     -0.258000       0.00000          -1   0.00000       0.00000    
     22447 MEMB     124      POPE     LPMC     LPD     -0.170000       0.00000          -1   0.00000       0.00000    
     22448 MEMB     124      POPE     LPMD     LPD     -0.170000       0.00000          -1   0.00000       0.00000    
     22449 MEMB     124      POPE     C23      CD32A     2.07980       11.6110           0  -1.66000       1.30000    
     22450 MEMB     124      POPE     DC23     DRUD     -2.23580      0.400000           0   0.00000       0.00000    
     22451 MEMB     124      POPE     H3R      HDA2A    0.780000E-01   1.00800           0   0.00000       0.00000    
     22452 MEMB     124      POPE     H3S      HDA2A    0.780000E-01   1.00800           0   0.00000       0.00000    
     22453 MEMB     124      POPE     C24      CD32A     2.07980       11.6110           0  -1.66000       1.30000    
     22454 MEMB     124      POPE     DC24     DRUD     -2.23580      0.400000           0   0.00000       0.00000    
     22455 MEMB     124      POPE     H4R      HDA2A    0.780000E-01   1.00800           0   0.00000       0.00000    
     22456 MEMB     124      POPE     H4S      HDA2A    0.780000E-01   1.00800           0   0.00000       0.00000    
     22457 MEMB     124      POPE     C25      CD32A     2.07980       11.6110           0  -1.66000       1.30000    
     22458 MEMB     124      POPE     DC25     DRUD     -2.23580      0.400000           0   0.00000       0.00000    
     22459 MEMB     124      POPE     H5R      HDA2A    0.780000E-01   1.00800           0   0.00000       0.00000    
     22460 MEMB     124      POPE     H5S      HDA2A    0.780000E-01   1.00800           0   0.00000       0.00000    
     22461 MEMB     124      POPE     C26      CD32A     2.07980       11.6110           0  -1.66000       1.30000    
     22462 MEMB     124      POPE     DC26     DRUD     -2.23580      0.400000           0   0.00000       0.00000    
     22463 MEMB     124      POPE     H6R      HDA2A    0.780000E-01   1.00800           0   0.00000       0.00000    
     22464 MEMB     124      POPE     H6S      HDA2A    0.780000E-01   1.00800           0   0.00000       0.00000    
     22465 MEMB     124      POPE     C27      CD32A     2.07980       11.6110           0  -1.66000       1.30000    
     22466 MEMB     124      POPE     DC27     DRUD     -2.23580      0.400000           0   0.00000       0.00000    
     22467 MEMB     124      POPE     H7R      HDA2A    0.780000E-01   1.00800           0   0.00000       0.00000    
     22468 MEMB     124      POPE     H7S      HDA2A    0.780000E-01   1.00800           0   0.00000       0.00000    
     22469 MEMB     124      POPE     C28      CD32A     2.07980       11.6110           0  -1.66000       1.30000    
     22470 MEMB     124      POPE     DC28     DRUD     -2.23580      0.400000           0   0.00000       0.00000    
     22471 MEMB     124      POPE     H8R      HDA2A    0.780000E-01   1.00800           0   0.00000       0.00000    
     22472 MEMB     124      POPE     H8S      HDA2A    0.780000E-01   1.00800           0   0.00000       0.00000    
     22473 MEMB     124      POPE     C29      CD2C1A    2.33700       11.6110           0  -1.99000      0.750000    
     22474 MEMB     124      POPE     DC29     DRUD     -2.44800      0.400000           0   0.00000       0.00000    
     22475 MEMB     124      POPE     H91      HD2C1A   0.111000       1.00800           0   0.00000       0.00000    
     22476 MEMB     124      POPE     C210     CD2C1A    2.33700       11.6110           0  -1.99000      0.750000    
     22477 MEMB     124      POPE     DC210    DRUD     -2.44800      0.400000           0   0.00000       0.00000    
     22478 MEMB     124      POPE     H101     HD2C1A   0.111000       1.00800           0   0.00000       0.00000    
     22479 MEMB     124      POPE     C211     CD32A     2.07980       11.6110           0  -1.66000       1.30000    
     22480 MEMB     124      POPE     DC211    DRUD     -2.23580      0.400000           0   0.00000       0.00000    
     22481 MEMB     124      POPE     H11R     HDA2A    0.780000E-01   1.00800           0   0.00000       0.00000    
     22482 MEMB     124      POPE     H11S     HDA2A    0.780000E-01   1.00800           0   0.00000       0.00000    
     22483 MEMB     124      POPE     C212     CD32A     2.07980       11.6110           0  -1.66000       1.30000    
     22484 MEMB     124      POPE     DC212    DRUD     -2.23580      0.400000           0   0.00000       0.00000    
     22485 MEMB     124      POPE     H12R     HDA2A    0.780000E-01   1.00800           0   0.00000       0.00000    
     22486 MEMB     124      POPE     H12S     HDA2A    0.780000E-01   1.00800           0   0.00000       0.00000    
     22487 MEMB     124      POPE     C213     CD32A     2.07980       11.6110           0  -1.66000       1.30000    
     22488 MEMB     124      POPE     DC213    DRUD     -2.23580      0.400000           0   0.00000       0.00000    
     22489 MEMB     124      POPE     H13R     HDA2A    0.780000E-01   1.00800           0   0.00000       0.00000    
     22490 MEMB     124      POPE     H13S     HDA2A    0.780000E-01   1.00800           0   0.00000       0.00000    
     22491 MEMB     124      POPE     C214     CD32A     2.07980       11.6110           0  -1.66000       1.30000    
     22492 MEMB     124      POPE     DC214    DRUD     -2.23580      0.400000           0   0.00000       0.00000    
     22493 MEMB     124      POPE     H14R     HDA2A    0.780000E-01   1.00800           0   0.00000       0.00000    
     22494 MEMB     124      POPE     H14S     HDA2A    0.780000E-01   1.00800           0   0.00000       0.00000    
     22495 MEMB     124      POPE     C215     CD32A     2.07980       11.6110           0  -1.66000       1.30000    
     22496 MEMB     124      POPE     DC215    DRUD     -2.23580      0.400000           0   0.00000       0.00000    
     22497 MEMB     124      POPE     H15R     HDA2A    0.780000E-01   1.00800           0   0.00000       0.00000    
     22498 MEMB     124      POPE     H15S     HDA2A    0.780000E-01   1.00800           0   0.00000       0.00000    
     22499 MEMB     124      POPE     C216     CD32A     2.07980       11.6110           0  -1.66000       1.30000    
     22500 MEMB     124      POPE     DC216    DRUD     -2.23580      0.400000           0   0.00000       0.00000    
     22501 MEMB     124      POPE     H16R     HDA2A    0.780000E-01   1.00800           0   0.00000       0.00000    
     22502 MEMB     124      POPE     H16S     HDA2A    0.780000E-01   1.00800           0   0.00000       0.00000    
     22503 MEMB     124      POPE     C217     CD32A     2.07980       11.6110           0  -1.66000       1.30000    
     22504 MEMB     124      POPE     DC217    DRUD     -2.23580      0.400000           0   0.00000       0.00000    
     22505 MEMB     124      POPE     H17R     HDA2A    0.780000E-01   1.00800           0   0.00000       0.00000    
     22506 MEMB     124      POPE     H17S     HDA2A    0.780000E-01   1.00800           0   0.00000       0.00000    
     22507 MEMB     124      POPE     C218     CD33A     2.30820       11.6110           0  -2.05100       1.30000    
     22508 MEMB     124      POPE     DC218    DRUD     -2.48520      0.400000           0   0.00000       0.00000    
     22509 MEMB     124      POPE     H18R     HDA3A    0.590000E-01   1.00800           0   0.00000       0.00000    
     22510 MEMB     124      POPE     H18S     HDA3A    0.590000E-01   1.00800           0   0.00000       0.00000    
     22511 MEMB     124      POPE     H18T     HDA3A    0.590000E-01   1.00800           0   0.00000       0.00000    
     22512 MEMB     124      POPE     C33      CD32A     2.07980       11.6110           0  -1.66000       1.30000    
     22513 MEMB     124      POPE     DC33     DRUD     -2.23580      0.400000           0   0.00000       0.00000    
     22514 MEMB     124      POPE     H3X      HDA2A    0.780000E-01   1.00800           0   0.00000       0.00000    
     22515 MEMB     124      POPE     H3Y      HDA2A    0.780000E-01   1.00800           0   0.00000       0.00000    
     22516 MEMB     124      POPE     C34      CD32A     2.07980       11.6110           0  -1.66000       1.30000    
     22517 MEMB     124      POPE     DC34     DRUD     -2.23580      0.400000           0   0.00000       0.00000    
     22518 MEMB     124      POPE     H4X      HDA2A    0.780000E-01   1.00800           0   0.00000       0.00000    
     22519 MEMB     124      POPE     H4Y      HDA2A    0.780000E-01   1.00800           0   0.00000       0.00000    
     22520 MEMB     124      POPE     C35      CD32A     2.07980       11.6110           0  -1.66000       1.30000    
     22521 MEMB     124      POPE     DC35     DRUD     -2.23580      0.400000           0   0.00000       0.00000    
     22522 MEMB     124      POPE     H5X      HDA2A    0.780000E-01   1.00800           0   0.00000       0.00000    
     22523 MEMB     124      POPE     H5Y      HDA2A    0.780000E-01   1.00800           0   0.00000       0.00000    
     22524 MEMB     124      POPE     C36      CD32A     2.07980       11.6110           0  -1.66000       1.30000    
     22525 MEMB     124      POPE     DC36     DRUD     -2.23580      0.400000           0   0.00000       0.00000    
     22526 MEMB     124      POPE     H6X      HDA2A    0.780000E-01   1.00800           0   0.00000       0.00000    
     22527 MEMB     124      POPE     H6Y      HDA2A    0.780000E-01   1.00800           0   0.00000       0.00000    
     22528 MEMB     124      POPE     C37      CD32A     2.07980       11.6110           0  -1.66000       1.30000    
     22529 MEMB     124      POPE     DC37     DRUD     -2.23580      0.400000           0   0.00000       0.00000    
     22530 MEMB     124      POPE     H7X      HDA2A    0.780000E-01   1.00800           0   0.00000       0.00000    
     22531 MEMB     124      POPE     H7Y      HDA2A    0.780000E-01   1.00800           0   0.00000       0.00000    
     22532 MEMB     124      POPE     C38      CD32A     2.07980       11.6110           0  -1.66000       1.30000    
     22533 MEMB     124      POPE     DC38     DRUD     -2.23580      0.400000           0   0.00000       0.00000    
     22534 MEMB     124      POPE     H8X      HDA2A    0.780000E-01   1.00800           0   0.00000       0.00000    
     22535 MEMB     124      POPE     H8Y      HDA2A    0.780000E-01   1.00800           0   0.00000       0.00000    
     22536 MEMB     124      POPE     C39      CD32A     2.07980       11.6110           0  -1.66000       1.30000    
     22537 MEMB     124      POPE     DC39     DRUD     -2.23580      0.400000           0   0.00000       0.00000    
     22538 MEMB     124      POPE     H9X      HDA2A    0.780000E-01   1.00800           0   0.00000       0.00000    
     22539 MEMB     124      POPE     H9Y      HDA2A    0.780000E-01   1.00800           0   0.00000       0.00000    
     22540 MEMB     124      POPE     C310     CD32A     2.07980       11.6110           0  -1.66000       1.30000    
     22541 MEMB     124      POPE     DC310    DRUD     -2.23580      0.400000           0   0.00000       0.00000    
     22542 MEMB     124      POPE     H10X     HDA2A    0.780000E-01   1.00800           0   0.00000       0.00000    
     22543 MEMB     124      POPE     H10Y     HDA2A    0.780000E-01   1.00800           0   0.00000       0.00000    
     22544 MEMB     124      POPE     C311     CD32A     2.07980       11.6110           0  -1.66000       1.30000    
     22545 MEMB     124      POPE     DC311    DRUD     -2.23580      0.400000           0   0.00000       0.00000    
     22546 MEMB     124      POPE     H11X     HDA2A    0.780000E-01   1.00800           0   0.00000       0.00000    
     22547 MEMB     124      POPE     H11Y     HDA2A    0.780000E-01   1.00800           0   0.00000       0.00000    
     22548 MEMB     124      POPE     C312     CD32A     2.07980       11.6110           0  -1.66000       1.30000    
     22549 MEMB     124      POPE     DC312    DRUD     -2.23580      0.400000           0   0.00000       0.00000    
     22550 MEMB     124      POPE     H12X     HDA2A    0.780000E-01   1.00800           0   0.00000       0.00000    
     22551 MEMB     124      POPE     H12Y     HDA2A    0.780000E-01   1.00800           0   0.00000       0.00000    
     22552 MEMB     124      POPE     C313     CD32A     2.07980       11.6110           0  -1.66000       1.30000    
     22553 MEMB     124      POPE     DC313    DRUD     -2.23580      0.400000           0   0.00000       0.00000    
     22554 MEMB     124      POPE     H13X     HDA2A    0.780000E-01   1.00800           0   0.00000       0.00000    
     22555 MEMB     124      POPE     H13Y     HDA2A    0.780000E-01   1.00800           0   0.00000       0.00000    
     22556 MEMB     124      POPE     C314     CD32A     2.07980       11.6110           0  -1.66000       1.30000    
     22557 MEMB     124      POPE     DC314    DRUD     -2.23580      0.400000           0   0.00000       0.00000    
     22558 MEMB     124      POPE     H14X     HDA2A    0.780000E-01   1.00800           0   0.00000       0.00000    
     22559 MEMB     124      POPE     H14Y     HDA2A    0.780000E-01   1.00800           0   0.00000       0.00000    
     22560 MEMB     124      POPE     C315     CD32A     2.07980       11.6110           0  -1.66000       1.30000    
     22561 MEMB     124      POPE     DC315    DRUD     -2.23580      0.400000           0   0.00000       0.00000    
     22562 MEMB     124      POPE     H15X     HDA2A    0.780000E-01   1.00800           0   0.00000       0.00000    
     22563 MEMB     124      POPE     H15Y     HDA2A    0.780000E-01   1.00800           0   0.00000       0.00000    
     22564 MEMB     124      POPE     C316     CD33A     2.30820       11.6110           0  -2.05100       1.30000    
     22565 MEMB     124      POPE     DC316    DRUD     -2.48520      0.400000           0   0.00000       0.00000    
     22566 MEMB     124      POPE     H16X     HDA3A    0.590000E-01   1.00800           0   0.00000       0.00000    
     22567 MEMB     124      POPE     H16Y     HDA3A    0.590000E-01   1.00800           0   0.00000       0.00000    
     22568 MEMB     124      POPE     H16Z     HDA3A    0.590000E-01   1.00800           0   0.00000       0.00000    
     22569 MEMB     125      POPE     N        ND3P3A    1.62810       13.6070           0  -1.29800      0.895000    
     22570 MEMB     125      POPE     DN       DRUD     -1.97710      0.400000           0   0.00000       0.00000    
     22571 MEMB     125      POPE     HN1      HDP1B    0.340000       1.00800           0   0.00000       0.00000    
     22572 MEMB     125      POPE     HN2      HDP1B    0.340000       1.00800           0   0.00000       0.00000    
     22573 MEMB     125      POPE     HN3      HDP1B    0.340000       1.00800           0   0.00000       0.00000    
     22574 MEMB     125      POPE     C12      CD32A     2.27610       11.6110           0  -1.65600      0.895000    
     22575 MEMB     125      POPE     DC12     DRUD     -2.23310      0.400000           0   0.00000       0.00000    
     22576 MEMB     125      POPE     H12A     HDA2A    0.143000       1.00800           0   0.00000       0.00000    
     22577 MEMB     125      POPE     H12B     HDA2A    0.143000       1.00800           0   0.00000       0.00000    
     22578 MEMB     125      POPE     C11      CD32A     2.42220       11.6110           0  -1.64200      0.862000    
     22579 MEMB     125      POPE     DC11     DRUD     -2.22370      0.400000           0   0.00000       0.00000    
     22580 MEMB     125      POPE     H11A     HDA2A    0.260000E-01   1.00800           0   0.00000       0.00000    
     22581 MEMB     125      POPE     H11B     HDA2A    0.260000E-01   1.00800           0   0.00000       0.00000    
     22582 MEMB     125      POPE     P        PD1A      2.90360       30.5740           0 -0.974000       2.09800    
     22583 MEMB     125      POPE     DP       DRUD     -1.71260      0.400000           0   0.00000       0.00000    
     22584 MEMB     125      POPE     O13      OD2C2B   0.798400       15.5994           0 -0.931000       1.08300    
     22585 MEMB     125      POPE     DO13     DRUD     -1.67440      0.400000           0   0.00000       0.00000    
     22586 MEMB     125      POPE     O14      OD2C2B   0.798400       15.5994           0 -0.931000       1.08300    
     22587 MEMB     125      POPE     DO14     DRUD     -1.67440      0.400000           0   0.00000       0.00000    
     22588 MEMB     125      POPE     O11      OD30B     1.17720       15.5994           0 -0.901000      0.181000    
     22589 MEMB     125      POPE     DO11     DRUD     -1.64720      0.400000           0   0.00000       0.00000    
     22590 MEMB     125      POPE     O12      OD30B     1.17720       15.5994           0 -0.901000      0.181000    
     22591 MEMB     125      POPE     DO12     DRUD     -1.64720      0.400000           0   0.00000       0.00000    
     22592 MEMB     125      POPE     C1       CD32A     2.42220       11.6110           0  -1.64200      0.862000    
     22593 MEMB     125      POPE     DC1      DRUD     -2.22370      0.400000           0   0.00000       0.00000    
     22594 MEMB     125      POPE     HA       HDA2A    0.260000E-01   1.00800           0   0.00000       0.00000    
     22595 MEMB     125      POPE     HB       HDA2A    0.260000E-01   1.00800           0   0.00000       0.00000    
     22596 MEMB     125      POPE     C2       CD31C     2.52830       11.6110           0  -1.79700      0.410000    
     22597 MEMB     125      POPE     DC2      DRUD     -2.32630      0.400000           0   0.00000       0.00000    
     22598 MEMB     125      POPE     HS       HDA1A    0.116000       1.00800           0   0.00000       0.00000    
     22599 MEMB     125      POPE     O21      OD30CL    1.48470       15.5994           0 -0.732000      0.601000    
     22600 MEMB     125      POPE     DO21     DRUD     -1.48470      0.400000           0   0.00000       0.00000    
     22601 MEMB     125      POPE     C21      CD2O3B    2.72820       11.6110           0  -1.37000       1.74700    
     22602 MEMB     125      POPE     DC21     DRUD     -2.03120      0.400000           0   0.00000       0.00000    
     22603 MEMB     125      POPE     O22      OD2C3B    1.64990       15.5994           0 -0.904000      0.565000    
     22604 MEMB     125      POPE     DO22     DRUD     -1.64990      0.400000           0   0.00000       0.00000    
     22605 MEMB     125      POPE     C22      CD32C     2.24380       11.6110           0  -1.99300      0.410000    
     22606 MEMB     125      POPE     DC22     DRUD     -2.44980      0.400000           0   0.00000       0.00000    
     22607 MEMB     125      POPE     H2R      HDA2A    0.690000E-01   1.00800           0   0.00000       0.00000    
     22608 MEMB     125      POPE     H2S      HDA2A    0.690000E-01   1.00800           0   0.00000       0.00000    
     22609 MEMB     125      POPE     LP1A     LPD     -0.349000       0.00000          -1   0.00000       0.00000    
     22610 MEMB     125      POPE     LP1B     LPD     -0.258000       0.00000          -1   0.00000       0.00000    
     22611 MEMB     125      POPE     LPMA     LPD     -0.170000       0.00000          -1   0.00000       0.00000    
     22612 MEMB     125      POPE     LPMB     LPD     -0.170000       0.00000          -1   0.00000       0.00000    
     22613 MEMB     125      POPE     C3       CD32C     2.41230       11.6110           0  -1.79700      0.410000    
     22614 MEMB     125      POPE     DC3      DRUD     -2.32630      0.400000           0   0.00000       0.00000    
     22615 MEMB     125      POPE     HX       HDA2A    0.116000       1.00800           0   0.00000       0.00000    
     22616 MEMB     125      POPE     HY       HDA2A    0.116000       1.00800           0   0.00000       0.00000    
     22617 MEMB     125      POPE     O31      OD30CL    1.48470       15.5994           0 -0.732000      0.601000    
     22618 MEMB     125      POPE     DO31     DRUD     -1.48470      0.400000           0   0.00000       0.00000    
     22619 MEMB     125      POPE     C31      CD2O3B    2.72820       11.6110           0  -1.37000       1.74700    
     22620 MEMB     125      POPE     DC31     DRUD     -2.03120      0.400000           0   0.00000       0.00000    
     22621 MEMB     125      POPE     O32      OD2C3B    1.64990       15.5994           0 -0.904000      0.565000    
     22622 MEMB     125      POPE     DO32     DRUD     -1.64990      0.400000           0   0.00000       0.00000    
     22623 MEMB     125      POPE     C32      CD32C     2.24380       11.6110           0  -1.99300      0.410000    
     22624 MEMB     125      POPE     DC32     DRUD     -2.44980      0.400000           0   0.00000       0.00000    
     22625 MEMB     125      POPE     H2X      HDA2A    0.690000E-01   1.00800           0   0.00000       0.00000    
     22626 MEMB     125      POPE     H2Y      HDA2A    0.690000E-01   1.00800           0   0.00000       0.00000    
     22627 MEMB     125      POPE     LP1C     LPD     -0.349000       0.00000          -1   0.00000       0.00000    
     22628 MEMB     125      POPE     LP1D     LPD     -0.258000       0.00000          -1   0.00000       0.00000    
     22629 MEMB     125      POPE     LPMC     LPD     -0.170000       0.00000          -1   0.00000       0.00000    
     22630 MEMB     125      POPE     LPMD     LPD     -0.170000       0.00000          -1   0.00000       0.00000    
     22631 MEMB     125      POPE     C23      CD32A     2.07980       11.6110           0  -1.66000       1.30000    
     22632 MEMB     125      POPE     DC23     DRUD     -2.23580      0.400000           0   0.00000       0.00000    
     22633 MEMB     125      POPE     H3R      HDA2A    0.780000E-01   1.00800           0   0.00000       0.00000    
     22634 MEMB     125      POPE     H3S      HDA2A    0.780000E-01   1.00800           0   0.00000       0.00000    
     22635 MEMB     125      POPE     C24      CD32A     2.07980       11.6110           0  -1.66000       1.30000    
     22636 MEMB     125      POPE     DC24     DRUD     -2.23580      0.400000           0   0.00000       0.00000    
     22637 MEMB     125      POPE     H4R      HDA2A    0.780000E-01   1.00800           0   0.00000       0.00000    
     22638 MEMB     125      POPE     H4S      HDA2A    0.780000E-01   1.00800           0   0.00000       0.00000    
     22639 MEMB     125      POPE     C25      CD32A     2.07980       11.6110           0  -1.66000       1.30000    
     22640 MEMB     125      POPE     DC25     DRUD     -2.23580      0.400000           0   0.00000       0.00000    
     22641 MEMB     125      POPE     H5R      HDA2A    0.780000E-01   1.00800           0   0.00000       0.00000    
     22642 MEMB     125      POPE     H5S      HDA2A    0.780000E-01   1.00800           0   0.00000       0.00000    
     22643 MEMB     125      POPE     C26      CD32A     2.07980       11.6110           0  -1.66000       1.30000    
     22644 MEMB     125      POPE     DC26     DRUD     -2.23580      0.400000           0   0.00000       0.00000    
     22645 MEMB     125      POPE     H6R      HDA2A    0.780000E-01   1.00800           0   0.00000       0.00000    
     22646 MEMB     125      POPE     H6S      HDA2A    0.780000E-01   1.00800           0   0.00000       0.00000    
     22647 MEMB     125      POPE     C27      CD32A     2.07980       11.6110           0  -1.66000       1.30000    
     22648 MEMB     125      POPE     DC27     DRUD     -2.23580      0.400000           0   0.00000       0.00000    
     22649 MEMB     125      POPE     H7R      HDA2A    0.780000E-01   1.00800           0   0.00000       0.00000    
     22650 MEMB     125      POPE     H7S      HDA2A    0.780000E-01   1.00800           0   0.00000       0.00000    
     22651 MEMB     125      POPE     C28      CD32A     2.07980       11.6110           0  -1.66000       1.30000    
     22652 MEMB     125      POPE     DC28     DRUD     -2.23580      0.400000           0   0.00000       0.00000    
     22653 MEMB     125      POPE     H8R      HDA2A    0.780000E-01   1.00800           0   0.00000       0.00000    
     22654 MEMB     125      POPE     H8S      HDA2A    0.780000E-01   1.00800           0   0.00000       0.00000    
     22655 MEMB     125      POPE     C29      CD2C1A    2.33700       11.6110           0  -1.99000      0.750000    
     22656 MEMB     125      POPE     DC29     DRUD     -2.44800      0.400000           0   0.00000       0.00000    
     22657 MEMB     125      POPE     H91      HD2C1A   0.111000       1.00800           0   0.00000       0.00000    
     22658 MEMB     125      POPE     C210     CD2C1A    2.33700       11.6110           0  -1.99000      0.750000    
     22659 MEMB     125      POPE     DC210    DRUD     -2.44800      0.400000           0   0.00000       0.00000    
     22660 MEMB     125      POPE     H101     HD2C1A   0.111000       1.00800           0   0.00000       0.00000    
     22661 MEMB     125      POPE     C211     CD32A     2.07980       11.6110           0  -1.66000       1.30000    
     22662 MEMB     125      POPE     DC211    DRUD     -2.23580      0.400000           0   0.00000       0.00000    
     22663 MEMB     125      POPE     H11R     HDA2A    0.780000E-01   1.00800           0   0.00000       0.00000    
     22664 MEMB     125      POPE     H11S     HDA2A    0.780000E-01   1.00800           0   0.00000       0.00000    
     22665 MEMB     125      POPE     C212     CD32A     2.07980       11.6110           0  -1.66000       1.30000    
     22666 MEMB     125      POPE     DC212    DRUD     -2.23580      0.400000           0   0.00000       0.00000    
     22667 MEMB     125      POPE     H12R     HDA2A    0.780000E-01   1.00800           0   0.00000       0.00000    
     22668 MEMB     125      POPE     H12S     HDA2A    0.780000E-01   1.00800           0   0.00000       0.00000    
     22669 MEMB     125      POPE     C213     CD32A     2.07980       11.6110           0  -1.66000       1.30000    
     22670 MEMB     125      POPE     DC213    DRUD     -2.23580      0.400000           0   0.00000       0.00000    
     22671 MEMB     125      POPE     H13R     HDA2A    0.780000E-01   1.00800           0   0.00000       0.00000    
     22672 MEMB     125      POPE     H13S     HDA2A    0.780000E-01   1.00800           0   0.00000       0.00000    
     22673 MEMB     125      POPE     C214     CD32A     2.07980       11.6110           0  -1.66000       1.30000    
     22674 MEMB     125      POPE     DC214    DRUD     -2.23580      0.400000           0   0.00000       0.00000    
     22675 MEMB     125      POPE     H14R     HDA2A    0.780000E-01   1.00800           0   0.00000       0.00000    
     22676 MEMB     125      POPE     H14S     HDA2A    0.780000E-01   1.00800           0   0.00000       0.00000    
     22677 MEMB     125      POPE     C215     CD32A     2.07980       11.6110           0  -1.66000       1.30000    
     22678 MEMB     125      POPE     DC215    DRUD     -2.23580      0.400000           0   0.00000       0.00000    
     22679 MEMB     125      POPE     H15R     HDA2A    0.780000E-01   1.00800           0   0.00000       0.00000    
     22680 MEMB     125      POPE     H15S     HDA2A    0.780000E-01   1.00800           0   0.00000       0.00000    
     22681 MEMB     125      POPE     C216     CD32A     2.07980       11.6110           0  -1.66000       1.30000    
     22682 MEMB     125      POPE     DC216    DRUD     -2.23580      0.400000           0   0.00000       0.00000    
     22683 MEMB     125      POPE     H16R     HDA2A    0.780000E-01   1.00800           0   0.00000       0.00000    
     22684 MEMB     125      POPE     H16S     HDA2A    0.780000E-01   1.00800           0   0.00000       0.00000    
     22685 MEMB     125      POPE     C217     CD32A     2.07980       11.6110           0  -1.66000       1.30000    
     22686 MEMB     125      POPE     DC217    DRUD     -2.23580      0.400000           0   0.00000       0.00000    
     22687 MEMB     125      POPE     H17R     HDA2A    0.780000E-01   1.00800           0   0.00000       0.00000    
     22688 MEMB     125      POPE     H17S     HDA2A    0.780000E-01   1.00800           0   0.00000       0.00000    
     22689 MEMB     125      POPE     C218     CD33A     2.30820       11.6110           0  -2.05100       1.30000    
     22690 MEMB     125      POPE     DC218    DRUD     -2.48520      0.400000           0   0.00000       0.00000    
     22691 MEMB     125      POPE     H18R     HDA3A    0.590000E-01   1.00800           0   0.00000       0.00000    
     22692 MEMB     125      POPE     H18S     HDA3A    0.590000E-01   1.00800           0   0.00000       0.00000    
     22693 MEMB     125      POPE     H18T     HDA3A    0.590000E-01   1.00800           0   0.00000       0.00000    
     22694 MEMB     125      POPE     C33      CD32A     2.07980       11.6110           0  -1.66000       1.30000    
     22695 MEMB     125      POPE     DC33     DRUD     -2.23580      0.400000           0   0.00000       0.00000    
     22696 MEMB     125      POPE     H3X      HDA2A    0.780000E-01   1.00800           0   0.00000       0.00000    
     22697 MEMB     125      POPE     H3Y      HDA2A    0.780000E-01   1.00800           0   0.00000       0.00000    
     22698 MEMB     125      POPE     C34      CD32A     2.07980       11.6110           0  -1.66000       1.30000    
     22699 MEMB     125      POPE     DC34     DRUD     -2.23580      0.400000           0   0.00000       0.00000    
     22700 MEMB     125      POPE     H4X      HDA2A    0.780000E-01   1.00800           0   0.00000       0.00000    
     22701 MEMB     125      POPE     H4Y      HDA2A    0.780000E-01   1.00800           0   0.00000       0.00000    
     22702 MEMB     125      POPE     C35      CD32A     2.07980       11.6110           0  -1.66000       1.30000    
     22703 MEMB     125      POPE     DC35     DRUD     -2.23580      0.400000           0   0.00000       0.00000    
     22704 MEMB     125      POPE     H5X      HDA2A    0.780000E-01   1.00800           0   0.00000       0.00000    
     22705 MEMB     125      POPE     H5Y      HDA2A    0.780000E-01   1.00800           0   0.00000       0.00000    
     22706 MEMB     125      POPE     C36      CD32A     2.07980       11.6110           0  -1.66000       1.30000    
     22707 MEMB     125      POPE     DC36     DRUD     -2.23580      0.400000           0   0.00000       0.00000    
     22708 MEMB     125      POPE     H6X      HDA2A    0.780000E-01   1.00800           0   0.00000       0.00000    
     22709 MEMB     125      POPE     H6Y      HDA2A    0.780000E-01   1.00800           0   0.00000       0.00000    
     22710 MEMB     125      POPE     C37      CD32A     2.07980       11.6110           0  -1.66000       1.30000    
     22711 MEMB     125      POPE     DC37     DRUD     -2.23580      0.400000           0   0.00000       0.00000    
     22712 MEMB     125      POPE     H7X      HDA2A    0.780000E-01   1.00800           0   0.00000       0.00000    
     22713 MEMB     125      POPE     H7Y      HDA2A    0.780000E-01   1.00800           0   0.00000       0.00000    
     22714 MEMB     125      POPE     C38      CD32A     2.07980       11.6110           0  -1.66000       1.30000    
     22715 MEMB     125      POPE     DC38     DRUD     -2.23580      0.400000           0   0.00000       0.00000    
     22716 MEMB     125      POPE     H8X      HDA2A    0.780000E-01   1.00800           0   0.00000       0.00000    
     22717 MEMB     125      POPE     H8Y      HDA2A    0.780000E-01   1.00800           0   0.00000       0.00000    
     22718 MEMB     125      POPE     C39      CD32A     2.07980       11.6110           0  -1.66000       1.30000    
     22719 MEMB     125      POPE     DC39     DRUD     -2.23580      0.400000           0   0.00000       0.00000    
     22720 MEMB     125      POPE     H9X      HDA2A    0.780000E-01   1.00800           0   0.00000       0.00000    
     22721 MEMB     125      POPE     H9Y      HDA2A    0.780000E-01   1.00800           0   0.00000       0.00000    
     22722 MEMB     125      POPE     C310     CD32A     2.07980       11.6110           0  -1.66000       1.30000    
     22723 MEMB     125      POPE     DC310    DRUD     -2.23580      0.400000           0   0.00000       0.00000    
     22724 MEMB     125      POPE     H10X     HDA2A    0.780000E-01   1.00800           0   0.00000       0.00000    
     22725 MEMB     125      POPE     H10Y     HDA2A    0.780000E-01   1.00800           0   0.00000       0.00000    
     22726 MEMB     125      POPE     C311     CD32A     2.07980       11.6110           0  -1.66000       1.30000    
     22727 MEMB     125      POPE     DC311    DRUD     -2.23580      0.400000           0   0.00000       0.00000    
     22728 MEMB     125      POPE     H11X     HDA2A    0.780000E-01   1.00800           0   0.00000       0.00000    
     22729 MEMB     125      POPE     H11Y     HDA2A    0.780000E-01   1.00800           0   0.00000       0.00000    
     22730 MEMB     125      POPE     C312     CD32A     2.07980       11.6110           0  -1.66000       1.30000    
     22731 MEMB     125      POPE     DC312    DRUD     -2.23580      0.400000           0   0.00000       0.00000    
     22732 MEMB     125      POPE     H12X     HDA2A    0.780000E-01   1.00800           0   0.00000       0.00000    
     22733 MEMB     125      POPE     H12Y     HDA2A    0.780000E-01   1.00800           0   0.00000       0.00000    
     22734 MEMB     125      POPE     C313     CD32A     2.07980       11.6110           0  -1.66000       1.30000    
     22735 MEMB     125      POPE     DC313    DRUD     -2.23580      0.400000           0   0.00000       0.00000    
     22736 MEMB     125      POPE     H13X     HDA2A    0.780000E-01   1.00800           0   0.00000       0.00000    
     22737 MEMB     125      POPE     H13Y     HDA2A    0.780000E-01   1.00800           0   0.00000       0.00000    
     22738 MEMB     125      POPE     C314     CD32A     2.07980       11.6110           0  -1.66000       1.30000    
     22739 MEMB     125      POPE     DC314    DRUD     -2.23580      0.400000           0   0.00000       0.00000    
     22740 MEMB     125      POPE     H14X     HDA2A    0.780000E-01   1.00800           0   0.00000       0.00000    
     22741 MEMB     125      POPE     H14Y     HDA2A    0.780000E-01   1.00800           0   0.00000       0.00000    
     22742 MEMB     125      POPE     C315     CD32A     2.07980       11.6110           0  -1.66000       1.30000    
     22743 MEMB     125      POPE     DC315    DRUD     -2.23580      0.400000           0   0.00000       0.00000    
     22744 MEMB     125      POPE     H15X     HDA2A    0.780000E-01   1.00800           0   0.00000       0.00000    
     22745 MEMB     125      POPE     H15Y     HDA2A    0.780000E-01   1.00800           0   0.00000       0.00000    
     22746 MEMB     125      POPE     C316     CD33A     2.30820       11.6110           0  -2.05100       1.30000    
     22747 MEMB     125      POPE     DC316    DRUD     -2.48520      0.400000           0   0.00000       0.00000    
     22748 MEMB     125      POPE     H16X     HDA3A    0.590000E-01   1.00800           0   0.00000       0.00000    
     22749 MEMB     125      POPE     H16Y     HDA3A    0.590000E-01   1.00800           0   0.00000       0.00000    
     22750 MEMB     125      POPE     H16Z     HDA3A    0.590000E-01   1.00800           0   0.00000       0.00000    
     22751 MEMB     126      POPE     N        ND3P3A    1.62810       13.6070           0  -1.29800      0.895000    
     22752 MEMB     126      POPE     DN       DRUD     -1.97710      0.400000           0   0.00000       0.00000    
     22753 MEMB     126      POPE     HN1      HDP1B    0.340000       1.00800           0   0.00000       0.00000    
     22754 MEMB     126      POPE     HN2      HDP1B    0.340000       1.00800           0   0.00000       0.00000    
     22755 MEMB     126      POPE     HN3      HDP1B    0.340000       1.00800           0   0.00000       0.00000    
     22756 MEMB     126      POPE     C12      CD32A     2.27610       11.6110           0  -1.65600      0.895000    
     22757 MEMB     126      POPE     DC12     DRUD     -2.23310      0.400000           0   0.00000       0.00000    
     22758 MEMB     126      POPE     H12A     HDA2A    0.143000       1.00800           0   0.00000       0.00000    
     22759 MEMB     126      POPE     H12B     HDA2A    0.143000       1.00800           0   0.00000       0.00000    
     22760 MEMB     126      POPE     C11      CD32A     2.42220       11.6110           0  -1.64200      0.862000    
     22761 MEMB     126      POPE     DC11     DRUD     -2.22370      0.400000           0   0.00000       0.00000    
     22762 MEMB     126      POPE     H11A     HDA2A    0.260000E-01   1.00800           0   0.00000       0.00000    
     22763 MEMB     126      POPE     H11B     HDA2A    0.260000E-01   1.00800           0   0.00000       0.00000    
     22764 MEMB     126      POPE     P        PD1A      2.90360       30.5740           0 -0.974000       2.09800    
     22765 MEMB     126      POPE     DP       DRUD     -1.71260      0.400000           0   0.00000       0.00000    
     22766 MEMB     126      POPE     O13      OD2C2B   0.798400       15.5994           0 -0.931000       1.08300    
     22767 MEMB     126      POPE     DO13     DRUD     -1.67440      0.400000           0   0.00000       0.00000    
     22768 MEMB     126      POPE     O14      OD2C2B   0.798400       15.5994           0 -0.931000       1.08300    
     22769 MEMB     126      POPE     DO14     DRUD     -1.67440      0.400000           0   0.00000       0.00000    
     22770 MEMB     126      POPE     O11      OD30B     1.17720       15.5994           0 -0.901000      0.181000    
     22771 MEMB     126      POPE     DO11     DRUD     -1.64720      0.400000           0   0.00000       0.00000    
     22772 MEMB     126      POPE     O12      OD30B     1.17720       15.5994           0 -0.901000      0.181000    
     22773 MEMB     126      POPE     DO12     DRUD     -1.64720      0.400000           0   0.00000       0.00000    
     22774 MEMB     126      POPE     C1       CD32A     2.42220       11.6110           0  -1.64200      0.862000    
     22775 MEMB     126      POPE     DC1      DRUD     -2.22370      0.400000           0   0.00000       0.00000    
     22776 MEMB     126      POPE     HA       HDA2A    0.260000E-01   1.00800           0   0.00000       0.00000    
     22777 MEMB     126      POPE     HB       HDA2A    0.260000E-01   1.00800           0   0.00000       0.00000    
     22778 MEMB     126      POPE     C2       CD31C     2.52830       11.6110           0  -1.79700      0.410000    
     22779 MEMB     126      POPE     DC2      DRUD     -2.32630      0.400000           0   0.00000       0.00000    
     22780 MEMB     126      POPE     HS       HDA1A    0.116000       1.00800           0   0.00000       0.00000    
     22781 MEMB     126      POPE     O21      OD30CL    1.48470       15.5994           0 -0.732000      0.601000    
     22782 MEMB     126      POPE     DO21     DRUD     -1.48470      0.400000           0   0.00000       0.00000    
     22783 MEMB     126      POPE     C21      CD2O3B    2.72820       11.6110           0  -1.37000       1.74700    
     22784 MEMB     126      POPE     DC21     DRUD     -2.03120      0.400000           0   0.00000       0.00000    
     22785 MEMB     126      POPE     O22      OD2C3B    1.64990       15.5994           0 -0.904000      0.565000    
     22786 MEMB     126      POPE     DO22     DRUD     -1.64990      0.400000           0   0.00000       0.00000    
     22787 MEMB     126      POPE     C22      CD32C     2.24380       11.6110           0  -1.99300      0.410000    
     22788 MEMB     126      POPE     DC22     DRUD     -2.44980      0.400000           0   0.00000       0.00000    
     22789 MEMB     126      POPE     H2R      HDA2A    0.690000E-01   1.00800           0   0.00000       0.00000    
     22790 MEMB     126      POPE     H2S      HDA2A    0.690000E-01   1.00800           0   0.00000       0.00000    
     22791 MEMB     126      POPE     LP1A     LPD     -0.349000       0.00000          -1   0.00000       0.00000    
     22792 MEMB     126      POPE     LP1B     LPD     -0.258000       0.00000          -1   0.00000       0.00000    
     22793 MEMB     126      POPE     LPMA     LPD     -0.170000       0.00000          -1   0.00000       0.00000    
     22794 MEMB     126      POPE     LPMB     LPD     -0.170000       0.00000          -1   0.00000       0.00000    
     22795 MEMB     126      POPE     C3       CD32C     2.41230       11.6110           0  -1.79700      0.410000    
     22796 MEMB     126      POPE     DC3      DRUD     -2.32630      0.400000           0   0.00000       0.00000    
     22797 MEMB     126      POPE     HX       HDA2A    0.116000       1.00800           0   0.00000       0.00000    
     22798 MEMB     126      POPE     HY       HDA2A    0.116000       1.00800           0   0.00000       0.00000    
     22799 MEMB     126      POPE     O31      OD30CL    1.48470       15.5994           0 -0.732000      0.601000    
     22800 MEMB     126      POPE     DO31     DRUD     -1.48470      0.400000           0   0.00000       0.00000    
     22801 MEMB     126      POPE     C31      CD2O3B    2.72820       11.6110           0  -1.37000       1.74700    
     22802 MEMB     126      POPE     DC31     DRUD     -2.03120      0.400000           0   0.00000       0.00000    
     22803 MEMB     126      POPE     O32      OD2C3B    1.64990       15.5994           0 -0.904000      0.565000    
     22804 MEMB     126      POPE     DO32     DRUD     -1.64990      0.400000           0   0.00000       0.00000    
     22805 MEMB     126      POPE     C32      CD32C     2.24380       11.6110           0  -1.99300      0.410000    
     22806 MEMB     126      POPE     DC32     DRUD     -2.44980      0.400000           0   0.00000       0.00000    
     22807 MEMB     126      POPE     H2X      HDA2A    0.690000E-01   1.00800           0   0.00000       0.00000    
     22808 MEMB     126      POPE     H2Y      HDA2A    0.690000E-01   1.00800           0   0.00000       0.00000    
     22809 MEMB     126      POPE     LP1C     LPD     -0.349000       0.00000          -1   0.00000       0.00000    
     22810 MEMB     126      POPE     LP1D     LPD     -0.258000       0.00000          -1   0.00000       0.00000    
     22811 MEMB     126      POPE     LPMC     LPD     -0.170000       0.00000          -1   0.00000       0.00000    
     22812 MEMB     126      POPE     LPMD     LPD     -0.170000       0.00000          -1   0.00000       0.00000    
     22813 MEMB     126      POPE     C23      CD32A     2.07980       11.6110           0  -1.66000       1.30000    
     22814 MEMB     126      POPE     DC23     DRUD     -2.23580      0.400000           0   0.00000       0.00000    
     22815 MEMB     126      POPE     H3R      HDA2A    0.780000E-01   1.00800           0   0.00000       0.00000    
     22816 MEMB     126      POPE     H3S      HDA2A    0.780000E-01   1.00800           0   0.00000       0.00000    
     22817 MEMB     126      POPE     C24      CD32A     2.07980       11.6110           0  -1.66000       1.30000    
     22818 MEMB     126      POPE     DC24     DRUD     -2.23580      0.400000           0   0.00000       0.00000    
     22819 MEMB     126      POPE     H4R      HDA2A    0.780000E-01   1.00800           0   0.00000       0.00000    
     22820 MEMB     126      POPE     H4S      HDA2A    0.780000E-01   1.00800           0   0.00000       0.00000    
     22821 MEMB     126      POPE     C25      CD32A     2.07980       11.6110           0  -1.66000       1.30000    
     22822 MEMB     126      POPE     DC25     DRUD     -2.23580      0.400000           0   0.00000       0.00000    
     22823 MEMB     126      POPE     H5R      HDA2A    0.780000E-01   1.00800           0   0.00000       0.00000    
     22824 MEMB     126      POPE     H5S      HDA2A    0.780000E-01   1.00800           0   0.00000       0.00000    
     22825 MEMB     126      POPE     C26      CD32A     2.07980       11.6110           0  -1.66000       1.30000    
     22826 MEMB     126      POPE     DC26     DRUD     -2.23580      0.400000           0   0.00000       0.00000    
     22827 MEMB     126      POPE     H6R      HDA2A    0.780000E-01   1.00800           0   0.00000       0.00000    
     22828 MEMB     126      POPE     H6S      HDA2A    0.780000E-01   1.00800           0   0.00000       0.00000    
     22829 MEMB     126      POPE     C27      CD32A     2.07980       11.6110           0  -1.66000       1.30000    
     22830 MEMB     126      POPE     DC27     DRUD     -2.23580      0.400000           0   0.00000       0.00000    
     22831 MEMB     126      POPE     H7R      HDA2A    0.780000E-01   1.00800           0   0.00000       0.00000    
     22832 MEMB     126      POPE     H7S      HDA2A    0.780000E-01   1.00800           0   0.00000       0.00000    
     22833 MEMB     126      POPE     C28      CD32A     2.07980       11.6110           0  -1.66000       1.30000    
     22834 MEMB     126      POPE     DC28     DRUD     -2.23580      0.400000           0   0.00000       0.00000    
     22835 MEMB     126      POPE     H8R      HDA2A    0.780000E-01   1.00800           0   0.00000       0.00000    
     22836 MEMB     126      POPE     H8S      HDA2A    0.780000E-01   1.00800           0   0.00000       0.00000    
     22837 MEMB     126      POPE     C29      CD2C1A    2.33700       11.6110           0  -1.99000      0.750000    
     22838 MEMB     126      POPE     DC29     DRUD     -2.44800      0.400000           0   0.00000       0.00000    
     22839 MEMB     126      POPE     H91      HD2C1A   0.111000       1.00800           0   0.00000       0.00000    
     22840 MEMB     126      POPE     C210     CD2C1A    2.33700       11.6110           0  -1.99000      0.750000    
     22841 MEMB     126      POPE     DC210    DRUD     -2.44800      0.400000           0   0.00000       0.00000    
     22842 MEMB     126      POPE     H101     HD2C1A   0.111000       1.00800           0   0.00000       0.00000    
     22843 MEMB     126      POPE     C211     CD32A     2.07980       11.6110           0  -1.66000       1.30000    
     22844 MEMB     126      POPE     DC211    DRUD     -2.23580      0.400000           0   0.00000       0.00000    
     22845 MEMB     126      POPE     H11R     HDA2A    0.780000E-01   1.00800           0   0.00000       0.00000    
     22846 MEMB     126      POPE     H11S     HDA2A    0.780000E-01   1.00800           0   0.00000       0.00000    
     22847 MEMB     126      POPE     C212     CD32A     2.07980       11.6110           0  -1.66000       1.30000    
     22848 MEMB     126      POPE     DC212    DRUD     -2.23580      0.400000           0   0.00000       0.00000    
     22849 MEMB     126      POPE     H12R     HDA2A    0.780000E-01   1.00800           0   0.00000       0.00000    
     22850 MEMB     126      POPE     H12S     HDA2A    0.780000E-01   1.00800           0   0.00000       0.00000    
     22851 MEMB     126      POPE     C213     CD32A     2.07980       11.6110           0  -1.66000       1.30000    
     22852 MEMB     126      POPE     DC213    DRUD     -2.23580      0.400000           0   0.00000       0.00000    
     22853 MEMB     126      POPE     H13R     HDA2A    0.780000E-01   1.00800           0   0.00000       0.00000    
     22854 MEMB     126      POPE     H13S     HDA2A    0.780000E-01   1.00800           0   0.00000       0.00000    
     22855 MEMB     126      POPE     C214     CD32A     2.07980       11.6110           0  -1.66000       1.30000    
     22856 MEMB     126      POPE     DC214    DRUD     -2.23580      0.400000           0   0.00000       0.00000    
     22857 MEMB     126      POPE     H14R     HDA2A    0.780000E-01   1.00800           0   0.00000       0.00000    
     22858 MEMB     126      POPE     H14S     HDA2A    0.780000E-01   1.00800           0   0.00000       0.00000    
     22859 MEMB     126      POPE     C215     CD32A     2.07980       11.6110           0  -1.66000       1.30000    
     22860 MEMB     126      POPE     DC215    DRUD     -2.23580      0.400000           0   0.00000       0.00000    
     22861 MEMB     126      POPE     H15R     HDA2A    0.780000E-01   1.00800           0   0.00000       0.00000    
     22862 MEMB     126      POPE     H15S     HDA2A    0.780000E-01   1.00800           0   0.00000       0.00000    
     22863 MEMB     126      POPE     C216     CD32A     2.07980       11.6110           0  -1.66000       1.30000    
     22864 MEMB     126      POPE     DC216    DRUD     -2.23580      0.400000           0   0.00000       0.00000    
     22865 MEMB     126      POPE     H16R     HDA2A    0.780000E-01   1.00800           0   0.00000       0.00000    
     22866 MEMB     126      POPE     H16S     HDA2A    0.780000E-01   1.00800           0   0.00000       0.00000    
     22867 MEMB     126      POPE     C217     CD32A     2.07980       11.6110           0  -1.66000       1.30000    
     22868 MEMB     126      POPE     DC217    DRUD     -2.23580      0.400000           0   0.00000       0.00000    
     22869 MEMB     126      POPE     H17R     HDA2A    0.780000E-01   1.00800           0   0.00000       0.00000    
     22870 MEMB     126      POPE     H17S     HDA2A    0.780000E-01   1.00800           0   0.00000       0.00000    
     22871 MEMB     126      POPE     C218     CD33A     2.30820       11.6110           0  -2.05100       1.30000    
     22872 MEMB     126      POPE     DC218    DRUD     -2.48520      0.400000           0   0.00000       0.00000    
     22873 MEMB     126      POPE     H18R     HDA3A    0.590000E-01   1.00800           0   0.00000       0.00000    
     22874 MEMB     126      POPE     H18S     HDA3A    0.590000E-01   1.00800           0   0.00000       0.00000    
     22875 MEMB     126      POPE     H18T     HDA3A    0.590000E-01   1.00800           0   0.00000       0.00000    
     22876 MEMB     126      POPE     C33      CD32A     2.07980       11.6110           0  -1.66000       1.30000    
     22877 MEMB     126      POPE     DC33     DRUD     -2.23580      0.400000           0   0.00000       0.00000    
     22878 MEMB     126      POPE     H3X      HDA2A    0.780000E-01   1.00800           0   0.00000       0.00000    
     22879 MEMB     126      POPE     H3Y      HDA2A    0.780000E-01   1.00800           0   0.00000       0.00000    
     22880 MEMB     126      POPE     C34      CD32A     2.07980       11.6110           0  -1.66000       1.30000    
     22881 MEMB     126      POPE     DC34     DRUD     -2.23580      0.400000           0   0.00000       0.00000    
     22882 MEMB     126      POPE     H4X      HDA2A    0.780000E-01   1.00800           0   0.00000       0.00000    
     22883 MEMB     126      POPE     H4Y      HDA2A    0.780000E-01   1.00800           0   0.00000       0.00000    
     22884 MEMB     126      POPE     C35      CD32A     2.07980       11.6110           0  -1.66000       1.30000    
     22885 MEMB     126      POPE     DC35     DRUD     -2.23580      0.400000           0   0.00000       0.00000    
     22886 MEMB     126      POPE     H5X      HDA2A    0.780000E-01   1.00800           0   0.00000       0.00000    
     22887 MEMB     126      POPE     H5Y      HDA2A    0.780000E-01   1.00800           0   0.00000       0.00000    
     22888 MEMB     126      POPE     C36      CD32A     2.07980       11.6110           0  -1.66000       1.30000    
     22889 MEMB     126      POPE     DC36     DRUD     -2.23580      0.400000           0   0.00000       0.00000    
     22890 MEMB     126      POPE     H6X      HDA2A    0.780000E-01   1.00800           0   0.00000       0.00000    
     22891 MEMB     126      POPE     H6Y      HDA2A    0.780000E-01   1.00800           0   0.00000       0.00000    
     22892 MEMB     126      POPE     C37      CD32A     2.07980       11.6110           0  -1.66000       1.30000    
     22893 MEMB     126      POPE     DC37     DRUD     -2.23580      0.400000           0   0.00000       0.00000    
     22894 MEMB     126      POPE     H7X      HDA2A    0.780000E-01   1.00800           0   0.00000       0.00000    
     22895 MEMB     126      POPE     H7Y      HDA2A    0.780000E-01   1.00800           0   0.00000       0.00000    
     22896 MEMB     126      POPE     C38      CD32A     2.07980       11.6110           0  -1.66000       1.30000    
     22897 MEMB     126      POPE     DC38     DRUD     -2.23580      0.400000           0   0.00000       0.00000    
     22898 MEMB     126      POPE     H8X      HDA2A    0.780000E-01   1.00800           0   0.00000       0.00000    
     22899 MEMB     126      POPE     H8Y      HDA2A    0.780000E-01   1.00800           0   0.00000       0.00000    
     22900 MEMB     126      POPE     C39      CD32A     2.07980       11.6110           0  -1.66000       1.30000    
     22901 MEMB     126      POPE     DC39     DRUD     -2.23580      0.400000           0   0.00000       0.00000    
     22902 MEMB     126      POPE     H9X      HDA2A    0.780000E-01   1.00800           0   0.00000       0.00000    
     22903 MEMB     126      POPE     H9Y      HDA2A    0.780000E-01   1.00800           0   0.00000       0.00000    
     22904 MEMB     126      POPE     C310     CD32A     2.07980       11.6110           0  -1.66000       1.30000    
     22905 MEMB     126      POPE     DC310    DRUD     -2.23580      0.400000           0   0.00000       0.00000    
     22906 MEMB     126      POPE     H10X     HDA2A    0.780000E-01   1.00800           0   0.00000       0.00000    
     22907 MEMB     126      POPE     H10Y     HDA2A    0.780000E-01   1.00800           0   0.00000       0.00000    
     22908 MEMB     126      POPE     C311     CD32A     2.07980       11.6110           0  -1.66000       1.30000    
     22909 MEMB     126      POPE     DC311    DRUD     -2.23580      0.400000           0   0.00000       0.00000    
     22910 MEMB     126      POPE     H11X     HDA2A    0.780000E-01   1.00800           0   0.00000       0.00000    
     22911 MEMB     126      POPE     H11Y     HDA2A    0.780000E-01   1.00800           0   0.00000       0.00000    
     22912 MEMB     126      POPE     C312     CD32A     2.07980       11.6110           0  -1.66000       1.30000    
     22913 MEMB     126      POPE     DC312    DRUD     -2.23580      0.400000           0   0.00000       0.00000    
     22914 MEMB     126      POPE     H12X     HDA2A    0.780000E-01   1.00800           0   0.00000       0.00000    
     22915 MEMB     126      POPE     H12Y     HDA2A    0.780000E-01   1.00800           0   0.00000       0.00000    
     22916 MEMB     126      POPE     C313     CD32A     2.07980       11.6110           0  -1.66000       1.30000    
     22917 MEMB     126      POPE     DC313    DRUD     -2.23580      0.400000           0   0.00000       0.00000    
     22918 MEMB     126      POPE     H13X     HDA2A    0.780000E-01   1.00800           0   0.00000       0.00000    
     22919 MEMB     126      POPE     H13Y     HDA2A    0.780000E-01   1.00800           0   0.00000       0.00000    
     22920 MEMB     126      POPE     C314     CD32A     2.07980       11.6110           0  -1.66000       1.30000    
     22921 MEMB     126      POPE     DC314    DRUD     -2.23580      0.400000           0   0.00000       0.00000    
     22922 MEMB     126      POPE     H14X     HDA2A    0.780000E-01   1.00800           0   0.00000       0.00000    
     22923 MEMB     126      POPE     H14Y     HDA2A    0.780000E-01   1.00800           0   0.00000       0.00000    
     22924 MEMB     126      POPE     C315     CD32A     2.07980       11.6110           0  -1.66000       1.30000    
     22925 MEMB     126      POPE     DC315    DRUD     -2.23580      0.400000           0   0.00000       0.00000    
     22926 MEMB     126      POPE     H15X     HDA2A    0.780000E-01   1.00800           0   0.00000       0.00000    
     22927 MEMB     126      POPE     H15Y     HDA2A    0.780000E-01   1.00800           0   0.00000       0.00000    
     22928 MEMB     126      POPE     C316     CD33A     2.30820       11.6110           0  -2.05100       1.30000    
     22929 MEMB     126      POPE     DC316    DRUD     -2.48520      0.400000           0   0.00000       0.00000    
     22930 MEMB     126      POPE     H16X     HDA3A    0.590000E-01   1.00800           0   0.00000       0.00000    
     22931 MEMB     126      POPE     H16Y     HDA3A    0.590000E-01   1.00800           0   0.00000       0.00000    
     22932 MEMB     126      POPE     H16Z     HDA3A    0.590000E-01   1.00800           0   0.00000       0.00000    
     22933 MEMB     127      POPE     N        ND3P3A    1.62810       13.6070           0  -1.29800      0.895000    
     22934 MEMB     127      POPE     DN       DRUD     -1.97710      0.400000           0   0.00000       0.00000    
     22935 MEMB     127      POPE     HN1      HDP1B    0.340000       1.00800           0   0.00000       0.00000    
     22936 MEMB     127      POPE     HN2      HDP1B    0.340000       1.00800           0   0.00000       0.00000    
     22937 MEMB     127      POPE     HN3      HDP1B    0.340000       1.00800           0   0.00000       0.00000    
     22938 MEMB     127      POPE     C12      CD32A     2.27610       11.6110           0  -1.65600      0.895000    
     22939 MEMB     127      POPE     DC12     DRUD     -2.23310      0.400000           0   0.00000       0.00000    
     22940 MEMB     127      POPE     H12A     HDA2A    0.143000       1.00800           0   0.00000       0.00000    
     22941 MEMB     127      POPE     H12B     HDA2A    0.143000       1.00800           0   0.00000       0.00000    
     22942 MEMB     127      POPE     C11      CD32A     2.42220       11.6110           0  -1.64200      0.862000    
     22943 MEMB     127      POPE     DC11     DRUD     -2.22370      0.400000           0   0.00000       0.00000    
     22944 MEMB     127      POPE     H11A     HDA2A    0.260000E-01   1.00800           0   0.00000       0.00000    
     22945 MEMB     127      POPE     H11B     HDA2A    0.260000E-01   1.00800           0   0.00000       0.00000    
     22946 MEMB     127      POPE     P        PD1A      2.90360       30.5740           0 -0.974000       2.09800    
     22947 MEMB     127      POPE     DP       DRUD     -1.71260      0.400000           0   0.00000       0.00000    
     22948 MEMB     127      POPE     O13      OD2C2B   0.798400       15.5994           0 -0.931000       1.08300    
     22949 MEMB     127      POPE     DO13     DRUD     -1.67440      0.400000           0   0.00000       0.00000    
     22950 MEMB     127      POPE     O14      OD2C2B   0.798400       15.5994           0 -0.931000       1.08300    
     22951 MEMB     127      POPE     DO14     DRUD     -1.67440      0.400000           0   0.00000       0.00000    
     22952 MEMB     127      POPE     O11      OD30B     1.17720       15.5994           0 -0.901000      0.181000    
     22953 MEMB     127      POPE     DO11     DRUD     -1.64720      0.400000           0   0.00000       0.00000    
     22954 MEMB     127      POPE     O12      OD30B     1.17720       15.5994           0 -0.901000      0.181000    
     22955 MEMB     127      POPE     DO12     DRUD     -1.64720      0.400000           0   0.00000       0.00000    
     22956 MEMB     127      POPE     C1       CD32A     2.42220       11.6110           0  -1.64200      0.862000    
     22957 MEMB     127      POPE     DC1      DRUD     -2.22370      0.400000           0   0.00000       0.00000    
     22958 MEMB     127      POPE     HA       HDA2A    0.260000E-01   1.00800           0   0.00000       0.00000    
     22959 MEMB     127      POPE     HB       HDA2A    0.260000E-01   1.00800           0   0.00000       0.00000    
     22960 MEMB     127      POPE     C2       CD31C     2.52830       11.6110           0  -1.79700      0.410000    
     22961 MEMB     127      POPE     DC2      DRUD     -2.32630      0.400000           0   0.00000       0.00000    
     22962 MEMB     127      POPE     HS       HDA1A    0.116000       1.00800           0   0.00000       0.00000    
     22963 MEMB     127      POPE     O21      OD30CL    1.48470       15.5994           0 -0.732000      0.601000    
     22964 MEMB     127      POPE     DO21     DRUD     -1.48470      0.400000           0   0.00000       0.00000    
     22965 MEMB     127      POPE     C21      CD2O3B    2.72820       11.6110           0  -1.37000       1.74700    
     22966 MEMB     127      POPE     DC21     DRUD     -2.03120      0.400000           0   0.00000       0.00000    
     22967 MEMB     127      POPE     O22      OD2C3B    1.64990       15.5994           0 -0.904000      0.565000    
     22968 MEMB     127      POPE     DO22     DRUD     -1.64990      0.400000           0   0.00000       0.00000    
     22969 MEMB     127      POPE     C22      CD32C     2.24380       11.6110           0  -1.99300      0.410000    
     22970 MEMB     127      POPE     DC22     DRUD     -2.44980      0.400000           0   0.00000       0.00000    
     22971 MEMB     127      POPE     H2R      HDA2A    0.690000E-01   1.00800           0   0.00000       0.00000    
     22972 MEMB     127      POPE     H2S      HDA2A    0.690000E-01   1.00800           0   0.00000       0.00000    
     22973 MEMB     127      POPE     LP1A     LPD     -0.349000       0.00000          -1   0.00000       0.00000    
     22974 MEMB     127      POPE     LP1B     LPD     -0.258000       0.00000          -1   0.00000       0.00000    
     22975 MEMB     127      POPE     LPMA     LPD     -0.170000       0.00000          -1   0.00000       0.00000    
     22976 MEMB     127      POPE     LPMB     LPD     -0.170000       0.00000          -1   0.00000       0.00000    
     22977 MEMB     127      POPE     C3       CD32C     2.41230       11.6110           0  -1.79700      0.410000    
     22978 MEMB     127      POPE     DC3      DRUD     -2.32630      0.400000           0   0.00000       0.00000    
     22979 MEMB     127      POPE     HX       HDA2A    0.116000       1.00800           0   0.00000       0.00000    
     22980 MEMB     127      POPE     HY       HDA2A    0.116000       1.00800           0   0.00000       0.00000    
     22981 MEMB     127      POPE     O31      OD30CL    1.48470       15.5994           0 -0.732000      0.601000    
     22982 MEMB     127      POPE     DO31     DRUD     -1.48470      0.400000           0   0.00000       0.00000    
     22983 MEMB     127      POPE     C31      CD2O3B    2.72820       11.6110           0  -1.37000       1.74700    
     22984 MEMB     127      POPE     DC31     DRUD     -2.03120      0.400000           0   0.00000       0.00000    
     22985 MEMB     127      POPE     O32      OD2C3B    1.64990       15.5994           0 -0.904000      0.565000    
     22986 MEMB     127      POPE     DO32     DRUD     -1.64990      0.400000           0   0.00000       0.00000    
     22987 MEMB     127      POPE     C32      CD32C     2.24380       11.6110           0  -1.99300      0.410000    
     22988 MEMB     127      POPE     DC32     DRUD     -2.44980      0.400000           0   0.00000       0.00000    
     22989 MEMB     127      POPE     H2X      HDA2A    0.690000E-01   1.00800           0   0.00000       0.00000    
     22990 MEMB     127      POPE     H2Y      HDA2A    0.690000E-01   1.00800           0   0.00000       0.00000    
     22991 MEMB     127      POPE     LP1C     LPD     -0.349000       0.00000          -1   0.00000       0.00000    
     22992 MEMB     127      POPE     LP1D     LPD     -0.258000       0.00000          -1   0.00000       0.00000    
     22993 MEMB     127      POPE     LPMC     LPD     -0.170000       0.00000          -1   0.00000       0.00000    
     22994 MEMB     127      POPE     LPMD     LPD     -0.170000       0.00000          -1   0.00000       0.00000    
     22995 MEMB     127      POPE     C23      CD32A     2.07980       11.6110           0  -1.66000       1.30000    
     22996 MEMB     127      POPE     DC23     DRUD     -2.23580      0.400000           0   0.00000       0.00000    
     22997 MEMB     127      POPE     H3R      HDA2A    0.780000E-01   1.00800           0   0.00000       0.00000    
     22998 MEMB     127      POPE     H3S      HDA2A    0.780000E-01   1.00800           0   0.00000       0.00000    
     22999 MEMB     127      POPE     C24      CD32A     2.07980       11.6110           0  -1.66000       1.30000    
     23000 MEMB     127      POPE     DC24     DRUD     -2.23580      0.400000           0   0.00000       0.00000    
     23001 MEMB     127      POPE     H4R      HDA2A    0.780000E-01   1.00800           0   0.00000       0.00000    
     23002 MEMB     127      POPE     H4S      HDA2A    0.780000E-01   1.00800           0   0.00000       0.00000    
     23003 MEMB     127      POPE     C25      CD32A     2.07980       11.6110           0  -1.66000       1.30000    
     23004 MEMB     127      POPE     DC25     DRUD     -2.23580      0.400000           0   0.00000       0.00000    
     23005 MEMB     127      POPE     H5R      HDA2A    0.780000E-01   1.00800           0   0.00000       0.00000    
     23006 MEMB     127      POPE     H5S      HDA2A    0.780000E-01   1.00800           0   0.00000       0.00000    
     23007 MEMB     127      POPE     C26      CD32A     2.07980       11.6110           0  -1.66000       1.30000    
     23008 MEMB     127      POPE     DC26     DRUD     -2.23580      0.400000           0   0.00000       0.00000    
     23009 MEMB     127      POPE     H6R      HDA2A    0.780000E-01   1.00800           0   0.00000       0.00000    
     23010 MEMB     127      POPE     H6S      HDA2A    0.780000E-01   1.00800           0   0.00000       0.00000    
     23011 MEMB     127      POPE     C27      CD32A     2.07980       11.6110           0  -1.66000       1.30000    
     23012 MEMB     127      POPE     DC27     DRUD     -2.23580      0.400000           0   0.00000       0.00000    
     23013 MEMB     127      POPE     H7R      HDA2A    0.780000E-01   1.00800           0   0.00000       0.00000    
     23014 MEMB     127      POPE     H7S      HDA2A    0.780000E-01   1.00800           0   0.00000       0.00000    
     23015 MEMB     127      POPE     C28      CD32A     2.07980       11.6110           0  -1.66000       1.30000    
     23016 MEMB     127      POPE     DC28     DRUD     -2.23580      0.400000           0   0.00000       0.00000    
     23017 MEMB     127      POPE     H8R      HDA2A    0.780000E-01   1.00800           0   0.00000       0.00000    
     23018 MEMB     127      POPE     H8S      HDA2A    0.780000E-01   1.00800           0   0.00000       0.00000    
     23019 MEMB     127      POPE     C29      CD2C1A    2.33700       11.6110           0  -1.99000      0.750000    
     23020 MEMB     127      POPE     DC29     DRUD     -2.44800      0.400000           0   0.00000       0.00000    
     23021 MEMB     127      POPE     H91      HD2C1A   0.111000       1.00800           0   0.00000       0.00000    
     23022 MEMB     127      POPE     C210     CD2C1A    2.33700       11.6110           0  -1.99000      0.750000    
     23023 MEMB     127      POPE     DC210    DRUD     -2.44800      0.400000           0   0.00000       0.00000    
     23024 MEMB     127      POPE     H101     HD2C1A   0.111000       1.00800           0   0.00000       0.00000    
     23025 MEMB     127      POPE     C211     CD32A     2.07980       11.6110           0  -1.66000       1.30000    
     23026 MEMB     127      POPE     DC211    DRUD     -2.23580      0.400000           0   0.00000       0.00000    
     23027 MEMB     127      POPE     H11R     HDA2A    0.780000E-01   1.00800           0   0.00000       0.00000    
     23028 MEMB     127      POPE     H11S     HDA2A    0.780000E-01   1.00800           0   0.00000       0.00000    
     23029 MEMB     127      POPE     C212     CD32A     2.07980       11.6110           0  -1.66000       1.30000    
     23030 MEMB     127      POPE     DC212    DRUD     -2.23580      0.400000           0   0.00000       0.00000    
     23031 MEMB     127      POPE     H12R     HDA2A    0.780000E-01   1.00800           0   0.00000       0.00000    
     23032 MEMB     127      POPE     H12S     HDA2A    0.780000E-01   1.00800           0   0.00000       0.00000    
     23033 MEMB     127      POPE     C213     CD32A     2.07980       11.6110           0  -1.66000       1.30000    
     23034 MEMB     127      POPE     DC213    DRUD     -2.23580      0.400000           0   0.00000       0.00000    
     23035 MEMB     127      POPE     H13R     HDA2A    0.780000E-01   1.00800           0   0.00000       0.00000    
     23036 MEMB     127      POPE     H13S     HDA2A    0.780000E-01   1.00800           0   0.00000       0.00000    
     23037 MEMB     127      POPE     C214     CD32A     2.07980       11.6110           0  -1.66000       1.30000    
     23038 MEMB     127      POPE     DC214    DRUD     -2.23580      0.400000           0   0.00000       0.00000    
     23039 MEMB     127      POPE     H14R     HDA2A    0.780000E-01   1.00800           0   0.00000       0.00000    
     23040 MEMB     127      POPE     H14S     HDA2A    0.780000E-01   1.00800           0   0.00000       0.00000    
     23041 MEMB     127      POPE     C215     CD32A     2.07980       11.6110           0  -1.66000       1.30000    
     23042 MEMB     127      POPE     DC215    DRUD     -2.23580      0.400000           0   0.00000       0.00000    
     23043 MEMB     127      POPE     H15R     HDA2A    0.780000E-01   1.00800           0   0.00000       0.00000    
     23044 MEMB     127      POPE     H15S     HDA2A    0.780000E-01   1.00800           0   0.00000       0.00000    
     23045 MEMB     127      POPE     C216     CD32A     2.07980       11.6110           0  -1.66000       1.30000    
     23046 MEMB     127      POPE     DC216    DRUD     -2.23580      0.400000           0   0.00000       0.00000    
     23047 MEMB     127      POPE     H16R     HDA2A    0.780000E-01   1.00800           0   0.00000       0.00000    
     23048 MEMB     127      POPE     H16S     HDA2A    0.780000E-01   1.00800           0   0.00000       0.00000    
     23049 MEMB     127      POPE     C217     CD32A     2.07980       11.6110           0  -1.66000       1.30000    
     23050 MEMB     127      POPE     DC217    DRUD     -2.23580      0.400000           0   0.00000       0.00000    
     23051 MEMB     127      POPE     H17R     HDA2A    0.780000E-01   1.00800           0   0.00000       0.00000    
     23052 MEMB     127      POPE     H17S     HDA2A    0.780000E-01   1.00800           0   0.00000       0.00000    
     23053 MEMB     127      POPE     C218     CD33A     2.30820       11.6110           0  -2.05100       1.30000    
     23054 MEMB     127      POPE     DC218    DRUD     -2.48520      0.400000           0   0.00000       0.00000    
     23055 MEMB     127      POPE     H18R     HDA3A    0.590000E-01   1.00800           0   0.00000       0.00000    
     23056 MEMB     127      POPE     H18S     HDA3A    0.590000E-01   1.00800           0   0.00000       0.00000    
     23057 MEMB     127      POPE     H18T     HDA3A    0.590000E-01   1.00800           0   0.00000       0.00000    
     23058 MEMB     127      POPE     C33      CD32A     2.07980       11.6110           0  -1.66000       1.30000    
     23059 MEMB     127      POPE     DC33     DRUD     -2.23580      0.400000           0   0.00000       0.00000    
     23060 MEMB     127      POPE     H3X      HDA2A    0.780000E-01   1.00800           0   0.00000       0.00000    
     23061 MEMB     127      POPE     H3Y      HDA2A    0.780000E-01   1.00800           0   0.00000       0.00000    
     23062 MEMB     127      POPE     C34      CD32A     2.07980       11.6110           0  -1.66000       1.30000    
     23063 MEMB     127      POPE     DC34     DRUD     -2.23580      0.400000           0   0.00000       0.00000    
     23064 MEMB     127      POPE     H4X      HDA2A    0.780000E-01   1.00800           0   0.00000       0.00000    
     23065 MEMB     127      POPE     H4Y      HDA2A    0.780000E-01   1.00800           0   0.00000       0.00000    
     23066 MEMB     127      POPE     C35      CD32A     2.07980       11.6110           0  -1.66000       1.30000    
     23067 MEMB     127      POPE     DC35     DRUD     -2.23580      0.400000           0   0.00000       0.00000    
     23068 MEMB     127      POPE     H5X      HDA2A    0.780000E-01   1.00800           0   0.00000       0.00000    
     23069 MEMB     127      POPE     H5Y      HDA2A    0.780000E-01   1.00800           0   0.00000       0.00000    
     23070 MEMB     127      POPE     C36      CD32A     2.07980       11.6110           0  -1.66000       1.30000    
     23071 MEMB     127      POPE     DC36     DRUD     -2.23580      0.400000           0   0.00000       0.00000    
     23072 MEMB     127      POPE     H6X      HDA2A    0.780000E-01   1.00800           0   0.00000       0.00000    
     23073 MEMB     127      POPE     H6Y      HDA2A    0.780000E-01   1.00800           0   0.00000       0.00000    
     23074 MEMB     127      POPE     C37      CD32A     2.07980       11.6110           0  -1.66000       1.30000    
     23075 MEMB     127      POPE     DC37     DRUD     -2.23580      0.400000           0   0.00000       0.00000    
     23076 MEMB     127      POPE     H7X      HDA2A    0.780000E-01   1.00800           0   0.00000       0.00000    
     23077 MEMB     127      POPE     H7Y      HDA2A    0.780000E-01   1.00800           0   0.00000       0.00000    
     23078 MEMB     127      POPE     C38      CD32A     2.07980       11.6110           0  -1.66000       1.30000    
     23079 MEMB     127      POPE     DC38     DRUD     -2.23580      0.400000           0   0.00000       0.00000    
     23080 MEMB     127      POPE     H8X      HDA2A    0.780000E-01   1.00800           0   0.00000       0.00000    
     23081 MEMB     127      POPE     H8Y      HDA2A    0.780000E-01   1.00800           0   0.00000       0.00000    
     23082 MEMB     127      POPE     C39      CD32A     2.07980       11.6110           0  -1.66000       1.30000    
     23083 MEMB     127      POPE     DC39     DRUD     -2.23580      0.400000           0   0.00000       0.00000    
     23084 MEMB     127      POPE     H9X      HDA2A    0.780000E-01   1.00800           0   0.00000       0.00000    
     23085 MEMB     127      POPE     H9Y      HDA2A    0.780000E-01   1.00800           0   0.00000       0.00000    
     23086 MEMB     127      POPE     C310     CD32A     2.07980       11.6110           0  -1.66000       1.30000    
     23087 MEMB     127      POPE     DC310    DRUD     -2.23580      0.400000           0   0.00000       0.00000    
     23088 MEMB     127      POPE     H10X     HDA2A    0.780000E-01   1.00800           0   0.00000       0.00000    
     23089 MEMB     127      POPE     H10Y     HDA2A    0.780000E-01   1.00800           0   0.00000       0.00000    
     23090 MEMB     127      POPE     C311     CD32A     2.07980       11.6110           0  -1.66000       1.30000    
     23091 MEMB     127      POPE     DC311    DRUD     -2.23580      0.400000           0   0.00000       0.00000    
     23092 MEMB     127      POPE     H11X     HDA2A    0.780000E-01   1.00800           0   0.00000       0.00000    
     23093 MEMB     127      POPE     H11Y     HDA2A    0.780000E-01   1.00800           0   0.00000       0.00000    
     23094 MEMB     127      POPE     C312     CD32A     2.07980       11.6110           0  -1.66000       1.30000    
     23095 MEMB     127      POPE     DC312    DRUD     -2.23580      0.400000           0   0.00000       0.00000    
     23096 MEMB     127      POPE     H12X     HDA2A    0.780000E-01   1.00800           0   0.00000       0.00000    
     23097 MEMB     127      POPE     H12Y     HDA2A    0.780000E-01   1.00800           0   0.00000       0.00000    
     23098 MEMB     127      POPE     C313     CD32A     2.07980       11.6110           0  -1.66000       1.30000    
     23099 MEMB     127      POPE     DC313    DRUD     -2.23580      0.400000           0   0.00000       0.00000    
     23100 MEMB     127      POPE     H13X     HDA2A    0.780000E-01   1.00800           0   0.00000       0.00000    
     23101 MEMB     127      POPE     H13Y     HDA2A    0.780000E-01   1.00800           0   0.00000       0.00000    
     23102 MEMB     127      POPE     C314     CD32A     2.07980       11.6110           0  -1.66000       1.30000    
     23103 MEMB     127      POPE     DC314    DRUD     -2.23580      0.400000           0   0.00000       0.00000    
     23104 MEMB     127      POPE     H14X     HDA2A    0.780000E-01   1.00800           0   0.00000       0.00000    
     23105 MEMB     127      POPE     H14Y     HDA2A    0.780000E-01   1.00800           0   0.00000       0.00000    
     23106 MEMB     127      POPE     C315     CD32A     2.07980       11.6110           0  -1.66000       1.30000    
     23107 MEMB     127      POPE     DC315    DRUD     -2.23580      0.400000           0   0.00000       0.00000    
     23108 MEMB     127      POPE     H15X     HDA2A    0.780000E-01   1.00800           0   0.00000       0.00000    
     23109 MEMB     127      POPE     H15Y     HDA2A    0.780000E-01   1.00800           0   0.00000       0.00000    
     23110 MEMB     127      POPE     C316     CD33A     2.30820       11.6110           0  -2.05100       1.30000    
     23111 MEMB     127      POPE     DC316    DRUD     -2.48520      0.400000           0   0.00000       0.00000    
     23112 MEMB     127      POPE     H16X     HDA3A    0.590000E-01   1.00800           0   0.00000       0.00000    
     23113 MEMB     127      POPE     H16Y     HDA3A    0.590000E-01   1.00800           0   0.00000       0.00000    
     23114 MEMB     127      POPE     H16Z     HDA3A    0.590000E-01   1.00800           0   0.00000       0.00000    
     23115 MEMB     128      POPE     N        ND3P3A    1.62810       13.6070           0  -1.29800      0.895000    
     23116 MEMB     128      POPE     DN       DRUD     -1.97710      0.400000           0   0.00000       0.00000    
     23117 MEMB     128      POPE     HN1      HDP1B    0.340000       1.00800           0   0.00000       0.00000    
     23118 MEMB     128      POPE     HN2      HDP1B    0.340000       1.00800           0   0.00000       0.00000    
     23119 MEMB     128      POPE     HN3      HDP1B    0.340000       1.00800           0   0.00000       0.00000    
     23120 MEMB     128      POPE     C12      CD32A     2.27610       11.6110           0  -1.65600      0.895000    
     23121 MEMB     128      POPE     DC12     DRUD     -2.23310      0.400000           0   0.00000       0.00000    
     23122 MEMB     128      POPE     H12A     HDA2A    0.143000       1.00800           0   0.00000       0.00000    
     23123 MEMB     128      POPE     H12B     HDA2A    0.143000       1.00800           0   0.00000       0.00000    
     23124 MEMB     128      POPE     C11      CD32A     2.42220       11.6110           0  -1.64200      0.862000    
     23125 MEMB     128      POPE     DC11     DRUD     -2.22370      0.400000           0   0.00000       0.00000    
     23126 MEMB     128      POPE     H11A     HDA2A    0.260000E-01   1.00800           0   0.00000       0.00000    
     23127 MEMB     128      POPE     H11B     HDA2A    0.260000E-01   1.00800           0   0.00000       0.00000    
     23128 MEMB     128      POPE     P        PD1A      2.90360       30.5740           0 -0.974000       2.09800    
     23129 MEMB     128      POPE     DP       DRUD     -1.71260      0.400000           0   0.00000       0.00000    
     23130 MEMB     128      POPE     O13      OD2C2B   0.798400       15.5994           0 -0.931000       1.08300    
     23131 MEMB     128      POPE     DO13     DRUD     -1.67440      0.400000           0   0.00000       0.00000    
     23132 MEMB     128      POPE     O14      OD2C2B   0.798400       15.5994           0 -0.931000       1.08300    
     23133 MEMB     128      POPE     DO14     DRUD     -1.67440      0.400000           0   0.00000       0.00000    
     23134 MEMB     128      POPE     O11      OD30B     1.17720       15.5994           0 -0.901000      0.181000    
     23135 MEMB     128      POPE     DO11     DRUD     -1.64720      0.400000           0   0.00000       0.00000    
     23136 MEMB     128      POPE     O12      OD30B     1.17720       15.5994           0 -0.901000      0.181000    
     23137 MEMB     128      POPE     DO12     DRUD     -1.64720      0.400000           0   0.00000       0.00000    
     23138 MEMB     128      POPE     C1       CD32A     2.42220       11.6110           0  -1.64200      0.862000    
     23139 MEMB     128      POPE     DC1      DRUD     -2.22370      0.400000           0   0.00000       0.00000    
     23140 MEMB     128      POPE     HA       HDA2A    0.260000E-01   1.00800           0   0.00000       0.00000    
     23141 MEMB     128      POPE     HB       HDA2A    0.260000E-01   1.00800           0   0.00000       0.00000    
     23142 MEMB     128      POPE     C2       CD31C     2.52830       11.6110           0  -1.79700      0.410000    
     23143 MEMB     128      POPE     DC2      DRUD     -2.32630      0.400000           0   0.00000       0.00000    
     23144 MEMB     128      POPE     HS       HDA1A    0.116000       1.00800           0   0.00000       0.00000    
     23145 MEMB     128      POPE     O21      OD30CL    1.48470       15.5994           0 -0.732000      0.601000    
     23146 MEMB     128      POPE     DO21     DRUD     -1.48470      0.400000           0   0.00000       0.00000    
     23147 MEMB     128      POPE     C21      CD2O3B    2.72820       11.6110           0  -1.37000       1.74700    
     23148 MEMB     128      POPE     DC21     DRUD     -2.03120      0.400000           0   0.00000       0.00000    
     23149 MEMB     128      POPE     O22      OD2C3B    1.64990       15.5994           0 -0.904000      0.565000    
     23150 MEMB     128      POPE     DO22     DRUD     -1.64990      0.400000           0   0.00000       0.00000    
     23151 MEMB     128      POPE     C22      CD32C     2.24380       11.6110           0  -1.99300      0.410000    
     23152 MEMB     128      POPE     DC22     DRUD     -2.44980      0.400000           0   0.00000       0.00000    
     23153 MEMB     128      POPE     H2R      HDA2A    0.690000E-01   1.00800           0   0.00000       0.00000    
     23154 MEMB     128      POPE     H2S      HDA2A    0.690000E-01   1.00800           0   0.00000       0.00000    
     23155 MEMB     128      POPE     LP1A     LPD     -0.349000       0.00000          -1   0.00000       0.00000    
     23156 MEMB     128      POPE     LP1B     LPD     -0.258000       0.00000          -1   0.00000       0.00000    
     23157 MEMB     128      POPE     LPMA     LPD     -0.170000       0.00000          -1   0.00000       0.00000    
     23158 MEMB     128      POPE     LPMB     LPD     -0.170000       0.00000          -1   0.00000       0.00000    
     23159 MEMB     128      POPE     C3       CD32C     2.41230       11.6110           0  -1.79700      0.410000    
     23160 MEMB     128      POPE     DC3      DRUD     -2.32630      0.400000           0   0.00000       0.00000    
     23161 MEMB     128      POPE     HX       HDA2A    0.116000       1.00800           0   0.00000       0.00000    
     23162 MEMB     128      POPE     HY       HDA2A    0.116000       1.00800           0   0.00000       0.00000    
     23163 MEMB     128      POPE     O31      OD30CL    1.48470       15.5994           0 -0.732000      0.601000    
     23164 MEMB     128      POPE     DO31     DRUD     -1.48470      0.400000           0   0.00000       0.00000    
     23165 MEMB     128      POPE     C31      CD2O3B    2.72820       11.6110           0  -1.37000       1.74700    
     23166 MEMB     128      POPE     DC31     DRUD     -2.03120      0.400000           0   0.00000       0.00000    
     23167 MEMB     128      POPE     O32      OD2C3B    1.64990       15.5994           0 -0.904000      0.565000    
     23168 MEMB     128      POPE     DO32     DRUD     -1.64990      0.400000           0   0.00000       0.00000    
     23169 MEMB     128      POPE     C32      CD32C     2.24380       11.6110           0  -1.99300      0.410000    
     23170 MEMB     128      POPE     DC32     DRUD     -2.44980      0.400000           0   0.00000       0.00000    
     23171 MEMB     128      POPE     H2X      HDA2A    0.690000E-01   1.00800           0   0.00000       0.00000    
     23172 MEMB     128      POPE     H2Y      HDA2A    0.690000E-01   1.00800           0   0.00000       0.00000    
     23173 MEMB     128      POPE     LP1C     LPD     -0.349000       0.00000          -1   0.00000       0.00000    
     23174 MEMB     128      POPE     LP1D     LPD     -0.258000       0.00000          -1   0.00000       0.00000    
     23175 MEMB     128      POPE     LPMC     LPD     -0.170000       0.00000          -1   0.00000       0.00000    
     23176 MEMB     128      POPE     LPMD     LPD     -0.170000       0.00000          -1   0.00000       0.00000    
     23177 MEMB     128      POPE     C23      CD32A     2.07980       11.6110           0  -1.66000       1.30000    
     23178 MEMB     128      POPE     DC23     DRUD     -2.23580      0.400000           0   0.00000       0.00000    
     23179 MEMB     128      POPE     H3R      HDA2A    0.780000E-01   1.00800           0   0.00000       0.00000    
     23180 MEMB     128      POPE     H3S      HDA2A    0.780000E-01   1.00800           0   0.00000       0.00000    
     23181 MEMB     128      POPE     C24      CD32A     2.07980       11.6110           0  -1.66000       1.30000    
     23182 MEMB     128      POPE     DC24     DRUD     -2.23580      0.400000           0   0.00000       0.00000    
     23183 MEMB     128      POPE     H4R      HDA2A    0.780000E-01   1.00800           0   0.00000       0.00000    
     23184 MEMB     128      POPE     H4S      HDA2A    0.780000E-01   1.00800           0   0.00000       0.00000    
     23185 MEMB     128      POPE     C25      CD32A     2.07980       11.6110           0  -1.66000       1.30000    
     23186 MEMB     128      POPE     DC25     DRUD     -2.23580      0.400000           0   0.00000       0.00000    
     23187 MEMB     128      POPE     H5R      HDA2A    0.780000E-01   1.00800           0   0.00000       0.00000    
     23188 MEMB     128      POPE     H5S      HDA2A    0.780000E-01   1.00800           0   0.00000       0.00000    
     23189 MEMB     128      POPE     C26      CD32A     2.07980       11.6110           0  -1.66000       1.30000    
     23190 MEMB     128      POPE     DC26     DRUD     -2.23580      0.400000           0   0.00000       0.00000    
     23191 MEMB     128      POPE     H6R      HDA2A    0.780000E-01   1.00800           0   0.00000       0.00000    
     23192 MEMB     128      POPE     H6S      HDA2A    0.780000E-01   1.00800           0   0.00000       0.00000    
     23193 MEMB     128      POPE     C27      CD32A     2.07980       11.6110           0  -1.66000       1.30000    
     23194 MEMB     128      POPE     DC27     DRUD     -2.23580      0.400000           0   0.00000       0.00000    
     23195 MEMB     128      POPE     H7R      HDA2A    0.780000E-01   1.00800           0   0.00000       0.00000    
     23196 MEMB     128      POPE     H7S      HDA2A    0.780000E-01   1.00800           0   0.00000       0.00000    
     23197 MEMB     128      POPE     C28      CD32A     2.07980       11.6110           0  -1.66000       1.30000    
     23198 MEMB     128      POPE     DC28     DRUD     -2.23580      0.400000           0   0.00000       0.00000    
     23199 MEMB     128      POPE     H8R      HDA2A    0.780000E-01   1.00800           0   0.00000       0.00000    
     23200 MEMB     128      POPE     H8S      HDA2A    0.780000E-01   1.00800           0   0.00000       0.00000    
     23201 MEMB     128      POPE     C29      CD2C1A    2.33700       11.6110           0  -1.99000      0.750000    
     23202 MEMB     128      POPE     DC29     DRUD     -2.44800      0.400000           0   0.00000       0.00000    
     23203 MEMB     128      POPE     H91      HD2C1A   0.111000       1.00800           0   0.00000       0.00000    
     23204 MEMB     128      POPE     C210     CD2C1A    2.33700       11.6110           0  -1.99000      0.750000    
     23205 MEMB     128      POPE     DC210    DRUD     -2.44800      0.400000           0   0.00000       0.00000    
     23206 MEMB     128      POPE     H101     HD2C1A   0.111000       1.00800           0   0.00000       0.00000    
     23207 MEMB     128      POPE     C211     CD32A     2.07980       11.6110           0  -1.66000       1.30000    
     23208 MEMB     128      POPE     DC211    DRUD     -2.23580      0.400000           0   0.00000       0.00000    
     23209 MEMB     128      POPE     H11R     HDA2A    0.780000E-01   1.00800           0   0.00000       0.00000    
     23210 MEMB     128      POPE     H11S     HDA2A    0.780000E-01   1.00800           0   0.00000       0.00000    
     23211 MEMB     128      POPE     C212     CD32A     2.07980       11.6110           0  -1.66000       1.30000    
     23212 MEMB     128      POPE     DC212    DRUD     -2.23580      0.400000           0   0.00000       0.00000    
     23213 MEMB     128      POPE     H12R     HDA2A    0.780000E-01   1.00800           0   0.00000       0.00000    
     23214 MEMB     128      POPE     H12S     HDA2A    0.780000E-01   1.00800           0   0.00000       0.00000    
     23215 MEMB     128      POPE     C213     CD32A     2.07980       11.6110           0  -1.66000       1.30000    
     23216 MEMB     128      POPE     DC213    DRUD     -2.23580      0.400000           0   0.00000       0.00000    
     23217 MEMB     128      POPE     H13R     HDA2A    0.780000E-01   1.00800           0   0.00000       0.00000    
     23218 MEMB     128      POPE     H13S     HDA2A    0.780000E-01   1.00800           0   0.00000       0.00000    
     23219 MEMB     128      POPE     C214     CD32A     2.07980       11.6110           0  -1.66000       1.30000    
     23220 MEMB     128      POPE     DC214    DRUD     -2.23580      0.400000           0   0.00000       0.00000    
     23221 MEMB     128      POPE     H14R     HDA2A    0.780000E-01   1.00800           0   0.00000       0.00000    
     23222 MEMB     128      POPE     H14S     HDA2A    0.780000E-01   1.00800           0   0.00000       0.00000    
     23223 MEMB     128      POPE     C215     CD32A     2.07980       11.6110           0  -1.66000       1.30000    
     23224 MEMB     128      POPE     DC215    DRUD     -2.23580      0.400000           0   0.00000       0.00000    
     23225 MEMB     128      POPE     H15R     HDA2A    0.780000E-01   1.00800           0   0.00000       0.00000    
     23226 MEMB     128      POPE     H15S     HDA2A    0.780000E-01   1.00800           0   0.00000       0.00000    
     23227 MEMB     128      POPE     C216     CD32A     2.07980       11.6110           0  -1.66000       1.30000    
     23228 MEMB     128      POPE     DC216    DRUD     -2.23580      0.400000           0   0.00000       0.00000    
     23229 MEMB     128      POPE     H16R     HDA2A    0.780000E-01   1.00800           0   0.00000       0.00000    
     23230 MEMB     128      POPE     H16S     HDA2A    0.780000E-01   1.00800           0   0.00000       0.00000    
     23231 MEMB     128      POPE     C217     CD32A     2.07980       11.6110           0  -1.66000       1.30000    
     23232 MEMB     128      POPE     DC217    DRUD     -2.23580      0.400000           0   0.00000       0.00000    
     23233 MEMB     128      POPE     H17R     HDA2A    0.780000E-01   1.00800           0   0.00000       0.00000    
     23234 MEMB     128      POPE     H17S     HDA2A    0.780000E-01   1.00800           0   0.00000       0.00000    
     23235 MEMB     128      POPE     C218     CD33A     2.30820       11.6110           0  -2.05100       1.30000    
     23236 MEMB     128      POPE     DC218    DRUD     -2.48520      0.400000           0   0.00000       0.00000    
     23237 MEMB     128      POPE     H18R     HDA3A    0.590000E-01   1.00800           0   0.00000       0.00000    
     23238 MEMB     128      POPE     H18S     HDA3A    0.590000E-01   1.00800           0   0.00000       0.00000    
     23239 MEMB     128      POPE     H18T     HDA3A    0.590000E-01   1.00800           0   0.00000       0.00000    
     23240 MEMB     128      POPE     C33      CD32A     2.07980       11.6110           0  -1.66000       1.30000    
     23241 MEMB     128      POPE     DC33     DRUD     -2.23580      0.400000           0   0.00000       0.00000    
     23242 MEMB     128      POPE     H3X      HDA2A    0.780000E-01   1.00800           0   0.00000       0.00000    
     23243 MEMB     128      POPE     H3Y      HDA2A    0.780000E-01   1.00800           0   0.00000       0.00000    
     23244 MEMB     128      POPE     C34      CD32A     2.07980       11.6110           0  -1.66000       1.30000    
     23245 MEMB     128      POPE     DC34     DRUD     -2.23580      0.400000           0   0.00000       0.00000    
     23246 MEMB     128      POPE     H4X      HDA2A    0.780000E-01   1.00800           0   0.00000       0.00000    
     23247 MEMB     128      POPE     H4Y      HDA2A    0.780000E-01   1.00800           0   0.00000       0.00000    
     23248 MEMB     128      POPE     C35      CD32A     2.07980       11.6110           0  -1.66000       1.30000    
     23249 MEMB     128      POPE     DC35     DRUD     -2.23580      0.400000           0   0.00000       0.00000    
     23250 MEMB     128      POPE     H5X      HDA2A    0.780000E-01   1.00800           0   0.00000       0.00000    
     23251 MEMB     128      POPE     H5Y      HDA2A    0.780000E-01   1.00800           0   0.00000       0.00000    
     23252 MEMB     128      POPE     C36      CD32A     2.07980       11.6110           0  -1.66000       1.30000    
     23253 MEMB     128      POPE     DC36     DRUD     -2.23580      0.400000           0   0.00000       0.00000    
     23254 MEMB     128      POPE     H6X      HDA2A    0.780000E-01   1.00800           0   0.00000       0.00000    
     23255 MEMB     128      POPE     H6Y      HDA2A    0.780000E-01   1.00800           0   0.00000       0.00000    
     23256 MEMB     128      POPE     C37      CD32A     2.07980       11.6110           0  -1.66000       1.30000    
     23257 MEMB     128      POPE     DC37     DRUD     -2.23580      0.400000           0   0.00000       0.00000    
     23258 MEMB     128      POPE     H7X      HDA2A    0.780000E-01   1.00800           0   0.00000       0.00000    
     23259 MEMB     128      POPE     H7Y      HDA2A    0.780000E-01   1.00800           0   0.00000       0.00000    
     23260 MEMB     128      POPE     C38      CD32A     2.07980       11.6110           0  -1.66000       1.30000    
     23261 MEMB     128      POPE     DC38     DRUD     -2.23580      0.400000           0   0.00000       0.00000    
     23262 MEMB     128      POPE     H8X      HDA2A    0.780000E-01   1.00800           0   0.00000       0.00000    
     23263 MEMB     128      POPE     H8Y      HDA2A    0.780000E-01   1.00800           0   0.00000       0.00000    
     23264 MEMB     128      POPE     C39      CD32A     2.07980       11.6110           0  -1.66000       1.30000    
     23265 MEMB     128      POPE     DC39     DRUD     -2.23580      0.400000           0   0.00000       0.00000    
     23266 MEMB     128      POPE     H9X      HDA2A    0.780000E-01   1.00800           0   0.00000       0.00000    
     23267 MEMB     128      POPE     H9Y      HDA2A    0.780000E-01   1.00800           0   0.00000       0.00000    
     23268 MEMB     128      POPE     C310     CD32A     2.07980       11.6110           0  -1.66000       1.30000    
     23269 MEMB     128      POPE     DC310    DRUD     -2.23580      0.400000           0   0.00000       0.00000    
     23270 MEMB     128      POPE     H10X     HDA2A    0.780000E-01   1.00800           0   0.00000       0.00000    
     23271 MEMB     128      POPE     H10Y     HDA2A    0.780000E-01   1.00800           0   0.00000       0.00000    
     23272 MEMB     128      POPE     C311     CD32A     2.07980       11.6110           0  -1.66000       1.30000    
     23273 MEMB     128      POPE     DC311    DRUD     -2.23580      0.400000           0   0.00000       0.00000    
     23274 MEMB     128      POPE     H11X     HDA2A    0.780000E-01   1.00800           0   0.00000       0.00000    
     23275 MEMB     128      POPE     H11Y     HDA2A    0.780000E-01   1.00800           0   0.00000       0.00000    
     23276 MEMB     128      POPE     C312     CD32A     2.07980       11.6110           0  -1.66000       1.30000    
     23277 MEMB     128      POPE     DC312    DRUD     -2.23580      0.400000           0   0.00000       0.00000    
     23278 MEMB     128      POPE     H12X     HDA2A    0.780000E-01   1.00800           0   0.00000       0.00000    
     23279 MEMB     128      POPE     H12Y     HDA2A    0.780000E-01   1.00800           0   0.00000       0.00000    
     23280 MEMB     128      POPE     C313     CD32A     2.07980       11.6110           0  -1.66000       1.30000    
     23281 MEMB     128      POPE     DC313    DRUD     -2.23580      0.400000           0   0.00000       0.00000    
     23282 MEMB     128      POPE     H13X     HDA2A    0.780000E-01   1.00800           0   0.00000       0.00000    
     23283 MEMB     128      POPE     H13Y     HDA2A    0.780000E-01   1.00800           0   0.00000       0.00000    
     23284 MEMB     128      POPE     C314     CD32A     2.07980       11.6110           0  -1.66000       1.30000    
     23285 MEMB     128      POPE     DC314    DRUD     -2.23580      0.400000           0   0.00000       0.00000    
     23286 MEMB     128      POPE     H14X     HDA2A    0.780000E-01   1.00800           0   0.00000       0.00000    
     23287 MEMB     128      POPE     H14Y     HDA2A    0.780000E-01   1.00800           0   0.00000       0.00000    
     23288 MEMB     128      POPE     C315     CD32A     2.07980       11.6110           0  -1.66000       1.30000    
     23289 MEMB     128      POPE     DC315    DRUD     -2.23580      0.400000           0   0.00000       0.00000    
     23290 MEMB     128      POPE     H15X     HDA2A    0.780000E-01   1.00800           0   0.00000       0.00000    
     23291 MEMB     128      POPE     H15Y     HDA2A    0.780000E-01   1.00800           0   0.00000       0.00000    
     23292 MEMB     128      POPE     C316     CD33A     2.30820       11.6110           0  -2.05100       1.30000    
     23293 MEMB     128      POPE     DC316    DRUD     -2.48520      0.400000           0   0.00000       0.00000    
     23294 MEMB     128      POPE     H16X     HDA3A    0.590000E-01   1.00800           0   0.00000       0.00000    
     23295 MEMB     128      POPE     H16Y     HDA3A    0.590000E-01   1.00800           0   0.00000       0.00000    
     23296 MEMB     128      POPE     H16Z     HDA3A    0.590000E-01   1.00800           0   0.00000       0.00000    
     23297 MEMB     129      POPE     N        ND3P3A    1.62810       13.6070           0  -1.29800      0.895000    
     23298 MEMB     129      POPE     DN       DRUD     -1.97710      0.400000           0   0.00000       0.00000    
     23299 MEMB     129      POPE     HN1      HDP1B    0.340000       1.00800           0   0.00000       0.00000    
     23300 MEMB     129      POPE     HN2      HDP1B    0.340000       1.00800           0   0.00000       0.00000    
     23301 MEMB     129      POPE     HN3      HDP1B    0.340000       1.00800           0   0.00000       0.00000    
     23302 MEMB     129      POPE     C12      CD32A     2.27610       11.6110           0  -1.65600      0.895000    
     23303 MEMB     129      POPE     DC12     DRUD     -2.23310      0.400000           0   0.00000       0.00000    
     23304 MEMB     129      POPE     H12A     HDA2A    0.143000       1.00800           0   0.00000       0.00000    
     23305 MEMB     129      POPE     H12B     HDA2A    0.143000       1.00800           0   0.00000       0.00000    
     23306 MEMB     129      POPE     C11      CD32A     2.42220       11.6110           0  -1.64200      0.862000    
     23307 MEMB     129      POPE     DC11     DRUD     -2.22370      0.400000           0   0.00000       0.00000    
     23308 MEMB     129      POPE     H11A     HDA2A    0.260000E-01   1.00800           0   0.00000       0.00000    
     23309 MEMB     129      POPE     H11B     HDA2A    0.260000E-01   1.00800           0   0.00000       0.00000    
     23310 MEMB     129      POPE     P        PD1A      2.90360       30.5740           0 -0.974000       2.09800    
     23311 MEMB     129      POPE     DP       DRUD     -1.71260      0.400000           0   0.00000       0.00000    
     23312 MEMB     129      POPE     O13      OD2C2B   0.798400       15.5994           0 -0.931000       1.08300    
     23313 MEMB     129      POPE     DO13     DRUD     -1.67440      0.400000           0   0.00000       0.00000    
     23314 MEMB     129      POPE     O14      OD2C2B   0.798400       15.5994           0 -0.931000       1.08300    
     23315 MEMB     129      POPE     DO14     DRUD     -1.67440      0.400000           0   0.00000       0.00000    
     23316 MEMB     129      POPE     O11      OD30B     1.17720       15.5994           0 -0.901000      0.181000    
     23317 MEMB     129      POPE     DO11     DRUD     -1.64720      0.400000           0   0.00000       0.00000    
     23318 MEMB     129      POPE     O12      OD30B     1.17720       15.5994           0 -0.901000      0.181000    
     23319 MEMB     129      POPE     DO12     DRUD     -1.64720      0.400000           0   0.00000       0.00000    
     23320 MEMB     129      POPE     C1       CD32A     2.42220       11.6110           0  -1.64200      0.862000    
     23321 MEMB     129      POPE     DC1      DRUD     -2.22370      0.400000           0   0.00000       0.00000    
     23322 MEMB     129      POPE     HA       HDA2A    0.260000E-01   1.00800           0   0.00000       0.00000    
     23323 MEMB     129      POPE     HB       HDA2A    0.260000E-01   1.00800           0   0.00000       0.00000    
     23324 MEMB     129      POPE     C2       CD31C     2.52830       11.6110           0  -1.79700      0.410000    
     23325 MEMB     129      POPE     DC2      DRUD     -2.32630      0.400000           0   0.00000       0.00000    
     23326 MEMB     129      POPE     HS       HDA1A    0.116000       1.00800           0   0.00000       0.00000    
     23327 MEMB     129      POPE     O21      OD30CL    1.48470       15.5994           0 -0.732000      0.601000    
     23328 MEMB     129      POPE     DO21     DRUD     -1.48470      0.400000           0   0.00000       0.00000    
     23329 MEMB     129      POPE     C21      CD2O3B    2.72820       11.6110           0  -1.37000       1.74700    
     23330 MEMB     129      POPE     DC21     DRUD     -2.03120      0.400000           0   0.00000       0.00000    
     23331 MEMB     129      POPE     O22      OD2C3B    1.64990       15.5994           0 -0.904000      0.565000    
     23332 MEMB     129      POPE     DO22     DRUD     -1.64990      0.400000           0   0.00000       0.00000    
     23333 MEMB     129      POPE     C22      CD32C     2.24380       11.6110           0  -1.99300      0.410000    
     23334 MEMB     129      POPE     DC22     DRUD     -2.44980      0.400000           0   0.00000       0.00000    
     23335 MEMB     129      POPE     H2R      HDA2A    0.690000E-01   1.00800           0   0.00000       0.00000    
     23336 MEMB     129      POPE     H2S      HDA2A    0.690000E-01   1.00800           0   0.00000       0.00000    
     23337 MEMB     129      POPE     LP1A     LPD     -0.349000       0.00000          -1   0.00000       0.00000    
     23338 MEMB     129      POPE     LP1B     LPD     -0.258000       0.00000          -1   0.00000       0.00000    
     23339 MEMB     129      POPE     LPMA     LPD     -0.170000       0.00000          -1   0.00000       0.00000    
     23340 MEMB     129      POPE     LPMB     LPD     -0.170000       0.00000          -1   0.00000       0.00000    
     23341 MEMB     129      POPE     C3       CD32C     2.41230       11.6110           0  -1.79700      0.410000    
     23342 MEMB     129      POPE     DC3      DRUD     -2.32630      0.400000           0   0.00000       0.00000    
     23343 MEMB     129      POPE     HX       HDA2A    0.116000       1.00800           0   0.00000       0.00000    
     23344 MEMB     129      POPE     HY       HDA2A    0.116000       1.00800           0   0.00000       0.00000    
     23345 MEMB     129      POPE     O31      OD30CL    1.48470       15.5994           0 -0.732000      0.601000    
     23346 MEMB     129      POPE     DO31     DRUD     -1.48470      0.400000           0   0.00000       0.00000    
     23347 MEMB     129      POPE     C31      CD2O3B    2.72820       11.6110           0  -1.37000       1.74700    
     23348 MEMB     129      POPE     DC31     DRUD     -2.03120      0.400000           0   0.00000       0.00000    
     23349 MEMB     129      POPE     O32      OD2C3B    1.64990       15.5994           0 -0.904000      0.565000    
     23350 MEMB     129      POPE     DO32     DRUD     -1.64990      0.400000           0   0.00000       0.00000    
     23351 MEMB     129      POPE     C32      CD32C     2.24380       11.6110           0  -1.99300      0.410000    
     23352 MEMB     129      POPE     DC32     DRUD     -2.44980      0.400000           0   0.00000       0.00000    
     23353 MEMB     129      POPE     H2X      HDA2A    0.690000E-01   1.00800           0   0.00000       0.00000    
     23354 MEMB     129      POPE     H2Y      HDA2A    0.690000E-01   1.00800           0   0.00000       0.00000    
     23355 MEMB     129      POPE     LP1C     LPD     -0.349000       0.00000          -1   0.00000       0.00000    
     23356 MEMB     129      POPE     LP1D     LPD     -0.258000       0.00000          -1   0.00000       0.00000    
     23357 MEMB     129      POPE     LPMC     LPD     -0.170000       0.00000          -1   0.00000       0.00000    
     23358 MEMB     129      POPE     LPMD     LPD     -0.170000       0.00000          -1   0.00000       0.00000    
     23359 MEMB     129      POPE     C23      CD32A     2.07980       11.6110           0  -1.66000       1.30000    
     23360 MEMB     129      POPE     DC23     DRUD     -2.23580      0.400000           0   0.00000       0.00000    
     23361 MEMB     129      POPE     H3R      HDA2A    0.780000E-01   1.00800           0   0.00000       0.00000    
     23362 MEMB     129      POPE     H3S      HDA2A    0.780000E-01   1.00800           0   0.00000       0.00000    
     23363 MEMB     129      POPE     C24      CD32A     2.07980       11.6110           0  -1.66000       1.30000    
     23364 MEMB     129      POPE     DC24     DRUD     -2.23580      0.400000           0   0.00000       0.00000    
     23365 MEMB     129      POPE     H4R      HDA2A    0.780000E-01   1.00800           0   0.00000       0.00000    
     23366 MEMB     129      POPE     H4S      HDA2A    0.780000E-01   1.00800           0   0.00000       0.00000    
     23367 MEMB     129      POPE     C25      CD32A     2.07980       11.6110           0  -1.66000       1.30000    
     23368 MEMB     129      POPE     DC25     DRUD     -2.23580      0.400000           0   0.00000       0.00000    
     23369 MEMB     129      POPE     H5R      HDA2A    0.780000E-01   1.00800           0   0.00000       0.00000    
     23370 MEMB     129      POPE     H5S      HDA2A    0.780000E-01   1.00800           0   0.00000       0.00000    
     23371 MEMB     129      POPE     C26      CD32A     2.07980       11.6110           0  -1.66000       1.30000    
     23372 MEMB     129      POPE     DC26     DRUD     -2.23580      0.400000           0   0.00000       0.00000    
     23373 MEMB     129      POPE     H6R      HDA2A    0.780000E-01   1.00800           0   0.00000       0.00000    
     23374 MEMB     129      POPE     H6S      HDA2A    0.780000E-01   1.00800           0   0.00000       0.00000    
     23375 MEMB     129      POPE     C27      CD32A     2.07980       11.6110           0  -1.66000       1.30000    
     23376 MEMB     129      POPE     DC27     DRUD     -2.23580      0.400000           0   0.00000       0.00000    
     23377 MEMB     129      POPE     H7R      HDA2A    0.780000E-01   1.00800           0   0.00000       0.00000    
     23378 MEMB     129      POPE     H7S      HDA2A    0.780000E-01   1.00800           0   0.00000       0.00000    
     23379 MEMB     129      POPE     C28      CD32A     2.07980       11.6110           0  -1.66000       1.30000    
     23380 MEMB     129      POPE     DC28     DRUD     -2.23580      0.400000           0   0.00000       0.00000    
     23381 MEMB     129      POPE     H8R      HDA2A    0.780000E-01   1.00800           0   0.00000       0.00000    
     23382 MEMB     129      POPE     H8S      HDA2A    0.780000E-01   1.00800           0   0.00000       0.00000    
     23383 MEMB     129      POPE     C29      CD2C1A    2.33700       11.6110           0  -1.99000      0.750000    
     23384 MEMB     129      POPE     DC29     DRUD     -2.44800      0.400000           0   0.00000       0.00000    
     23385 MEMB     129      POPE     H91      HD2C1A   0.111000       1.00800           0   0.00000       0.00000    
     23386 MEMB     129      POPE     C210     CD2C1A    2.33700       11.6110           0  -1.99000      0.750000    
     23387 MEMB     129      POPE     DC210    DRUD     -2.44800      0.400000           0   0.00000       0.00000    
     23388 MEMB     129      POPE     H101     HD2C1A   0.111000       1.00800           0   0.00000       0.00000    
     23389 MEMB     129      POPE     C211     CD32A     2.07980       11.6110           0  -1.66000       1.30000    
     23390 MEMB     129      POPE     DC211    DRUD     -2.23580      0.400000           0   0.00000       0.00000    
     23391 MEMB     129      POPE     H11R     HDA2A    0.780000E-01   1.00800           0   0.00000       0.00000    
     23392 MEMB     129      POPE     H11S     HDA2A    0.780000E-01   1.00800           0   0.00000       0.00000    
     23393 MEMB     129      POPE     C212     CD32A     2.07980       11.6110           0  -1.66000       1.30000    
     23394 MEMB     129      POPE     DC212    DRUD     -2.23580      0.400000           0   0.00000       0.00000    
     23395 MEMB     129      POPE     H12R     HDA2A    0.780000E-01   1.00800           0   0.00000       0.00000    
     23396 MEMB     129      POPE     H12S     HDA2A    0.780000E-01   1.00800           0   0.00000       0.00000    
     23397 MEMB     129      POPE     C213     CD32A     2.07980       11.6110           0  -1.66000       1.30000    
     23398 MEMB     129      POPE     DC213    DRUD     -2.23580      0.400000           0   0.00000       0.00000    
     23399 MEMB     129      POPE     H13R     HDA2A    0.780000E-01   1.00800           0   0.00000       0.00000    
     23400 MEMB     129      POPE     H13S     HDA2A    0.780000E-01   1.00800           0   0.00000       0.00000    
     23401 MEMB     129      POPE     C214     CD32A     2.07980       11.6110           0  -1.66000       1.30000    
     23402 MEMB     129      POPE     DC214    DRUD     -2.23580      0.400000           0   0.00000       0.00000    
     23403 MEMB     129      POPE     H14R     HDA2A    0.780000E-01   1.00800           0   0.00000       0.00000    
     23404 MEMB     129      POPE     H14S     HDA2A    0.780000E-01   1.00800           0   0.00000       0.00000    
     23405 MEMB     129      POPE     C215     CD32A     2.07980       11.6110           0  -1.66000       1.30000    
     23406 MEMB     129      POPE     DC215    DRUD     -2.23580      0.400000           0   0.00000       0.00000    
     23407 MEMB     129      POPE     H15R     HDA2A    0.780000E-01   1.00800           0   0.00000       0.00000    
     23408 MEMB     129      POPE     H15S     HDA2A    0.780000E-01   1.00800           0   0.00000       0.00000    
     23409 MEMB     129      POPE     C216     CD32A     2.07980       11.6110           0  -1.66000       1.30000    
     23410 MEMB     129      POPE     DC216    DRUD     -2.23580      0.400000           0   0.00000       0.00000    
     23411 MEMB     129      POPE     H16R     HDA2A    0.780000E-01   1.00800           0   0.00000       0.00000    
     23412 MEMB     129      POPE     H16S     HDA2A    0.780000E-01   1.00800           0   0.00000       0.00000    
     23413 MEMB     129      POPE     C217     CD32A     2.07980       11.6110           0  -1.66000       1.30000    
     23414 MEMB     129      POPE     DC217    DRUD     -2.23580      0.400000           0   0.00000       0.00000    
     23415 MEMB     129      POPE     H17R     HDA2A    0.780000E-01   1.00800           0   0.00000       0.00000    
     23416 MEMB     129      POPE     H17S     HDA2A    0.780000E-01   1.00800           0   0.00000       0.00000    
     23417 MEMB     129      POPE     C218     CD33A     2.30820       11.6110           0  -2.05100       1.30000    
     23418 MEMB     129      POPE     DC218    DRUD     -2.48520      0.400000           0   0.00000       0.00000    
     23419 MEMB     129      POPE     H18R     HDA3A    0.590000E-01   1.00800           0   0.00000       0.00000    
     23420 MEMB     129      POPE     H18S     HDA3A    0.590000E-01   1.00800           0   0.00000       0.00000    
     23421 MEMB     129      POPE     H18T     HDA3A    0.590000E-01   1.00800           0   0.00000       0.00000    
     23422 MEMB     129      POPE     C33      CD32A     2.07980       11.6110           0  -1.66000       1.30000    
     23423 MEMB     129      POPE     DC33     DRUD     -2.23580      0.400000           0   0.00000       0.00000    
     23424 MEMB     129      POPE     H3X      HDA2A    0.780000E-01   1.00800           0   0.00000       0.00000    
     23425 MEMB     129      POPE     H3Y      HDA2A    0.780000E-01   1.00800           0   0.00000       0.00000    
     23426 MEMB     129      POPE     C34      CD32A     2.07980       11.6110           0  -1.66000       1.30000    
     23427 MEMB     129      POPE     DC34     DRUD     -2.23580      0.400000           0   0.00000       0.00000    
     23428 MEMB     129      POPE     H4X      HDA2A    0.780000E-01   1.00800           0   0.00000       0.00000    
     23429 MEMB     129      POPE     H4Y      HDA2A    0.780000E-01   1.00800           0   0.00000       0.00000    
     23430 MEMB     129      POPE     C35      CD32A     2.07980       11.6110           0  -1.66000       1.30000    
     23431 MEMB     129      POPE     DC35     DRUD     -2.23580      0.400000           0   0.00000       0.00000    
     23432 MEMB     129      POPE     H5X      HDA2A    0.780000E-01   1.00800           0   0.00000       0.00000    
     23433 MEMB     129      POPE     H5Y      HDA2A    0.780000E-01   1.00800           0   0.00000       0.00000    
     23434 MEMB     129      POPE     C36      CD32A     2.07980       11.6110           0  -1.66000       1.30000    
     23435 MEMB     129      POPE     DC36     DRUD     -2.23580      0.400000           0   0.00000       0.00000    
     23436 MEMB     129      POPE     H6X      HDA2A    0.780000E-01   1.00800           0   0.00000       0.00000    
     23437 MEMB     129      POPE     H6Y      HDA2A    0.780000E-01   1.00800           0   0.00000       0.00000    
     23438 MEMB     129      POPE     C37      CD32A     2.07980       11.6110           0  -1.66000       1.30000    
     23439 MEMB     129      POPE     DC37     DRUD     -2.23580      0.400000           0   0.00000       0.00000    
     23440 MEMB     129      POPE     H7X      HDA2A    0.780000E-01   1.00800           0   0.00000       0.00000    
     23441 MEMB     129      POPE     H7Y      HDA2A    0.780000E-01   1.00800           0   0.00000       0.00000    
     23442 MEMB     129      POPE     C38      CD32A     2.07980       11.6110           0  -1.66000       1.30000    
     23443 MEMB     129      POPE     DC38     DRUD     -2.23580      0.400000           0   0.00000       0.00000    
     23444 MEMB     129      POPE     H8X      HDA2A    0.780000E-01   1.00800           0   0.00000       0.00000    
     23445 MEMB     129      POPE     H8Y      HDA2A    0.780000E-01   1.00800           0   0.00000       0.00000    
     23446 MEMB     129      POPE     C39      CD32A     2.07980       11.6110           0  -1.66000       1.30000    
     23447 MEMB     129      POPE     DC39     DRUD     -2.23580      0.400000           0   0.00000       0.00000    
     23448 MEMB     129      POPE     H9X      HDA2A    0.780000E-01   1.00800           0   0.00000       0.00000    
     23449 MEMB     129      POPE     H9Y      HDA2A    0.780000E-01   1.00800           0   0.00000       0.00000    
     23450 MEMB     129      POPE     C310     CD32A     2.07980       11.6110           0  -1.66000       1.30000    
     23451 MEMB     129      POPE     DC310    DRUD     -2.23580      0.400000           0   0.00000       0.00000    
     23452 MEMB     129      POPE     H10X     HDA2A    0.780000E-01   1.00800           0   0.00000       0.00000    
     23453 MEMB     129      POPE     H10Y     HDA2A    0.780000E-01   1.00800           0   0.00000       0.00000    
     23454 MEMB     129      POPE     C311     CD32A     2.07980       11.6110           0  -1.66000       1.30000    
     23455 MEMB     129      POPE     DC311    DRUD     -2.23580      0.400000           0   0.00000       0.00000    
     23456 MEMB     129      POPE     H11X     HDA2A    0.780000E-01   1.00800           0   0.00000       0.00000    
     23457 MEMB     129      POPE     H11Y     HDA2A    0.780000E-01   1.00800           0   0.00000       0.00000    
     23458 MEMB     129      POPE     C312     CD32A     2.07980       11.6110           0  -1.66000       1.30000    
     23459 MEMB     129      POPE     DC312    DRUD     -2.23580      0.400000           0   0.00000       0.00000    
     23460 MEMB     129      POPE     H12X     HDA2A    0.780000E-01   1.00800           0   0.00000       0.00000    
     23461 MEMB     129      POPE     H12Y     HDA2A    0.780000E-01   1.00800           0   0.00000       0.00000    
     23462 MEMB     129      POPE     C313     CD32A     2.07980       11.6110           0  -1.66000       1.30000    
     23463 MEMB     129      POPE     DC313    DRUD     -2.23580      0.400000           0   0.00000       0.00000    
     23464 MEMB     129      POPE     H13X     HDA2A    0.780000E-01   1.00800           0   0.00000       0.00000    
     23465 MEMB     129      POPE     H13Y     HDA2A    0.780000E-01   1.00800           0   0.00000       0.00000    
     23466 MEMB     129      POPE     C314     CD32A     2.07980       11.6110           0  -1.66000       1.30000    
     23467 MEMB     129      POPE     DC314    DRUD     -2.23580      0.400000           0   0.00000       0.00000    
     23468 MEMB     129      POPE     H14X     HDA2A    0.780000E-01   1.00800           0   0.00000       0.00000    
     23469 MEMB     129      POPE     H14Y     HDA2A    0.780000E-01   1.00800           0   0.00000       0.00000    
     23470 MEMB     129      POPE     C315     CD32A     2.07980       11.6110           0  -1.66000       1.30000    
     23471 MEMB     129      POPE     DC315    DRUD     -2.23580      0.400000           0   0.00000       0.00000    
     23472 MEMB     129      POPE     H15X     HDA2A    0.780000E-01   1.00800           0   0.00000       0.00000    
     23473 MEMB     129      POPE     H15Y     HDA2A    0.780000E-01   1.00800           0   0.00000       0.00000    
     23474 MEMB     129      POPE     C316     CD33A     2.30820       11.6110           0  -2.05100       1.30000    
     23475 MEMB     129      POPE     DC316    DRUD     -2.48520      0.400000           0   0.00000       0.00000    
     23476 MEMB     129      POPE     H16X     HDA3A    0.590000E-01   1.00800           0   0.00000       0.00000    
     23477 MEMB     129      POPE     H16Y     HDA3A    0.590000E-01   1.00800           0   0.00000       0.00000    
     23478 MEMB     129      POPE     H16Z     HDA3A    0.590000E-01   1.00800           0   0.00000       0.00000    
     23479 MEMB     130      POPE     N        ND3P3A    1.62810       13.6070           0  -1.29800      0.895000    
     23480 MEMB     130      POPE     DN       DRUD     -1.97710      0.400000           0   0.00000       0.00000    
     23481 MEMB     130      POPE     HN1      HDP1B    0.340000       1.00800           0   0.00000       0.00000    
     23482 MEMB     130      POPE     HN2      HDP1B    0.340000       1.00800           0   0.00000       0.00000    
     23483 MEMB     130      POPE     HN3      HDP1B    0.340000       1.00800           0   0.00000       0.00000    
     23484 MEMB     130      POPE     C12      CD32A     2.27610       11.6110           0  -1.65600      0.895000    
     23485 MEMB     130      POPE     DC12     DRUD     -2.23310      0.400000           0   0.00000       0.00000    
     23486 MEMB     130      POPE     H12A     HDA2A    0.143000       1.00800           0   0.00000       0.00000    
     23487 MEMB     130      POPE     H12B     HDA2A    0.143000       1.00800           0   0.00000       0.00000    
     23488 MEMB     130      POPE     C11      CD32A     2.42220       11.6110           0  -1.64200      0.862000    
     23489 MEMB     130      POPE     DC11     DRUD     -2.22370      0.400000           0   0.00000       0.00000    
     23490 MEMB     130      POPE     H11A     HDA2A    0.260000E-01   1.00800           0   0.00000       0.00000    
     23491 MEMB     130      POPE     H11B     HDA2A    0.260000E-01   1.00800           0   0.00000       0.00000    
     23492 MEMB     130      POPE     P        PD1A      2.90360       30.5740           0 -0.974000       2.09800    
     23493 MEMB     130      POPE     DP       DRUD     -1.71260      0.400000           0   0.00000       0.00000    
     23494 MEMB     130      POPE     O13      OD2C2B   0.798400       15.5994           0 -0.931000       1.08300    
     23495 MEMB     130      POPE     DO13     DRUD     -1.67440      0.400000           0   0.00000       0.00000    
     23496 MEMB     130      POPE     O14      OD2C2B   0.798400       15.5994           0 -0.931000       1.08300    
     23497 MEMB     130      POPE     DO14     DRUD     -1.67440      0.400000           0   0.00000       0.00000    
     23498 MEMB     130      POPE     O11      OD30B     1.17720       15.5994           0 -0.901000      0.181000    
     23499 MEMB     130      POPE     DO11     DRUD     -1.64720      0.400000           0   0.00000       0.00000    
     23500 MEMB     130      POPE     O12      OD30B     1.17720       15.5994           0 -0.901000      0.181000    
     23501 MEMB     130      POPE     DO12     DRUD     -1.64720      0.400000           0   0.00000       0.00000    
     23502 MEMB     130      POPE     C1       CD32A     2.42220       11.6110           0  -1.64200      0.862000    
     23503 MEMB     130      POPE     DC1      DRUD     -2.22370      0.400000           0   0.00000       0.00000    
     23504 MEMB     130      POPE     HA       HDA2A    0.260000E-01   1.00800           0   0.00000       0.00000    
     23505 MEMB     130      POPE     HB       HDA2A    0.260000E-01   1.00800           0   0.00000       0.00000    
     23506 MEMB     130      POPE     C2       CD31C     2.52830       11.6110           0  -1.79700      0.410000    
     23507 MEMB     130      POPE     DC2      DRUD     -2.32630      0.400000           0   0.00000       0.00000    
     23508 MEMB     130      POPE     HS       HDA1A    0.116000       1.00800           0   0.00000       0.00000    
     23509 MEMB     130      POPE     O21      OD30CL    1.48470       15.5994           0 -0.732000      0.601000    
     23510 MEMB     130      POPE     DO21     DRUD     -1.48470      0.400000           0   0.00000       0.00000    
     23511 MEMB     130      POPE     C21      CD2O3B    2.72820       11.6110           0  -1.37000       1.74700    
     23512 MEMB     130      POPE     DC21     DRUD     -2.03120      0.400000           0   0.00000       0.00000    
     23513 MEMB     130      POPE     O22      OD2C3B    1.64990       15.5994           0 -0.904000      0.565000    
     23514 MEMB     130      POPE     DO22     DRUD     -1.64990      0.400000           0   0.00000       0.00000    
     23515 MEMB     130      POPE     C22      CD32C     2.24380       11.6110           0  -1.99300      0.410000    
     23516 MEMB     130      POPE     DC22     DRUD     -2.44980      0.400000           0   0.00000       0.00000    
     23517 MEMB     130      POPE     H2R      HDA2A    0.690000E-01   1.00800           0   0.00000       0.00000    
     23518 MEMB     130      POPE     H2S      HDA2A    0.690000E-01   1.00800           0   0.00000       0.00000    
     23519 MEMB     130      POPE     LP1A     LPD     -0.349000       0.00000          -1   0.00000       0.00000    
     23520 MEMB     130      POPE     LP1B     LPD     -0.258000       0.00000          -1   0.00000       0.00000    
     23521 MEMB     130      POPE     LPMA     LPD     -0.170000       0.00000          -1   0.00000       0.00000    
     23522 MEMB     130      POPE     LPMB     LPD     -0.170000       0.00000          -1   0.00000       0.00000    
     23523 MEMB     130      POPE     C3       CD32C     2.41230       11.6110           0  -1.79700      0.410000    
     23524 MEMB     130      POPE     DC3      DRUD     -2.32630      0.400000           0   0.00000       0.00000    
     23525 MEMB     130      POPE     HX       HDA2A    0.116000       1.00800           0   0.00000       0.00000    
     23526 MEMB     130      POPE     HY       HDA2A    0.116000       1.00800           0   0.00000       0.00000    
     23527 MEMB     130      POPE     O31      OD30CL    1.48470       15.5994           0 -0.732000      0.601000    
     23528 MEMB     130      POPE     DO31     DRUD     -1.48470      0.400000           0   0.00000       0.00000    
     23529 MEMB     130      POPE     C31      CD2O3B    2.72820       11.6110           0  -1.37000       1.74700    
     23530 MEMB     130      POPE     DC31     DRUD     -2.03120      0.400000           0   0.00000       0.00000    
     23531 MEMB     130      POPE     O32      OD2C3B    1.64990       15.5994           0 -0.904000      0.565000    
     23532 MEMB     130      POPE     DO32     DRUD     -1.64990      0.400000           0   0.00000       0.00000    
     23533 MEMB     130      POPE     C32      CD32C     2.24380       11.6110           0  -1.99300      0.410000    
     23534 MEMB     130      POPE     DC32     DRUD     -2.44980      0.400000           0   0.00000       0.00000    
     23535 MEMB     130      POPE     H2X      HDA2A    0.690000E-01   1.00800           0   0.00000       0.00000    
     23536 MEMB     130      POPE     H2Y      HDA2A    0.690000E-01   1.00800           0   0.00000       0.00000    
     23537 MEMB     130      POPE     LP1C     LPD     -0.349000       0.00000          -1   0.00000       0.00000    
     23538 MEMB     130      POPE     LP1D     LPD     -0.258000       0.00000          -1   0.00000       0.00000    
     23539 MEMB     130      POPE     LPMC     LPD     -0.170000       0.00000          -1   0.00000       0.00000    
     23540 MEMB     130      POPE     LPMD     LPD     -0.170000       0.00000          -1   0.00000       0.00000    
     23541 MEMB     130      POPE     C23      CD32A     2.07980       11.6110           0  -1.66000       1.30000    
     23542 MEMB     130      POPE     DC23     DRUD     -2.23580      0.400000           0   0.00000       0.00000    
     23543 MEMB     130      POPE     H3R      HDA2A    0.780000E-01   1.00800           0   0.00000       0.00000    
     23544 MEMB     130      POPE     H3S      HDA2A    0.780000E-01   1.00800           0   0.00000       0.00000    
     23545 MEMB     130      POPE     C24      CD32A     2.07980       11.6110           0  -1.66000       1.30000    
     23546 MEMB     130      POPE     DC24     DRUD     -2.23580      0.400000           0   0.00000       0.00000    
     23547 MEMB     130      POPE     H4R      HDA2A    0.780000E-01   1.00800           0   0.00000       0.00000    
     23548 MEMB     130      POPE     H4S      HDA2A    0.780000E-01   1.00800           0   0.00000       0.00000    
     23549 MEMB     130      POPE     C25      CD32A     2.07980       11.6110           0  -1.66000       1.30000    
     23550 MEMB     130      POPE     DC25     DRUD     -2.23580      0.400000           0   0.00000       0.00000    
     23551 MEMB     130      POPE     H5R      HDA2A    0.780000E-01   1.00800           0   0.00000       0.00000    
     23552 MEMB     130      POPE     H5S      HDA2A    0.780000E-01   1.00800           0   0.00000       0.00000    
     23553 MEMB     130      POPE     C26      CD32A     2.07980       11.6110           0  -1.66000       1.30000    
     23554 MEMB     130      POPE     DC26     DRUD     -2.23580      0.400000           0   0.00000       0.00000    
     23555 MEMB     130      POPE     H6R      HDA2A    0.780000E-01   1.00800           0   0.00000       0.00000    
     23556 MEMB     130      POPE     H6S      HDA2A    0.780000E-01   1.00800           0   0.00000       0.00000    
     23557 MEMB     130      POPE     C27      CD32A     2.07980       11.6110           0  -1.66000       1.30000    
     23558 MEMB     130      POPE     DC27     DRUD     -2.23580      0.400000           0   0.00000       0.00000    
     23559 MEMB     130      POPE     H7R      HDA2A    0.780000E-01   1.00800           0   0.00000       0.00000    
     23560 MEMB     130      POPE     H7S      HDA2A    0.780000E-01   1.00800           0   0.00000       0.00000    
     23561 MEMB     130      POPE     C28      CD32A     2.07980       11.6110           0  -1.66000       1.30000    
     23562 MEMB     130      POPE     DC28     DRUD     -2.23580      0.400000           0   0.00000       0.00000    
     23563 MEMB     130      POPE     H8R      HDA2A    0.780000E-01   1.00800           0   0.00000       0.00000    
     23564 MEMB     130      POPE     H8S      HDA2A    0.780000E-01   1.00800           0   0.00000       0.00000    
     23565 MEMB     130      POPE     C29      CD2C1A    2.33700       11.6110           0  -1.99000      0.750000    
     23566 MEMB     130      POPE     DC29     DRUD     -2.44800      0.400000           0   0.00000       0.00000    
     23567 MEMB     130      POPE     H91      HD2C1A   0.111000       1.00800           0   0.00000       0.00000    
     23568 MEMB     130      POPE     C210     CD2C1A    2.33700       11.6110           0  -1.99000      0.750000    
     23569 MEMB     130      POPE     DC210    DRUD     -2.44800      0.400000           0   0.00000       0.00000    
     23570 MEMB     130      POPE     H101     HD2C1A   0.111000       1.00800           0   0.00000       0.00000    
     23571 MEMB     130      POPE     C211     CD32A     2.07980       11.6110           0  -1.66000       1.30000    
     23572 MEMB     130      POPE     DC211    DRUD     -2.23580      0.400000           0   0.00000       0.00000    
     23573 MEMB     130      POPE     H11R     HDA2A    0.780000E-01   1.00800           0   0.00000       0.00000    
     23574 MEMB     130      POPE     H11S     HDA2A    0.780000E-01   1.00800           0   0.00000       0.00000    
     23575 MEMB     130      POPE     C212     CD32A     2.07980       11.6110           0  -1.66000       1.30000    
     23576 MEMB     130      POPE     DC212    DRUD     -2.23580      0.400000           0   0.00000       0.00000    
     23577 MEMB     130      POPE     H12R     HDA2A    0.780000E-01   1.00800           0   0.00000       0.00000    
     23578 MEMB     130      POPE     H12S     HDA2A    0.780000E-01   1.00800           0   0.00000       0.00000    
     23579 MEMB     130      POPE     C213     CD32A     2.07980       11.6110           0  -1.66000       1.30000    
     23580 MEMB     130      POPE     DC213    DRUD     -2.23580      0.400000           0   0.00000       0.00000    
     23581 MEMB     130      POPE     H13R     HDA2A    0.780000E-01   1.00800           0   0.00000       0.00000    
     23582 MEMB     130      POPE     H13S     HDA2A    0.780000E-01   1.00800           0   0.00000       0.00000    
     23583 MEMB     130      POPE     C214     CD32A     2.07980       11.6110           0  -1.66000       1.30000    
     23584 MEMB     130      POPE     DC214    DRUD     -2.23580      0.400000           0   0.00000       0.00000    
     23585 MEMB     130      POPE     H14R     HDA2A    0.780000E-01   1.00800           0   0.00000       0.00000    
     23586 MEMB     130      POPE     H14S     HDA2A    0.780000E-01   1.00800           0   0.00000       0.00000    
     23587 MEMB     130      POPE     C215     CD32A     2.07980       11.6110           0  -1.66000       1.30000    
     23588 MEMB     130      POPE     DC215    DRUD     -2.23580      0.400000           0   0.00000       0.00000    
     23589 MEMB     130      POPE     H15R     HDA2A    0.780000E-01   1.00800           0   0.00000       0.00000    
     23590 MEMB     130      POPE     H15S     HDA2A    0.780000E-01   1.00800           0   0.00000       0.00000    
     23591 MEMB     130      POPE     C216     CD32A     2.07980       11.6110           0  -1.66000       1.30000    
     23592 MEMB     130      POPE     DC216    DRUD     -2.23580      0.400000           0   0.00000       0.00000    
     23593 MEMB     130      POPE     H16R     HDA2A    0.780000E-01   1.00800           0   0.00000       0.00000    
     23594 MEMB     130      POPE     H16S     HDA2A    0.780000E-01   1.00800           0   0.00000       0.00000    
     23595 MEMB     130      POPE     C217     CD32A     2.07980       11.6110           0  -1.66000       1.30000    
     23596 MEMB     130      POPE     DC217    DRUD     -2.23580      0.400000           0   0.00000       0.00000    
     23597 MEMB     130      POPE     H17R     HDA2A    0.780000E-01   1.00800           0   0.00000       0.00000    
     23598 MEMB     130      POPE     H17S     HDA2A    0.780000E-01   1.00800           0   0.00000       0.00000    
     23599 MEMB     130      POPE     C218     CD33A     2.30820       11.6110           0  -2.05100       1.30000    
     23600 MEMB     130      POPE     DC218    DRUD     -2.48520      0.400000           0   0.00000       0.00000    
     23601 MEMB     130      POPE     H18R     HDA3A    0.590000E-01   1.00800           0   0.00000       0.00000    
     23602 MEMB     130      POPE     H18S     HDA3A    0.590000E-01   1.00800           0   0.00000       0.00000    
     23603 MEMB     130      POPE     H18T     HDA3A    0.590000E-01   1.00800           0   0.00000       0.00000    
     23604 MEMB     130      POPE     C33      CD32A     2.07980       11.6110           0  -1.66000       1.30000    
     23605 MEMB     130      POPE     DC33     DRUD     -2.23580      0.400000           0   0.00000       0.00000    
     23606 MEMB     130      POPE     H3X      HDA2A    0.780000E-01   1.00800           0   0.00000       0.00000    
     23607 MEMB     130      POPE     H3Y      HDA2A    0.780000E-01   1.00800           0   0.00000       0.00000    
     23608 MEMB     130      POPE     C34      CD32A     2.07980       11.6110           0  -1.66000       1.30000    
     23609 MEMB     130      POPE     DC34     DRUD     -2.23580      0.400000           0   0.00000       0.00000    
     23610 MEMB     130      POPE     H4X      HDA2A    0.780000E-01   1.00800           0   0.00000       0.00000    
     23611 MEMB     130      POPE     H4Y      HDA2A    0.780000E-01   1.00800           0   0.00000       0.00000    
     23612 MEMB     130      POPE     C35      CD32A     2.07980       11.6110           0  -1.66000       1.30000    
     23613 MEMB     130      POPE     DC35     DRUD     -2.23580      0.400000           0   0.00000       0.00000    
     23614 MEMB     130      POPE     H5X      HDA2A    0.780000E-01   1.00800           0   0.00000       0.00000    
     23615 MEMB     130      POPE     H5Y      HDA2A    0.780000E-01   1.00800           0   0.00000       0.00000    
     23616 MEMB     130      POPE     C36      CD32A     2.07980       11.6110           0  -1.66000       1.30000    
     23617 MEMB     130      POPE     DC36     DRUD     -2.23580      0.400000           0   0.00000       0.00000    
     23618 MEMB     130      POPE     H6X      HDA2A    0.780000E-01   1.00800           0   0.00000       0.00000    
     23619 MEMB     130      POPE     H6Y      HDA2A    0.780000E-01   1.00800           0   0.00000       0.00000    
     23620 MEMB     130      POPE     C37      CD32A     2.07980       11.6110           0  -1.66000       1.30000    
     23621 MEMB     130      POPE     DC37     DRUD     -2.23580      0.400000           0   0.00000       0.00000    
     23622 MEMB     130      POPE     H7X      HDA2A    0.780000E-01   1.00800           0   0.00000       0.00000    
     23623 MEMB     130      POPE     H7Y      HDA2A    0.780000E-01   1.00800           0   0.00000       0.00000    
     23624 MEMB     130      POPE     C38      CD32A     2.07980       11.6110           0  -1.66000       1.30000    
     23625 MEMB     130      POPE     DC38     DRUD     -2.23580      0.400000           0   0.00000       0.00000    
     23626 MEMB     130      POPE     H8X      HDA2A    0.780000E-01   1.00800           0   0.00000       0.00000    
     23627 MEMB     130      POPE     H8Y      HDA2A    0.780000E-01   1.00800           0   0.00000       0.00000    
     23628 MEMB     130      POPE     C39      CD32A     2.07980       11.6110           0  -1.66000       1.30000    
     23629 MEMB     130      POPE     DC39     DRUD     -2.23580      0.400000           0   0.00000       0.00000    
     23630 MEMB     130      POPE     H9X      HDA2A    0.780000E-01   1.00800           0   0.00000       0.00000    
     23631 MEMB     130      POPE     H9Y      HDA2A    0.780000E-01   1.00800           0   0.00000       0.00000    
     23632 MEMB     130      POPE     C310     CD32A     2.07980       11.6110           0  -1.66000       1.30000    
     23633 MEMB     130      POPE     DC310    DRUD     -2.23580      0.400000           0   0.00000       0.00000    
     23634 MEMB     130      POPE     H10X     HDA2A    0.780000E-01   1.00800           0   0.00000       0.00000    
     23635 MEMB     130      POPE     H10Y     HDA2A    0.780000E-01   1.00800           0   0.00000       0.00000    
     23636 MEMB     130      POPE     C311     CD32A     2.07980       11.6110           0  -1.66000       1.30000    
     23637 MEMB     130      POPE     DC311    DRUD     -2.23580      0.400000           0   0.00000       0.00000    
     23638 MEMB     130      POPE     H11X     HDA2A    0.780000E-01   1.00800           0   0.00000       0.00000    
     23639 MEMB     130      POPE     H11Y     HDA2A    0.780000E-01   1.00800           0   0.00000       0.00000    
     23640 MEMB     130      POPE     C312     CD32A     2.07980       11.6110           0  -1.66000       1.30000    
     23641 MEMB     130      POPE     DC312    DRUD     -2.23580      0.400000           0   0.00000       0.00000    
     23642 MEMB     130      POPE     H12X     HDA2A    0.780000E-01   1.00800           0   0.00000       0.00000    
     23643 MEMB     130      POPE     H12Y     HDA2A    0.780000E-01   1.00800           0   0.00000       0.00000    
     23644 MEMB     130      POPE     C313     CD32A     2.07980       11.6110           0  -1.66000       1.30000    
     23645 MEMB     130      POPE     DC313    DRUD     -2.23580      0.400000           0   0.00000       0.00000    
     23646 MEMB     130      POPE     H13X     HDA2A    0.780000E-01   1.00800           0   0.00000       0.00000    
     23647 MEMB     130      POPE     H13Y     HDA2A    0.780000E-01   1.00800           0   0.00000       0.00000    
     23648 MEMB     130      POPE     C314     CD32A     2.07980       11.6110           0  -1.66000       1.30000    
     23649 MEMB     130      POPE     DC314    DRUD     -2.23580      0.400000           0   0.00000       0.00000    
     23650 MEMB     130      POPE     H14X     HDA2A    0.780000E-01   1.00800           0   0.00000       0.00000    
     23651 MEMB     130      POPE     H14Y     HDA2A    0.780000E-01   1.00800           0   0.00000       0.00000    
     23652 MEMB     130      POPE     C315     CD32A     2.07980       11.6110           0  -1.66000       1.30000    
     23653 MEMB     130      POPE     DC315    DRUD     -2.23580      0.400000           0   0.00000       0.00000    
     23654 MEMB     130      POPE     H15X     HDA2A    0.780000E-01   1.00800           0   0.00000       0.00000    
     23655 MEMB     130      POPE     H15Y     HDA2A    0.780000E-01   1.00800           0   0.00000       0.00000    
     23656 MEMB     130      POPE     C316     CD33A     2.30820       11.6110           0  -2.05100       1.30000    
     23657 MEMB     130      POPE     DC316    DRUD     -2.48520      0.400000           0   0.00000       0.00000    
     23658 MEMB     130      POPE     H16X     HDA3A    0.590000E-01   1.00800           0   0.00000       0.00000    
     23659 MEMB     130      POPE     H16Y     HDA3A    0.590000E-01   1.00800           0   0.00000       0.00000    
     23660 MEMB     130      POPE     H16Z     HDA3A    0.590000E-01   1.00800           0   0.00000       0.00000    
     23661 MEMB     131      POPE     N        ND3P3A    1.62810       13.6070           0  -1.29800      0.895000    
     23662 MEMB     131      POPE     DN       DRUD     -1.97710      0.400000           0   0.00000       0.00000    
     23663 MEMB     131      POPE     HN1      HDP1B    0.340000       1.00800           0   0.00000       0.00000    
     23664 MEMB     131      POPE     HN2      HDP1B    0.340000       1.00800           0   0.00000       0.00000    
     23665 MEMB     131      POPE     HN3      HDP1B    0.340000       1.00800           0   0.00000       0.00000    
     23666 MEMB     131      POPE     C12      CD32A     2.27610       11.6110           0  -1.65600      0.895000    
     23667 MEMB     131      POPE     DC12     DRUD     -2.23310      0.400000           0   0.00000       0.00000    
     23668 MEMB     131      POPE     H12A     HDA2A    0.143000       1.00800           0   0.00000       0.00000    
     23669 MEMB     131      POPE     H12B     HDA2A    0.143000       1.00800           0   0.00000       0.00000    
     23670 MEMB     131      POPE     C11      CD32A     2.42220       11.6110           0  -1.64200      0.862000    
     23671 MEMB     131      POPE     DC11     DRUD     -2.22370      0.400000           0   0.00000       0.00000    
     23672 MEMB     131      POPE     H11A     HDA2A    0.260000E-01   1.00800           0   0.00000       0.00000    
     23673 MEMB     131      POPE     H11B     HDA2A    0.260000E-01   1.00800           0   0.00000       0.00000    
     23674 MEMB     131      POPE     P        PD1A      2.90360       30.5740           0 -0.974000       2.09800    
     23675 MEMB     131      POPE     DP       DRUD     -1.71260      0.400000           0   0.00000       0.00000    
     23676 MEMB     131      POPE     O13      OD2C2B   0.798400       15.5994           0 -0.931000       1.08300    
     23677 MEMB     131      POPE     DO13     DRUD     -1.67440      0.400000           0   0.00000       0.00000    
     23678 MEMB     131      POPE     O14      OD2C2B   0.798400       15.5994           0 -0.931000       1.08300    
     23679 MEMB     131      POPE     DO14     DRUD     -1.67440      0.400000           0   0.00000       0.00000    
     23680 MEMB     131      POPE     O11      OD30B     1.17720       15.5994           0 -0.901000      0.181000    
     23681 MEMB     131      POPE     DO11     DRUD     -1.64720      0.400000           0   0.00000       0.00000    
     23682 MEMB     131      POPE     O12      OD30B     1.17720       15.5994           0 -0.901000      0.181000    
     23683 MEMB     131      POPE     DO12     DRUD     -1.64720      0.400000           0   0.00000       0.00000    
     23684 MEMB     131      POPE     C1       CD32A     2.42220       11.6110           0  -1.64200      0.862000    
     23685 MEMB     131      POPE     DC1      DRUD     -2.22370      0.400000           0   0.00000       0.00000    
     23686 MEMB     131      POPE     HA       HDA2A    0.260000E-01   1.00800           0   0.00000       0.00000    
     23687 MEMB     131      POPE     HB       HDA2A    0.260000E-01   1.00800           0   0.00000       0.00000    
     23688 MEMB     131      POPE     C2       CD31C     2.52830       11.6110           0  -1.79700      0.410000    
     23689 MEMB     131      POPE     DC2      DRUD     -2.32630      0.400000           0   0.00000       0.00000    
     23690 MEMB     131      POPE     HS       HDA1A    0.116000       1.00800           0   0.00000       0.00000    
     23691 MEMB     131      POPE     O21      OD30CL    1.48470       15.5994           0 -0.732000      0.601000    
     23692 MEMB     131      POPE     DO21     DRUD     -1.48470      0.400000           0   0.00000       0.00000    
     23693 MEMB     131      POPE     C21      CD2O3B    2.72820       11.6110           0  -1.37000       1.74700    
     23694 MEMB     131      POPE     DC21     DRUD     -2.03120      0.400000           0   0.00000       0.00000    
     23695 MEMB     131      POPE     O22      OD2C3B    1.64990       15.5994           0 -0.904000      0.565000    
     23696 MEMB     131      POPE     DO22     DRUD     -1.64990      0.400000           0   0.00000       0.00000    
     23697 MEMB     131      POPE     C22      CD32C     2.24380       11.6110           0  -1.99300      0.410000    
     23698 MEMB     131      POPE     DC22     DRUD     -2.44980      0.400000           0   0.00000       0.00000    
     23699 MEMB     131      POPE     H2R      HDA2A    0.690000E-01   1.00800           0   0.00000       0.00000    
     23700 MEMB     131      POPE     H2S      HDA2A    0.690000E-01   1.00800           0   0.00000       0.00000    
     23701 MEMB     131      POPE     LP1A     LPD     -0.349000       0.00000          -1   0.00000       0.00000    
     23702 MEMB     131      POPE     LP1B     LPD     -0.258000       0.00000          -1   0.00000       0.00000    
     23703 MEMB     131      POPE     LPMA     LPD     -0.170000       0.00000          -1   0.00000       0.00000    
     23704 MEMB     131      POPE     LPMB     LPD     -0.170000       0.00000          -1   0.00000       0.00000    
     23705 MEMB     131      POPE     C3       CD32C     2.41230       11.6110           0  -1.79700      0.410000    
     23706 MEMB     131      POPE     DC3      DRUD     -2.32630      0.400000           0   0.00000       0.00000    
     23707 MEMB     131      POPE     HX       HDA2A    0.116000       1.00800           0   0.00000       0.00000    
     23708 MEMB     131      POPE     HY       HDA2A    0.116000       1.00800           0   0.00000       0.00000    
     23709 MEMB     131      POPE     O31      OD30CL    1.48470       15.5994           0 -0.732000      0.601000    
     23710 MEMB     131      POPE     DO31     DRUD     -1.48470      0.400000           0   0.00000       0.00000    
     23711 MEMB     131      POPE     C31      CD2O3B    2.72820       11.6110           0  -1.37000       1.74700    
     23712 MEMB     131      POPE     DC31     DRUD     -2.03120      0.400000           0   0.00000       0.00000    
     23713 MEMB     131      POPE     O32      OD2C3B    1.64990       15.5994           0 -0.904000      0.565000    
     23714 MEMB     131      POPE     DO32     DRUD     -1.64990      0.400000           0   0.00000       0.00000    
     23715 MEMB     131      POPE     C32      CD32C     2.24380       11.6110           0  -1.99300      0.410000    
     23716 MEMB     131      POPE     DC32     DRUD     -2.44980      0.400000           0   0.00000       0.00000    
     23717 MEMB     131      POPE     H2X      HDA2A    0.690000E-01   1.00800           0   0.00000       0.00000    
     23718 MEMB     131      POPE     H2Y      HDA2A    0.690000E-01   1.00800           0   0.00000       0.00000    
     23719 MEMB     131      POPE     LP1C     LPD     -0.349000       0.00000          -1   0.00000       0.00000    
     23720 MEMB     131      POPE     LP1D     LPD     -0.258000       0.00000          -1   0.00000       0.00000    
     23721 MEMB     131      POPE     LPMC     LPD     -0.170000       0.00000          -1   0.00000       0.00000    
     23722 MEMB     131      POPE     LPMD     LPD     -0.170000       0.00000          -1   0.00000       0.00000    
     23723 MEMB     131      POPE     C23      CD32A     2.07980       11.6110           0  -1.66000       1.30000    
     23724 MEMB     131      POPE     DC23     DRUD     -2.23580      0.400000           0   0.00000       0.00000    
     23725 MEMB     131      POPE     H3R      HDA2A    0.780000E-01   1.00800           0   0.00000       0.00000    
     23726 MEMB     131      POPE     H3S      HDA2A    0.780000E-01   1.00800           0   0.00000       0.00000    
     23727 MEMB     131      POPE     C24      CD32A     2.07980       11.6110           0  -1.66000       1.30000    
     23728 MEMB     131      POPE     DC24     DRUD     -2.23580      0.400000           0   0.00000       0.00000    
     23729 MEMB     131      POPE     H4R      HDA2A    0.780000E-01   1.00800           0   0.00000       0.00000    
     23730 MEMB     131      POPE     H4S      HDA2A    0.780000E-01   1.00800           0   0.00000       0.00000    
     23731 MEMB     131      POPE     C25      CD32A     2.07980       11.6110           0  -1.66000       1.30000    
     23732 MEMB     131      POPE     DC25     DRUD     -2.23580      0.400000           0   0.00000       0.00000    
     23733 MEMB     131      POPE     H5R      HDA2A    0.780000E-01   1.00800           0   0.00000       0.00000    
     23734 MEMB     131      POPE     H5S      HDA2A    0.780000E-01   1.00800           0   0.00000       0.00000    
     23735 MEMB     131      POPE     C26      CD32A     2.07980       11.6110           0  -1.66000       1.30000    
     23736 MEMB     131      POPE     DC26     DRUD     -2.23580      0.400000           0   0.00000       0.00000    
     23737 MEMB     131      POPE     H6R      HDA2A    0.780000E-01   1.00800           0   0.00000       0.00000    
     23738 MEMB     131      POPE     H6S      HDA2A    0.780000E-01   1.00800           0   0.00000       0.00000    
     23739 MEMB     131      POPE     C27      CD32A     2.07980       11.6110           0  -1.66000       1.30000    
     23740 MEMB     131      POPE     DC27     DRUD     -2.23580      0.400000           0   0.00000       0.00000    
     23741 MEMB     131      POPE     H7R      HDA2A    0.780000E-01   1.00800           0   0.00000       0.00000    
     23742 MEMB     131      POPE     H7S      HDA2A    0.780000E-01   1.00800           0   0.00000       0.00000    
     23743 MEMB     131      POPE     C28      CD32A     2.07980       11.6110           0  -1.66000       1.30000    
     23744 MEMB     131      POPE     DC28     DRUD     -2.23580      0.400000           0   0.00000       0.00000    
     23745 MEMB     131      POPE     H8R      HDA2A    0.780000E-01   1.00800           0   0.00000       0.00000    
     23746 MEMB     131      POPE     H8S      HDA2A    0.780000E-01   1.00800           0   0.00000       0.00000    
     23747 MEMB     131      POPE     C29      CD2C1A    2.33700       11.6110           0  -1.99000      0.750000    
     23748 MEMB     131      POPE     DC29     DRUD     -2.44800      0.400000           0   0.00000       0.00000    
     23749 MEMB     131      POPE     H91      HD2C1A   0.111000       1.00800           0   0.00000       0.00000    
     23750 MEMB     131      POPE     C210     CD2C1A    2.33700       11.6110           0  -1.99000      0.750000    
     23751 MEMB     131      POPE     DC210    DRUD     -2.44800      0.400000           0   0.00000       0.00000    
     23752 MEMB     131      POPE     H101     HD2C1A   0.111000       1.00800           0   0.00000       0.00000    
     23753 MEMB     131      POPE     C211     CD32A     2.07980       11.6110           0  -1.66000       1.30000    
     23754 MEMB     131      POPE     DC211    DRUD     -2.23580      0.400000           0   0.00000       0.00000    
     23755 MEMB     131      POPE     H11R     HDA2A    0.780000E-01   1.00800           0   0.00000       0.00000    
     23756 MEMB     131      POPE     H11S     HDA2A    0.780000E-01   1.00800           0   0.00000       0.00000    
     23757 MEMB     131      POPE     C212     CD32A     2.07980       11.6110           0  -1.66000       1.30000    
     23758 MEMB     131      POPE     DC212    DRUD     -2.23580      0.400000           0   0.00000       0.00000    
     23759 MEMB     131      POPE     H12R     HDA2A    0.780000E-01   1.00800           0   0.00000       0.00000    
     23760 MEMB     131      POPE     H12S     HDA2A    0.780000E-01   1.00800           0   0.00000       0.00000    
     23761 MEMB     131      POPE     C213     CD32A     2.07980       11.6110           0  -1.66000       1.30000    
     23762 MEMB     131      POPE     DC213    DRUD     -2.23580      0.400000           0   0.00000       0.00000    
     23763 MEMB     131      POPE     H13R     HDA2A    0.780000E-01   1.00800           0   0.00000       0.00000    
     23764 MEMB     131      POPE     H13S     HDA2A    0.780000E-01   1.00800           0   0.00000       0.00000    
     23765 MEMB     131      POPE     C214     CD32A     2.07980       11.6110           0  -1.66000       1.30000    
     23766 MEMB     131      POPE     DC214    DRUD     -2.23580      0.400000           0   0.00000       0.00000    
     23767 MEMB     131      POPE     H14R     HDA2A    0.780000E-01   1.00800           0   0.00000       0.00000    
     23768 MEMB     131      POPE     H14S     HDA2A    0.780000E-01   1.00800           0   0.00000       0.00000    
     23769 MEMB     131      POPE     C215     CD32A     2.07980       11.6110           0  -1.66000       1.30000    
     23770 MEMB     131      POPE     DC215    DRUD     -2.23580      0.400000           0   0.00000       0.00000    
     23771 MEMB     131      POPE     H15R     HDA2A    0.780000E-01   1.00800           0   0.00000       0.00000    
     23772 MEMB     131      POPE     H15S     HDA2A    0.780000E-01   1.00800           0   0.00000       0.00000    
     23773 MEMB     131      POPE     C216     CD32A     2.07980       11.6110           0  -1.66000       1.30000    
     23774 MEMB     131      POPE     DC216    DRUD     -2.23580      0.400000           0   0.00000       0.00000    
     23775 MEMB     131      POPE     H16R     HDA2A    0.780000E-01   1.00800           0   0.00000       0.00000    
     23776 MEMB     131      POPE     H16S     HDA2A    0.780000E-01   1.00800           0   0.00000       0.00000    
     23777 MEMB     131      POPE     C217     CD32A     2.07980       11.6110           0  -1.66000       1.30000    
     23778 MEMB     131      POPE     DC217    DRUD     -2.23580      0.400000           0   0.00000       0.00000    
     23779 MEMB     131      POPE     H17R     HDA2A    0.780000E-01   1.00800           0   0.00000       0.00000    
     23780 MEMB     131      POPE     H17S     HDA2A    0.780000E-01   1.00800           0   0.00000       0.00000    
     23781 MEMB     131      POPE     C218     CD33A     2.30820       11.6110           0  -2.05100       1.30000    
     23782 MEMB     131      POPE     DC218    DRUD     -2.48520      0.400000           0   0.00000       0.00000    
     23783 MEMB     131      POPE     H18R     HDA3A    0.590000E-01   1.00800           0   0.00000       0.00000    
     23784 MEMB     131      POPE     H18S     HDA3A    0.590000E-01   1.00800           0   0.00000       0.00000    
     23785 MEMB     131      POPE     H18T     HDA3A    0.590000E-01   1.00800           0   0.00000       0.00000    
     23786 MEMB     131      POPE     C33      CD32A     2.07980       11.6110           0  -1.66000       1.30000    
     23787 MEMB     131      POPE     DC33     DRUD     -2.23580      0.400000           0   0.00000       0.00000    
     23788 MEMB     131      POPE     H3X      HDA2A    0.780000E-01   1.00800           0   0.00000       0.00000    
     23789 MEMB     131      POPE     H3Y      HDA2A    0.780000E-01   1.00800           0   0.00000       0.00000    
     23790 MEMB     131      POPE     C34      CD32A     2.07980       11.6110           0  -1.66000       1.30000    
     23791 MEMB     131      POPE     DC34     DRUD     -2.23580      0.400000           0   0.00000       0.00000    
     23792 MEMB     131      POPE     H4X      HDA2A    0.780000E-01   1.00800           0   0.00000       0.00000    
     23793 MEMB     131      POPE     H4Y      HDA2A    0.780000E-01   1.00800           0   0.00000       0.00000    
     23794 MEMB     131      POPE     C35      CD32A     2.07980       11.6110           0  -1.66000       1.30000    
     23795 MEMB     131      POPE     DC35     DRUD     -2.23580      0.400000           0   0.00000       0.00000    
     23796 MEMB     131      POPE     H5X      HDA2A    0.780000E-01   1.00800           0   0.00000       0.00000    
     23797 MEMB     131      POPE     H5Y      HDA2A    0.780000E-01   1.00800           0   0.00000       0.00000    
     23798 MEMB     131      POPE     C36      CD32A     2.07980       11.6110           0  -1.66000       1.30000    
     23799 MEMB     131      POPE     DC36     DRUD     -2.23580      0.400000           0   0.00000       0.00000    
     23800 MEMB     131      POPE     H6X      HDA2A    0.780000E-01   1.00800           0   0.00000       0.00000    
     23801 MEMB     131      POPE     H6Y      HDA2A    0.780000E-01   1.00800           0   0.00000       0.00000    
     23802 MEMB     131      POPE     C37      CD32A     2.07980       11.6110           0  -1.66000       1.30000    
     23803 MEMB     131      POPE     DC37     DRUD     -2.23580      0.400000           0   0.00000       0.00000    
     23804 MEMB     131      POPE     H7X      HDA2A    0.780000E-01   1.00800           0   0.00000       0.00000    
     23805 MEMB     131      POPE     H7Y      HDA2A    0.780000E-01   1.00800           0   0.00000       0.00000    
     23806 MEMB     131      POPE     C38      CD32A     2.07980       11.6110           0  -1.66000       1.30000    
     23807 MEMB     131      POPE     DC38     DRUD     -2.23580      0.400000           0   0.00000       0.00000    
     23808 MEMB     131      POPE     H8X      HDA2A    0.780000E-01   1.00800           0   0.00000       0.00000    
     23809 MEMB     131      POPE     H8Y      HDA2A    0.780000E-01   1.00800           0   0.00000       0.00000    
     23810 MEMB     131      POPE     C39      CD32A     2.07980       11.6110           0  -1.66000       1.30000    
     23811 MEMB     131      POPE     DC39     DRUD     -2.23580      0.400000           0   0.00000       0.00000    
     23812 MEMB     131      POPE     H9X      HDA2A    0.780000E-01   1.00800           0   0.00000       0.00000    
     23813 MEMB     131      POPE     H9Y      HDA2A    0.780000E-01   1.00800           0   0.00000       0.00000    
     23814 MEMB     131      POPE     C310     CD32A     2.07980       11.6110           0  -1.66000       1.30000    
     23815 MEMB     131      POPE     DC310    DRUD     -2.23580      0.400000           0   0.00000       0.00000    
     23816 MEMB     131      POPE     H10X     HDA2A    0.780000E-01   1.00800           0   0.00000       0.00000    
     23817 MEMB     131      POPE     H10Y     HDA2A    0.780000E-01   1.00800           0   0.00000       0.00000    
     23818 MEMB     131      POPE     C311     CD32A     2.07980       11.6110           0  -1.66000       1.30000    
     23819 MEMB     131      POPE     DC311    DRUD     -2.23580      0.400000           0   0.00000       0.00000    
     23820 MEMB     131      POPE     H11X     HDA2A    0.780000E-01   1.00800           0   0.00000       0.00000    
     23821 MEMB     131      POPE     H11Y     HDA2A    0.780000E-01   1.00800           0   0.00000       0.00000    
     23822 MEMB     131      POPE     C312     CD32A     2.07980       11.6110           0  -1.66000       1.30000    
     23823 MEMB     131      POPE     DC312    DRUD     -2.23580      0.400000           0   0.00000       0.00000    
     23824 MEMB     131      POPE     H12X     HDA2A    0.780000E-01   1.00800           0   0.00000       0.00000    
     23825 MEMB     131      POPE     H12Y     HDA2A    0.780000E-01   1.00800           0   0.00000       0.00000    
     23826 MEMB     131      POPE     C313     CD32A     2.07980       11.6110           0  -1.66000       1.30000    
     23827 MEMB     131      POPE     DC313    DRUD     -2.23580      0.400000           0   0.00000       0.00000    
     23828 MEMB     131      POPE     H13X     HDA2A    0.780000E-01   1.00800           0   0.00000       0.00000    
     23829 MEMB     131      POPE     H13Y     HDA2A    0.780000E-01   1.00800           0   0.00000       0.00000    
     23830 MEMB     131      POPE     C314     CD32A     2.07980       11.6110           0  -1.66000       1.30000    
     23831 MEMB     131      POPE     DC314    DRUD     -2.23580      0.400000           0   0.00000       0.00000    
     23832 MEMB     131      POPE     H14X     HDA2A    0.780000E-01   1.00800           0   0.00000       0.00000    
     23833 MEMB     131      POPE     H14Y     HDA2A    0.780000E-01   1.00800           0   0.00000       0.00000    
     23834 MEMB     131      POPE     C315     CD32A     2.07980       11.6110           0  -1.66000       1.30000    
     23835 MEMB     131      POPE     DC315    DRUD     -2.23580      0.400000           0   0.00000       0.00000    
     23836 MEMB     131      POPE     H15X     HDA2A    0.780000E-01   1.00800           0   0.00000       0.00000    
     23837 MEMB     131      POPE     H15Y     HDA2A    0.780000E-01   1.00800           0   0.00000       0.00000    
     23838 MEMB     131      POPE     C316     CD33A     2.30820       11.6110           0  -2.05100       1.30000    
     23839 MEMB     131      POPE     DC316    DRUD     -2.48520      0.400000           0   0.00000       0.00000    
     23840 MEMB     131      POPE     H16X     HDA3A    0.590000E-01   1.00800           0   0.00000       0.00000    
     23841 MEMB     131      POPE     H16Y     HDA3A    0.590000E-01   1.00800           0   0.00000       0.00000    
     23842 MEMB     131      POPE     H16Z     HDA3A    0.590000E-01   1.00800           0   0.00000       0.00000    
     23843 MEMB     132      POPE     N        ND3P3A    1.62810       13.6070           0  -1.29800      0.895000    
     23844 MEMB     132      POPE     DN       DRUD     -1.97710      0.400000           0   0.00000       0.00000    
     23845 MEMB     132      POPE     HN1      HDP1B    0.340000       1.00800           0   0.00000       0.00000    
     23846 MEMB     132      POPE     HN2      HDP1B    0.340000       1.00800           0   0.00000       0.00000    
     23847 MEMB     132      POPE     HN3      HDP1B    0.340000       1.00800           0   0.00000       0.00000    
     23848 MEMB     132      POPE     C12      CD32A     2.27610       11.6110           0  -1.65600      0.895000    
     23849 MEMB     132      POPE     DC12     DRUD     -2.23310      0.400000           0   0.00000       0.00000    
     23850 MEMB     132      POPE     H12A     HDA2A    0.143000       1.00800           0   0.00000       0.00000    
     23851 MEMB     132      POPE     H12B     HDA2A    0.143000       1.00800           0   0.00000       0.00000    
     23852 MEMB     132      POPE     C11      CD32A     2.42220       11.6110           0  -1.64200      0.862000    
     23853 MEMB     132      POPE     DC11     DRUD     -2.22370      0.400000           0   0.00000       0.00000    
     23854 MEMB     132      POPE     H11A     HDA2A    0.260000E-01   1.00800           0   0.00000       0.00000    
     23855 MEMB     132      POPE     H11B     HDA2A    0.260000E-01   1.00800           0   0.00000       0.00000    
     23856 MEMB     132      POPE     P        PD1A      2.90360       30.5740           0 -0.974000       2.09800    
     23857 MEMB     132      POPE     DP       DRUD     -1.71260      0.400000           0   0.00000       0.00000    
     23858 MEMB     132      POPE     O13      OD2C2B   0.798400       15.5994           0 -0.931000       1.08300    
     23859 MEMB     132      POPE     DO13     DRUD     -1.67440      0.400000           0   0.00000       0.00000    
     23860 MEMB     132      POPE     O14      OD2C2B   0.798400       15.5994           0 -0.931000       1.08300    
     23861 MEMB     132      POPE     DO14     DRUD     -1.67440      0.400000           0   0.00000       0.00000    
     23862 MEMB     132      POPE     O11      OD30B     1.17720       15.5994           0 -0.901000      0.181000    
     23863 MEMB     132      POPE     DO11     DRUD     -1.64720      0.400000           0   0.00000       0.00000    
     23864 MEMB     132      POPE     O12      OD30B     1.17720       15.5994           0 -0.901000      0.181000    
     23865 MEMB     132      POPE     DO12     DRUD     -1.64720      0.400000           0   0.00000       0.00000    
     23866 MEMB     132      POPE     C1       CD32A     2.42220       11.6110           0  -1.64200      0.862000    
     23867 MEMB     132      POPE     DC1      DRUD     -2.22370      0.400000           0   0.00000       0.00000    
     23868 MEMB     132      POPE     HA       HDA2A    0.260000E-01   1.00800           0   0.00000       0.00000    
     23869 MEMB     132      POPE     HB       HDA2A    0.260000E-01   1.00800           0   0.00000       0.00000    
     23870 MEMB     132      POPE     C2       CD31C     2.52830       11.6110           0  -1.79700      0.410000    
     23871 MEMB     132      POPE     DC2      DRUD     -2.32630      0.400000           0   0.00000       0.00000    
     23872 MEMB     132      POPE     HS       HDA1A    0.116000       1.00800           0   0.00000       0.00000    
     23873 MEMB     132      POPE     O21      OD30CL    1.48470       15.5994           0 -0.732000      0.601000    
     23874 MEMB     132      POPE     DO21     DRUD     -1.48470      0.400000           0   0.00000       0.00000    
     23875 MEMB     132      POPE     C21      CD2O3B    2.72820       11.6110           0  -1.37000       1.74700    
     23876 MEMB     132      POPE     DC21     DRUD     -2.03120      0.400000           0   0.00000       0.00000    
     23877 MEMB     132      POPE     O22      OD2C3B    1.64990       15.5994           0 -0.904000      0.565000    
     23878 MEMB     132      POPE     DO22     DRUD     -1.64990      0.400000           0   0.00000       0.00000    
     23879 MEMB     132      POPE     C22      CD32C     2.24380       11.6110           0  -1.99300      0.410000    
     23880 MEMB     132      POPE     DC22     DRUD     -2.44980      0.400000           0   0.00000       0.00000    
     23881 MEMB     132      POPE     H2R      HDA2A    0.690000E-01   1.00800           0   0.00000       0.00000    
     23882 MEMB     132      POPE     H2S      HDA2A    0.690000E-01   1.00800           0   0.00000       0.00000    
     23883 MEMB     132      POPE     LP1A     LPD     -0.349000       0.00000          -1   0.00000       0.00000    
     23884 MEMB     132      POPE     LP1B     LPD     -0.258000       0.00000          -1   0.00000       0.00000    
     23885 MEMB     132      POPE     LPMA     LPD     -0.170000       0.00000          -1   0.00000       0.00000    
     23886 MEMB     132      POPE     LPMB     LPD     -0.170000       0.00000          -1   0.00000       0.00000    
     23887 MEMB     132      POPE     C3       CD32C     2.41230       11.6110           0  -1.79700      0.410000    
     23888 MEMB     132      POPE     DC3      DRUD     -2.32630      0.400000           0   0.00000       0.00000    
     23889 MEMB     132      POPE     HX       HDA2A    0.116000       1.00800           0   0.00000       0.00000    
     23890 MEMB     132      POPE     HY       HDA2A    0.116000       1.00800           0   0.00000       0.00000    
     23891 MEMB     132      POPE     O31      OD30CL    1.48470       15.5994           0 -0.732000      0.601000    
     23892 MEMB     132      POPE     DO31     DRUD     -1.48470      0.400000           0   0.00000       0.00000    
     23893 MEMB     132      POPE     C31      CD2O3B    2.72820       11.6110           0  -1.37000       1.74700    
     23894 MEMB     132      POPE     DC31     DRUD     -2.03120      0.400000           0   0.00000       0.00000    
     23895 MEMB     132      POPE     O32      OD2C3B    1.64990       15.5994           0 -0.904000      0.565000    
     23896 MEMB     132      POPE     DO32     DRUD     -1.64990      0.400000           0   0.00000       0.00000    
     23897 MEMB     132      POPE     C32      CD32C     2.24380       11.6110           0  -1.99300      0.410000    
     23898 MEMB     132      POPE     DC32     DRUD     -2.44980      0.400000           0   0.00000       0.00000    
     23899 MEMB     132      POPE     H2X      HDA2A    0.690000E-01   1.00800           0   0.00000       0.00000    
     23900 MEMB     132      POPE     H2Y      HDA2A    0.690000E-01   1.00800           0   0.00000       0.00000    
     23901 MEMB     132      POPE     LP1C     LPD     -0.349000       0.00000          -1   0.00000       0.00000    
     23902 MEMB     132      POPE     LP1D     LPD     -0.258000       0.00000          -1   0.00000       0.00000    
     23903 MEMB     132      POPE     LPMC     LPD     -0.170000       0.00000          -1   0.00000       0.00000    
     23904 MEMB     132      POPE     LPMD     LPD     -0.170000       0.00000          -1   0.00000       0.00000    
     23905 MEMB     132      POPE     C23      CD32A     2.07980       11.6110           0  -1.66000       1.30000    
     23906 MEMB     132      POPE     DC23     DRUD     -2.23580      0.400000           0   0.00000       0.00000    
     23907 MEMB     132      POPE     H3R      HDA2A    0.780000E-01   1.00800           0   0.00000       0.00000    
     23908 MEMB     132      POPE     H3S      HDA2A    0.780000E-01   1.00800           0   0.00000       0.00000    
     23909 MEMB     132      POPE     C24      CD32A     2.07980       11.6110           0  -1.66000       1.30000    
     23910 MEMB     132      POPE     DC24     DRUD     -2.23580      0.400000           0   0.00000       0.00000    
     23911 MEMB     132      POPE     H4R      HDA2A    0.780000E-01   1.00800           0   0.00000       0.00000    
     23912 MEMB     132      POPE     H4S      HDA2A    0.780000E-01   1.00800           0   0.00000       0.00000    
     23913 MEMB     132      POPE     C25      CD32A     2.07980       11.6110           0  -1.66000       1.30000    
     23914 MEMB     132      POPE     DC25     DRUD     -2.23580      0.400000           0   0.00000       0.00000    
     23915 MEMB     132      POPE     H5R      HDA2A    0.780000E-01   1.00800           0   0.00000       0.00000    
     23916 MEMB     132      POPE     H5S      HDA2A    0.780000E-01   1.00800           0   0.00000       0.00000    
     23917 MEMB     132      POPE     C26      CD32A     2.07980       11.6110           0  -1.66000       1.30000    
     23918 MEMB     132      POPE     DC26     DRUD     -2.23580      0.400000           0   0.00000       0.00000    
     23919 MEMB     132      POPE     H6R      HDA2A    0.780000E-01   1.00800           0   0.00000       0.00000    
     23920 MEMB     132      POPE     H6S      HDA2A    0.780000E-01   1.00800           0   0.00000       0.00000    
     23921 MEMB     132      POPE     C27      CD32A     2.07980       11.6110           0  -1.66000       1.30000    
     23922 MEMB     132      POPE     DC27     DRUD     -2.23580      0.400000           0   0.00000       0.00000    
     23923 MEMB     132      POPE     H7R      HDA2A    0.780000E-01   1.00800           0   0.00000       0.00000    
     23924 MEMB     132      POPE     H7S      HDA2A    0.780000E-01   1.00800           0   0.00000       0.00000    
     23925 MEMB     132      POPE     C28      CD32A     2.07980       11.6110           0  -1.66000       1.30000    
     23926 MEMB     132      POPE     DC28     DRUD     -2.23580      0.400000           0   0.00000       0.00000    
     23927 MEMB     132      POPE     H8R      HDA2A    0.780000E-01   1.00800           0   0.00000       0.00000    
     23928 MEMB     132      POPE     H8S      HDA2A    0.780000E-01   1.00800           0   0.00000       0.00000    
     23929 MEMB     132      POPE     C29      CD2C1A    2.33700       11.6110           0  -1.99000      0.750000    
     23930 MEMB     132      POPE     DC29     DRUD     -2.44800      0.400000           0   0.00000       0.00000    
     23931 MEMB     132      POPE     H91      HD2C1A   0.111000       1.00800           0   0.00000       0.00000    
     23932 MEMB     132      POPE     C210     CD2C1A    2.33700       11.6110           0  -1.99000      0.750000    
     23933 MEMB     132      POPE     DC210    DRUD     -2.44800      0.400000           0   0.00000       0.00000    
     23934 MEMB     132      POPE     H101     HD2C1A   0.111000       1.00800           0   0.00000       0.00000    
     23935 MEMB     132      POPE     C211     CD32A     2.07980       11.6110           0  -1.66000       1.30000    
     23936 MEMB     132      POPE     DC211    DRUD     -2.23580      0.400000           0   0.00000       0.00000    
     23937 MEMB     132      POPE     H11R     HDA2A    0.780000E-01   1.00800           0   0.00000       0.00000    
     23938 MEMB     132      POPE     H11S     HDA2A    0.780000E-01   1.00800           0   0.00000       0.00000    
     23939 MEMB     132      POPE     C212     CD32A     2.07980       11.6110           0  -1.66000       1.30000    
     23940 MEMB     132      POPE     DC212    DRUD     -2.23580      0.400000           0   0.00000       0.00000    
     23941 MEMB     132      POPE     H12R     HDA2A    0.780000E-01   1.00800           0   0.00000       0.00000    
     23942 MEMB     132      POPE     H12S     HDA2A    0.780000E-01   1.00800           0   0.00000       0.00000    
     23943 MEMB     132      POPE     C213     CD32A     2.07980       11.6110           0  -1.66000       1.30000    
     23944 MEMB     132      POPE     DC213    DRUD     -2.23580      0.400000           0   0.00000       0.00000    
     23945 MEMB     132      POPE     H13R     HDA2A    0.780000E-01   1.00800           0   0.00000       0.00000    
     23946 MEMB     132      POPE     H13S     HDA2A    0.780000E-01   1.00800           0   0.00000       0.00000    
     23947 MEMB     132      POPE     C214     CD32A     2.07980       11.6110           0  -1.66000       1.30000    
     23948 MEMB     132      POPE     DC214    DRUD     -2.23580      0.400000           0   0.00000       0.00000    
     23949 MEMB     132      POPE     H14R     HDA2A    0.780000E-01   1.00800           0   0.00000       0.00000    
     23950 MEMB     132      POPE     H14S     HDA2A    0.780000E-01   1.00800           0   0.00000       0.00000    
     23951 MEMB     132      POPE     C215     CD32A     2.07980       11.6110           0  -1.66000       1.30000    
     23952 MEMB     132      POPE     DC215    DRUD     -2.23580      0.400000           0   0.00000       0.00000    
     23953 MEMB     132      POPE     H15R     HDA2A    0.780000E-01   1.00800           0   0.00000       0.00000    
     23954 MEMB     132      POPE     H15S     HDA2A    0.780000E-01   1.00800           0   0.00000       0.00000    
     23955 MEMB     132      POPE     C216     CD32A     2.07980       11.6110           0  -1.66000       1.30000    
     23956 MEMB     132      POPE     DC216    DRUD     -2.23580      0.400000           0   0.00000       0.00000    
     23957 MEMB     132      POPE     H16R     HDA2A    0.780000E-01   1.00800           0   0.00000       0.00000    
     23958 MEMB     132      POPE     H16S     HDA2A    0.780000E-01   1.00800           0   0.00000       0.00000    
     23959 MEMB     132      POPE     C217     CD32A     2.07980       11.6110           0  -1.66000       1.30000    
     23960 MEMB     132      POPE     DC217    DRUD     -2.23580      0.400000           0   0.00000       0.00000    
     23961 MEMB     132      POPE     H17R     HDA2A    0.780000E-01   1.00800           0   0.00000       0.00000    
     23962 MEMB     132      POPE     H17S     HDA2A    0.780000E-01   1.00800           0   0.00000       0.00000    
     23963 MEMB     132      POPE     C218     CD33A     2.30820       11.6110           0  -2.05100       1.30000    
     23964 MEMB     132      POPE     DC218    DRUD     -2.48520      0.400000           0   0.00000       0.00000    
     23965 MEMB     132      POPE     H18R     HDA3A    0.590000E-01   1.00800           0   0.00000       0.00000    
     23966 MEMB     132      POPE     H18S     HDA3A    0.590000E-01   1.00800           0   0.00000       0.00000    
     23967 MEMB     132      POPE     H18T     HDA3A    0.590000E-01   1.00800           0   0.00000       0.00000    
     23968 MEMB     132      POPE     C33      CD32A     2.07980       11.6110           0  -1.66000       1.30000    
     23969 MEMB     132      POPE     DC33     DRUD     -2.23580      0.400000           0   0.00000       0.00000    
     23970 MEMB     132      POPE     H3X      HDA2A    0.780000E-01   1.00800           0   0.00000       0.00000    
     23971 MEMB     132      POPE     H3Y      HDA2A    0.780000E-01   1.00800           0   0.00000       0.00000    
     23972 MEMB     132      POPE     C34      CD32A     2.07980       11.6110           0  -1.66000       1.30000    
     23973 MEMB     132      POPE     DC34     DRUD     -2.23580      0.400000           0   0.00000       0.00000    
     23974 MEMB     132      POPE     H4X      HDA2A    0.780000E-01   1.00800           0   0.00000       0.00000    
     23975 MEMB     132      POPE     H4Y      HDA2A    0.780000E-01   1.00800           0   0.00000       0.00000    
     23976 MEMB     132      POPE     C35      CD32A     2.07980       11.6110           0  -1.66000       1.30000    
     23977 MEMB     132      POPE     DC35     DRUD     -2.23580      0.400000           0   0.00000       0.00000    
     23978 MEMB     132      POPE     H5X      HDA2A    0.780000E-01   1.00800           0   0.00000       0.00000    
     23979 MEMB     132      POPE     H5Y      HDA2A    0.780000E-01   1.00800           0   0.00000       0.00000    
     23980 MEMB     132      POPE     C36      CD32A     2.07980       11.6110           0  -1.66000       1.30000    
     23981 MEMB     132      POPE     DC36     DRUD     -2.23580      0.400000           0   0.00000       0.00000    
     23982 MEMB     132      POPE     H6X      HDA2A    0.780000E-01   1.00800           0   0.00000       0.00000    
     23983 MEMB     132      POPE     H6Y      HDA2A    0.780000E-01   1.00800           0   0.00000       0.00000    
     23984 MEMB     132      POPE     C37      CD32A     2.07980       11.6110           0  -1.66000       1.30000    
     23985 MEMB     132      POPE     DC37     DRUD     -2.23580      0.400000           0   0.00000       0.00000    
     23986 MEMB     132      POPE     H7X      HDA2A    0.780000E-01   1.00800           0   0.00000       0.00000    
     23987 MEMB     132      POPE     H7Y      HDA2A    0.780000E-01   1.00800           0   0.00000       0.00000    
     23988 MEMB     132      POPE     C38      CD32A     2.07980       11.6110           0  -1.66000       1.30000    
     23989 MEMB     132      POPE     DC38     DRUD     -2.23580      0.400000           0   0.00000       0.00000    
     23990 MEMB     132      POPE     H8X      HDA2A    0.780000E-01   1.00800           0   0.00000       0.00000    
     23991 MEMB     132      POPE     H8Y      HDA2A    0.780000E-01   1.00800           0   0.00000       0.00000    
     23992 MEMB     132      POPE     C39      CD32A     2.07980       11.6110           0  -1.66000       1.30000    
     23993 MEMB     132      POPE     DC39     DRUD     -2.23580      0.400000           0   0.00000       0.00000    
     23994 MEMB     132      POPE     H9X      HDA2A    0.780000E-01   1.00800           0   0.00000       0.00000    
     23995 MEMB     132      POPE     H9Y      HDA2A    0.780000E-01   1.00800           0   0.00000       0.00000    
     23996 MEMB     132      POPE     C310     CD32A     2.07980       11.6110           0  -1.66000       1.30000    
     23997 MEMB     132      POPE     DC310    DRUD     -2.23580      0.400000           0   0.00000       0.00000    
     23998 MEMB     132      POPE     H10X     HDA2A    0.780000E-01   1.00800           0   0.00000       0.00000    
     23999 MEMB     132      POPE     H10Y     HDA2A    0.780000E-01   1.00800           0   0.00000       0.00000    
     24000 MEMB     132      POPE     C311     CD32A     2.07980       11.6110           0  -1.66000       1.30000    
     24001 MEMB     132      POPE     DC311    DRUD     -2.23580      0.400000           0   0.00000       0.00000    
     24002 MEMB     132      POPE     H11X     HDA2A    0.780000E-01   1.00800           0   0.00000       0.00000    
     24003 MEMB     132      POPE     H11Y     HDA2A    0.780000E-01   1.00800           0   0.00000       0.00000    
     24004 MEMB     132      POPE     C312     CD32A     2.07980       11.6110           0  -1.66000       1.30000    
     24005 MEMB     132      POPE     DC312    DRUD     -2.23580      0.400000           0   0.00000       0.00000    
     24006 MEMB     132      POPE     H12X     HDA2A    0.780000E-01   1.00800           0   0.00000       0.00000    
     24007 MEMB     132      POPE     H12Y     HDA2A    0.780000E-01   1.00800           0   0.00000       0.00000    
     24008 MEMB     132      POPE     C313     CD32A     2.07980       11.6110           0  -1.66000       1.30000    
     24009 MEMB     132      POPE     DC313    DRUD     -2.23580      0.400000           0   0.00000       0.00000    
     24010 MEMB     132      POPE     H13X     HDA2A    0.780000E-01   1.00800           0   0.00000       0.00000    
     24011 MEMB     132      POPE     H13Y     HDA2A    0.780000E-01   1.00800           0   0.00000       0.00000    
     24012 MEMB     132      POPE     C314     CD32A     2.07980       11.6110           0  -1.66000       1.30000    
     24013 MEMB     132      POPE     DC314    DRUD     -2.23580      0.400000           0   0.00000       0.00000    
     24014 MEMB     132      POPE     H14X     HDA2A    0.780000E-01   1.00800           0   0.00000       0.00000    
     24015 MEMB     132      POPE     H14Y     HDA2A    0.780000E-01   1.00800           0   0.00000       0.00000    
     24016 MEMB     132      POPE     C315     CD32A     2.07980       11.6110           0  -1.66000       1.30000    
     24017 MEMB     132      POPE     DC315    DRUD     -2.23580      0.400000           0   0.00000       0.00000    
     24018 MEMB     132      POPE     H15X     HDA2A    0.780000E-01   1.00800           0   0.00000       0.00000    
     24019 MEMB     132      POPE     H15Y     HDA2A    0.780000E-01   1.00800           0   0.00000       0.00000    
     24020 MEMB     132      POPE     C316     CD33A     2.30820       11.6110           0  -2.05100       1.30000    
     24021 MEMB     132      POPE     DC316    DRUD     -2.48520      0.400000           0   0.00000       0.00000    
     24022 MEMB     132      POPE     H16X     HDA3A    0.590000E-01   1.00800           0   0.00000       0.00000    
     24023 MEMB     132      POPE     H16Y     HDA3A    0.590000E-01   1.00800           0   0.00000       0.00000    
     24024 MEMB     132      POPE     H16Z     HDA3A    0.590000E-01   1.00800           0   0.00000       0.00000    
     24025 MEMB     133      POPE     N        ND3P3A    1.62810       13.6070           0  -1.29800      0.895000    
     24026 MEMB     133      POPE     DN       DRUD     -1.97710      0.400000           0   0.00000       0.00000    
     24027 MEMB     133      POPE     HN1      HDP1B    0.340000       1.00800           0   0.00000       0.00000    
     24028 MEMB     133      POPE     HN2      HDP1B    0.340000       1.00800           0   0.00000       0.00000    
     24029 MEMB     133      POPE     HN3      HDP1B    0.340000       1.00800           0   0.00000       0.00000    
     24030 MEMB     133      POPE     C12      CD32A     2.27610       11.6110           0  -1.65600      0.895000    
     24031 MEMB     133      POPE     DC12     DRUD     -2.23310      0.400000           0   0.00000       0.00000    
     24032 MEMB     133      POPE     H12A     HDA2A    0.143000       1.00800           0   0.00000       0.00000    
     24033 MEMB     133      POPE     H12B     HDA2A    0.143000       1.00800           0   0.00000       0.00000    
     24034 MEMB     133      POPE     C11      CD32A     2.42220       11.6110           0  -1.64200      0.862000    
     24035 MEMB     133      POPE     DC11     DRUD     -2.22370      0.400000           0   0.00000       0.00000    
     24036 MEMB     133      POPE     H11A     HDA2A    0.260000E-01   1.00800           0   0.00000       0.00000    
     24037 MEMB     133      POPE     H11B     HDA2A    0.260000E-01   1.00800           0   0.00000       0.00000    
     24038 MEMB     133      POPE     P        PD1A      2.90360       30.5740           0 -0.974000       2.09800    
     24039 MEMB     133      POPE     DP       DRUD     -1.71260      0.400000           0   0.00000       0.00000    
     24040 MEMB     133      POPE     O13      OD2C2B   0.798400       15.5994           0 -0.931000       1.08300    
     24041 MEMB     133      POPE     DO13     DRUD     -1.67440      0.400000           0   0.00000       0.00000    
     24042 MEMB     133      POPE     O14      OD2C2B   0.798400       15.5994           0 -0.931000       1.08300    
     24043 MEMB     133      POPE     DO14     DRUD     -1.67440      0.400000           0   0.00000       0.00000    
     24044 MEMB     133      POPE     O11      OD30B     1.17720       15.5994           0 -0.901000      0.181000    
     24045 MEMB     133      POPE     DO11     DRUD     -1.64720      0.400000           0   0.00000       0.00000    
     24046 MEMB     133      POPE     O12      OD30B     1.17720       15.5994           0 -0.901000      0.181000    
     24047 MEMB     133      POPE     DO12     DRUD     -1.64720      0.400000           0   0.00000       0.00000    
     24048 MEMB     133      POPE     C1       CD32A     2.42220       11.6110           0  -1.64200      0.862000    
     24049 MEMB     133      POPE     DC1      DRUD     -2.22370      0.400000           0   0.00000       0.00000    
     24050 MEMB     133      POPE     HA       HDA2A    0.260000E-01   1.00800           0   0.00000       0.00000    
     24051 MEMB     133      POPE     HB       HDA2A    0.260000E-01   1.00800           0   0.00000       0.00000    
     24052 MEMB     133      POPE     C2       CD31C     2.52830       11.6110           0  -1.79700      0.410000    
     24053 MEMB     133      POPE     DC2      DRUD     -2.32630      0.400000           0   0.00000       0.00000    
     24054 MEMB     133      POPE     HS       HDA1A    0.116000       1.00800           0   0.00000       0.00000    
     24055 MEMB     133      POPE     O21      OD30CL    1.48470       15.5994           0 -0.732000      0.601000    
     24056 MEMB     133      POPE     DO21     DRUD     -1.48470      0.400000           0   0.00000       0.00000    
     24057 MEMB     133      POPE     C21      CD2O3B    2.72820       11.6110           0  -1.37000       1.74700    
     24058 MEMB     133      POPE     DC21     DRUD     -2.03120      0.400000           0   0.00000       0.00000    
     24059 MEMB     133      POPE     O22      OD2C3B    1.64990       15.5994           0 -0.904000      0.565000    
     24060 MEMB     133      POPE     DO22     DRUD     -1.64990      0.400000           0   0.00000       0.00000    
     24061 MEMB     133      POPE     C22      CD32C     2.24380       11.6110           0  -1.99300      0.410000    
     24062 MEMB     133      POPE     DC22     DRUD     -2.44980      0.400000           0   0.00000       0.00000    
     24063 MEMB     133      POPE     H2R      HDA2A    0.690000E-01   1.00800           0   0.00000       0.00000    
     24064 MEMB     133      POPE     H2S      HDA2A    0.690000E-01   1.00800           0   0.00000       0.00000    
     24065 MEMB     133      POPE     LP1A     LPD     -0.349000       0.00000          -1   0.00000       0.00000    
     24066 MEMB     133      POPE     LP1B     LPD     -0.258000       0.00000          -1   0.00000       0.00000    
     24067 MEMB     133      POPE     LPMA     LPD     -0.170000       0.00000          -1   0.00000       0.00000    
     24068 MEMB     133      POPE     LPMB     LPD     -0.170000       0.00000          -1   0.00000       0.00000    
     24069 MEMB     133      POPE     C3       CD32C     2.41230       11.6110           0  -1.79700      0.410000    
     24070 MEMB     133      POPE     DC3      DRUD     -2.32630      0.400000           0   0.00000       0.00000    
     24071 MEMB     133      POPE     HX       HDA2A    0.116000       1.00800           0   0.00000       0.00000    
     24072 MEMB     133      POPE     HY       HDA2A    0.116000       1.00800           0   0.00000       0.00000    
     24073 MEMB     133      POPE     O31      OD30CL    1.48470       15.5994           0 -0.732000      0.601000    
     24074 MEMB     133      POPE     DO31     DRUD     -1.48470      0.400000           0   0.00000       0.00000    
     24075 MEMB     133      POPE     C31      CD2O3B    2.72820       11.6110           0  -1.37000       1.74700    
     24076 MEMB     133      POPE     DC31     DRUD     -2.03120      0.400000           0   0.00000       0.00000    
     24077 MEMB     133      POPE     O32      OD2C3B    1.64990       15.5994           0 -0.904000      0.565000    
     24078 MEMB     133      POPE     DO32     DRUD     -1.64990      0.400000           0   0.00000       0.00000    
     24079 MEMB     133      POPE     C32      CD32C     2.24380       11.6110           0  -1.99300      0.410000    
     24080 MEMB     133      POPE     DC32     DRUD     -2.44980      0.400000           0   0.00000       0.00000    
     24081 MEMB     133      POPE     H2X      HDA2A    0.690000E-01   1.00800           0   0.00000       0.00000    
     24082 MEMB     133      POPE     H2Y      HDA2A    0.690000E-01   1.00800           0   0.00000       0.00000    
     24083 MEMB     133      POPE     LP1C     LPD     -0.349000       0.00000          -1   0.00000       0.00000    
     24084 MEMB     133      POPE     LP1D     LPD     -0.258000       0.00000          -1   0.00000       0.00000    
     24085 MEMB     133      POPE     LPMC     LPD     -0.170000       0.00000          -1   0.00000       0.00000    
     24086 MEMB     133      POPE     LPMD     LPD     -0.170000       0.00000          -1   0.00000       0.00000    
     24087 MEMB     133      POPE     C23      CD32A     2.07980       11.6110           0  -1.66000       1.30000    
     24088 MEMB     133      POPE     DC23     DRUD     -2.23580      0.400000           0   0.00000       0.00000    
     24089 MEMB     133      POPE     H3R      HDA2A    0.780000E-01   1.00800           0   0.00000       0.00000    
     24090 MEMB     133      POPE     H3S      HDA2A    0.780000E-01   1.00800           0   0.00000       0.00000    
     24091 MEMB     133      POPE     C24      CD32A     2.07980       11.6110           0  -1.66000       1.30000    
     24092 MEMB     133      POPE     DC24     DRUD     -2.23580      0.400000           0   0.00000       0.00000    
     24093 MEMB     133      POPE     H4R      HDA2A    0.780000E-01   1.00800           0   0.00000       0.00000    
     24094 MEMB     133      POPE     H4S      HDA2A    0.780000E-01   1.00800           0   0.00000       0.00000    
     24095 MEMB     133      POPE     C25      CD32A     2.07980       11.6110           0  -1.66000       1.30000    
     24096 MEMB     133      POPE     DC25     DRUD     -2.23580      0.400000           0   0.00000       0.00000    
     24097 MEMB     133      POPE     H5R      HDA2A    0.780000E-01   1.00800           0   0.00000       0.00000    
     24098 MEMB     133      POPE     H5S      HDA2A    0.780000E-01   1.00800           0   0.00000       0.00000    
     24099 MEMB     133      POPE     C26      CD32A     2.07980       11.6110           0  -1.66000       1.30000    
     24100 MEMB     133      POPE     DC26     DRUD     -2.23580      0.400000           0   0.00000       0.00000    
     24101 MEMB     133      POPE     H6R      HDA2A    0.780000E-01   1.00800           0   0.00000       0.00000    
     24102 MEMB     133      POPE     H6S      HDA2A    0.780000E-01   1.00800           0   0.00000       0.00000    
     24103 MEMB     133      POPE     C27      CD32A     2.07980       11.6110           0  -1.66000       1.30000    
     24104 MEMB     133      POPE     DC27     DRUD     -2.23580      0.400000           0   0.00000       0.00000    
     24105 MEMB     133      POPE     H7R      HDA2A    0.780000E-01   1.00800           0   0.00000       0.00000    
     24106 MEMB     133      POPE     H7S      HDA2A    0.780000E-01   1.00800           0   0.00000       0.00000    
     24107 MEMB     133      POPE     C28      CD32A     2.07980       11.6110           0  -1.66000       1.30000    
     24108 MEMB     133      POPE     DC28     DRUD     -2.23580      0.400000           0   0.00000       0.00000    
     24109 MEMB     133      POPE     H8R      HDA2A    0.780000E-01   1.00800           0   0.00000       0.00000    
     24110 MEMB     133      POPE     H8S      HDA2A    0.780000E-01   1.00800           0   0.00000       0.00000    
     24111 MEMB     133      POPE     C29      CD2C1A    2.33700       11.6110           0  -1.99000      0.750000    
     24112 MEMB     133      POPE     DC29     DRUD     -2.44800      0.400000           0   0.00000       0.00000    
     24113 MEMB     133      POPE     H91      HD2C1A   0.111000       1.00800           0   0.00000       0.00000    
     24114 MEMB     133      POPE     C210     CD2C1A    2.33700       11.6110           0  -1.99000      0.750000    
     24115 MEMB     133      POPE     DC210    DRUD     -2.44800      0.400000           0   0.00000       0.00000    
     24116 MEMB     133      POPE     H101     HD2C1A   0.111000       1.00800           0   0.00000       0.00000    
     24117 MEMB     133      POPE     C211     CD32A     2.07980       11.6110           0  -1.66000       1.30000    
     24118 MEMB     133      POPE     DC211    DRUD     -2.23580      0.400000           0   0.00000       0.00000    
     24119 MEMB     133      POPE     H11R     HDA2A    0.780000E-01   1.00800           0   0.00000       0.00000    
     24120 MEMB     133      POPE     H11S     HDA2A    0.780000E-01   1.00800           0   0.00000       0.00000    
     24121 MEMB     133      POPE     C212     CD32A     2.07980       11.6110           0  -1.66000       1.30000    
     24122 MEMB     133      POPE     DC212    DRUD     -2.23580      0.400000           0   0.00000       0.00000    
     24123 MEMB     133      POPE     H12R     HDA2A    0.780000E-01   1.00800           0   0.00000       0.00000    
     24124 MEMB     133      POPE     H12S     HDA2A    0.780000E-01   1.00800           0   0.00000       0.00000    
     24125 MEMB     133      POPE     C213     CD32A     2.07980       11.6110           0  -1.66000       1.30000    
     24126 MEMB     133      POPE     DC213    DRUD     -2.23580      0.400000           0   0.00000       0.00000    
     24127 MEMB     133      POPE     H13R     HDA2A    0.780000E-01   1.00800           0   0.00000       0.00000    
     24128 MEMB     133      POPE     H13S     HDA2A    0.780000E-01   1.00800           0   0.00000       0.00000    
     24129 MEMB     133      POPE     C214     CD32A     2.07980       11.6110           0  -1.66000       1.30000    
     24130 MEMB     133      POPE     DC214    DRUD     -2.23580      0.400000           0   0.00000       0.00000    
     24131 MEMB     133      POPE     H14R     HDA2A    0.780000E-01   1.00800           0   0.00000       0.00000    
     24132 MEMB     133      POPE     H14S     HDA2A    0.780000E-01   1.00800           0   0.00000       0.00000    
     24133 MEMB     133      POPE     C215     CD32A     2.07980       11.6110           0  -1.66000       1.30000    
     24134 MEMB     133      POPE     DC215    DRUD     -2.23580      0.400000           0   0.00000       0.00000    
     24135 MEMB     133      POPE     H15R     HDA2A    0.780000E-01   1.00800           0   0.00000       0.00000    
     24136 MEMB     133      POPE     H15S     HDA2A    0.780000E-01   1.00800           0   0.00000       0.00000    
     24137 MEMB     133      POPE     C216     CD32A     2.07980       11.6110           0  -1.66000       1.30000    
     24138 MEMB     133      POPE     DC216    DRUD     -2.23580      0.400000           0   0.00000       0.00000    
     24139 MEMB     133      POPE     H16R     HDA2A    0.780000E-01   1.00800           0   0.00000       0.00000    
     24140 MEMB     133      POPE     H16S     HDA2A    0.780000E-01   1.00800           0   0.00000       0.00000    
     24141 MEMB     133      POPE     C217     CD32A     2.07980       11.6110           0  -1.66000       1.30000    
     24142 MEMB     133      POPE     DC217    DRUD     -2.23580      0.400000           0   0.00000       0.00000    
     24143 MEMB     133      POPE     H17R     HDA2A    0.780000E-01   1.00800           0   0.00000       0.00000    
     24144 MEMB     133      POPE     H17S     HDA2A    0.780000E-01   1.00800           0   0.00000       0.00000    
     24145 MEMB     133      POPE     C218     CD33A     2.30820       11.6110           0  -2.05100       1.30000    
     24146 MEMB     133      POPE     DC218    DRUD     -2.48520      0.400000           0   0.00000       0.00000    
     24147 MEMB     133      POPE     H18R     HDA3A    0.590000E-01   1.00800           0   0.00000       0.00000    
     24148 MEMB     133      POPE     H18S     HDA3A    0.590000E-01   1.00800           0   0.00000       0.00000    
     24149 MEMB     133      POPE     H18T     HDA3A    0.590000E-01   1.00800           0   0.00000       0.00000    
     24150 MEMB     133      POPE     C33      CD32A     2.07980       11.6110           0  -1.66000       1.30000    
     24151 MEMB     133      POPE     DC33     DRUD     -2.23580      0.400000           0   0.00000       0.00000    
     24152 MEMB     133      POPE     H3X      HDA2A    0.780000E-01   1.00800           0   0.00000       0.00000    
     24153 MEMB     133      POPE     H3Y      HDA2A    0.780000E-01   1.00800           0   0.00000       0.00000    
     24154 MEMB     133      POPE     C34      CD32A     2.07980       11.6110           0  -1.66000       1.30000    
     24155 MEMB     133      POPE     DC34     DRUD     -2.23580      0.400000           0   0.00000       0.00000    
     24156 MEMB     133      POPE     H4X      HDA2A    0.780000E-01   1.00800           0   0.00000       0.00000    
     24157 MEMB     133      POPE     H4Y      HDA2A    0.780000E-01   1.00800           0   0.00000       0.00000    
     24158 MEMB     133      POPE     C35      CD32A     2.07980       11.6110           0  -1.66000       1.30000    
     24159 MEMB     133      POPE     DC35     DRUD     -2.23580      0.400000           0   0.00000       0.00000    
     24160 MEMB     133      POPE     H5X      HDA2A    0.780000E-01   1.00800           0   0.00000       0.00000    
     24161 MEMB     133      POPE     H5Y      HDA2A    0.780000E-01   1.00800           0   0.00000       0.00000    
     24162 MEMB     133      POPE     C36      CD32A     2.07980       11.6110           0  -1.66000       1.30000    
     24163 MEMB     133      POPE     DC36     DRUD     -2.23580      0.400000           0   0.00000       0.00000    
     24164 MEMB     133      POPE     H6X      HDA2A    0.780000E-01   1.00800           0   0.00000       0.00000    
     24165 MEMB     133      POPE     H6Y      HDA2A    0.780000E-01   1.00800           0   0.00000       0.00000    
     24166 MEMB     133      POPE     C37      CD32A     2.07980       11.6110           0  -1.66000       1.30000    
     24167 MEMB     133      POPE     DC37     DRUD     -2.23580      0.400000           0   0.00000       0.00000    
     24168 MEMB     133      POPE     H7X      HDA2A    0.780000E-01   1.00800           0   0.00000       0.00000    
     24169 MEMB     133      POPE     H7Y      HDA2A    0.780000E-01   1.00800           0   0.00000       0.00000    
     24170 MEMB     133      POPE     C38      CD32A     2.07980       11.6110           0  -1.66000       1.30000    
     24171 MEMB     133      POPE     DC38     DRUD     -2.23580      0.400000           0   0.00000       0.00000    
     24172 MEMB     133      POPE     H8X      HDA2A    0.780000E-01   1.00800           0   0.00000       0.00000    
     24173 MEMB     133      POPE     H8Y      HDA2A    0.780000E-01   1.00800           0   0.00000       0.00000    
     24174 MEMB     133      POPE     C39      CD32A     2.07980       11.6110           0  -1.66000       1.30000    
     24175 MEMB     133      POPE     DC39     DRUD     -2.23580      0.400000           0   0.00000       0.00000    
     24176 MEMB     133      POPE     H9X      HDA2A    0.780000E-01   1.00800           0   0.00000       0.00000    
     24177 MEMB     133      POPE     H9Y      HDA2A    0.780000E-01   1.00800           0   0.00000       0.00000    
     24178 MEMB     133      POPE     C310     CD32A     2.07980       11.6110           0  -1.66000       1.30000    
     24179 MEMB     133      POPE     DC310    DRUD     -2.23580      0.400000           0   0.00000       0.00000    
     24180 MEMB     133      POPE     H10X     HDA2A    0.780000E-01   1.00800           0   0.00000       0.00000    
     24181 MEMB     133      POPE     H10Y     HDA2A    0.780000E-01   1.00800           0   0.00000       0.00000    
     24182 MEMB     133      POPE     C311     CD32A     2.07980       11.6110           0  -1.66000       1.30000    
     24183 MEMB     133      POPE     DC311    DRUD     -2.23580      0.400000           0   0.00000       0.00000    
     24184 MEMB     133      POPE     H11X     HDA2A    0.780000E-01   1.00800           0   0.00000       0.00000    
     24185 MEMB     133      POPE     H11Y     HDA2A    0.780000E-01   1.00800           0   0.00000       0.00000    
     24186 MEMB     133      POPE     C312     CD32A     2.07980       11.6110           0  -1.66000       1.30000    
     24187 MEMB     133      POPE     DC312    DRUD     -2.23580      0.400000           0   0.00000       0.00000    
     24188 MEMB     133      POPE     H12X     HDA2A    0.780000E-01   1.00800           0   0.00000       0.00000    
     24189 MEMB     133      POPE     H12Y     HDA2A    0.780000E-01   1.00800           0   0.00000       0.00000    
     24190 MEMB     133      POPE     C313     CD32A     2.07980       11.6110           0  -1.66000       1.30000    
     24191 MEMB     133      POPE     DC313    DRUD     -2.23580      0.400000           0   0.00000       0.00000    
     24192 MEMB     133      POPE     H13X     HDA2A    0.780000E-01   1.00800           0   0.00000       0.00000    
     24193 MEMB     133      POPE     H13Y     HDA2A    0.780000E-01   1.00800           0   0.00000       0.00000    
     24194 MEMB     133      POPE     C314     CD32A     2.07980       11.6110           0  -1.66000       1.30000    
     24195 MEMB     133      POPE     DC314    DRUD     -2.23580      0.400000           0   0.00000       0.00000    
     24196 MEMB     133      POPE     H14X     HDA2A    0.780000E-01   1.00800           0   0.00000       0.00000    
     24197 MEMB     133      POPE     H14Y     HDA2A    0.780000E-01   1.00800           0   0.00000       0.00000    
     24198 MEMB     133      POPE     C315     CD32A     2.07980       11.6110           0  -1.66000       1.30000    
     24199 MEMB     133      POPE     DC315    DRUD     -2.23580      0.400000           0   0.00000       0.00000    
     24200 MEMB     133      POPE     H15X     HDA2A    0.780000E-01   1.00800           0   0.00000       0.00000    
     24201 MEMB     133      POPE     H15Y     HDA2A    0.780000E-01   1.00800           0   0.00000       0.00000    
     24202 MEMB     133      POPE     C316     CD33A     2.30820       11.6110           0  -2.05100       1.30000    
     24203 MEMB     133      POPE     DC316    DRUD     -2.48520      0.400000           0   0.00000       0.00000    
     24204 MEMB     133      POPE     H16X     HDA3A    0.590000E-01   1.00800           0   0.00000       0.00000    
     24205 MEMB     133      POPE     H16Y     HDA3A    0.590000E-01   1.00800           0   0.00000       0.00000    
     24206 MEMB     133      POPE     H16Z     HDA3A    0.590000E-01   1.00800           0   0.00000       0.00000    
     24207 MEMB     134      POPE     N        ND3P3A    1.62810       13.6070           0  -1.29800      0.895000    
     24208 MEMB     134      POPE     DN       DRUD     -1.97710      0.400000           0   0.00000       0.00000    
     24209 MEMB     134      POPE     HN1      HDP1B    0.340000       1.00800           0   0.00000       0.00000    
     24210 MEMB     134      POPE     HN2      HDP1B    0.340000       1.00800           0   0.00000       0.00000    
     24211 MEMB     134      POPE     HN3      HDP1B    0.340000       1.00800           0   0.00000       0.00000    
     24212 MEMB     134      POPE     C12      CD32A     2.27610       11.6110           0  -1.65600      0.895000    
     24213 MEMB     134      POPE     DC12     DRUD     -2.23310      0.400000           0   0.00000       0.00000    
     24214 MEMB     134      POPE     H12A     HDA2A    0.143000       1.00800           0   0.00000       0.00000    
     24215 MEMB     134      POPE     H12B     HDA2A    0.143000       1.00800           0   0.00000       0.00000    
     24216 MEMB     134      POPE     C11      CD32A     2.42220       11.6110           0  -1.64200      0.862000    
     24217 MEMB     134      POPE     DC11     DRUD     -2.22370      0.400000           0   0.00000       0.00000    
     24218 MEMB     134      POPE     H11A     HDA2A    0.260000E-01   1.00800           0   0.00000       0.00000    
     24219 MEMB     134      POPE     H11B     HDA2A    0.260000E-01   1.00800           0   0.00000       0.00000    
     24220 MEMB     134      POPE     P        PD1A      2.90360       30.5740           0 -0.974000       2.09800    
     24221 MEMB     134      POPE     DP       DRUD     -1.71260      0.400000           0   0.00000       0.00000    
     24222 MEMB     134      POPE     O13      OD2C2B   0.798400       15.5994           0 -0.931000       1.08300    
     24223 MEMB     134      POPE     DO13     DRUD     -1.67440      0.400000           0   0.00000       0.00000    
     24224 MEMB     134      POPE     O14      OD2C2B   0.798400       15.5994           0 -0.931000       1.08300    
     24225 MEMB     134      POPE     DO14     DRUD     -1.67440      0.400000           0   0.00000       0.00000    
     24226 MEMB     134      POPE     O11      OD30B     1.17720       15.5994           0 -0.901000      0.181000    
     24227 MEMB     134      POPE     DO11     DRUD     -1.64720      0.400000           0   0.00000       0.00000    
     24228 MEMB     134      POPE     O12      OD30B     1.17720       15.5994           0 -0.901000      0.181000    
     24229 MEMB     134      POPE     DO12     DRUD     -1.64720      0.400000           0   0.00000       0.00000    
     24230 MEMB     134      POPE     C1       CD32A     2.42220       11.6110           0  -1.64200      0.862000    
     24231 MEMB     134      POPE     DC1      DRUD     -2.22370      0.400000           0   0.00000       0.00000    
     24232 MEMB     134      POPE     HA       HDA2A    0.260000E-01   1.00800           0   0.00000       0.00000    
     24233 MEMB     134      POPE     HB       HDA2A    0.260000E-01   1.00800           0   0.00000       0.00000    
     24234 MEMB     134      POPE     C2       CD31C     2.52830       11.6110           0  -1.79700      0.410000    
     24235 MEMB     134      POPE     DC2      DRUD     -2.32630      0.400000           0   0.00000       0.00000    
     24236 MEMB     134      POPE     HS       HDA1A    0.116000       1.00800           0   0.00000       0.00000    
     24237 MEMB     134      POPE     O21      OD30CL    1.48470       15.5994           0 -0.732000      0.601000    
     24238 MEMB     134      POPE     DO21     DRUD     -1.48470      0.400000           0   0.00000       0.00000    
     24239 MEMB     134      POPE     C21      CD2O3B    2.72820       11.6110           0  -1.37000       1.74700    
     24240 MEMB     134      POPE     DC21     DRUD     -2.03120      0.400000           0   0.00000       0.00000    
     24241 MEMB     134      POPE     O22      OD2C3B    1.64990       15.5994           0 -0.904000      0.565000    
     24242 MEMB     134      POPE     DO22     DRUD     -1.64990      0.400000           0   0.00000       0.00000    
     24243 MEMB     134      POPE     C22      CD32C     2.24380       11.6110           0  -1.99300      0.410000    
     24244 MEMB     134      POPE     DC22     DRUD     -2.44980      0.400000           0   0.00000       0.00000    
     24245 MEMB     134      POPE     H2R      HDA2A    0.690000E-01   1.00800           0   0.00000       0.00000    
     24246 MEMB     134      POPE     H2S      HDA2A    0.690000E-01   1.00800           0   0.00000       0.00000    
     24247 MEMB     134      POPE     LP1A     LPD     -0.349000       0.00000          -1   0.00000       0.00000    
     24248 MEMB     134      POPE     LP1B     LPD     -0.258000       0.00000          -1   0.00000       0.00000    
     24249 MEMB     134      POPE     LPMA     LPD     -0.170000       0.00000          -1   0.00000       0.00000    
     24250 MEMB     134      POPE     LPMB     LPD     -0.170000       0.00000          -1   0.00000       0.00000    
     24251 MEMB     134      POPE     C3       CD32C     2.41230       11.6110           0  -1.79700      0.410000    
     24252 MEMB     134      POPE     DC3      DRUD     -2.32630      0.400000           0   0.00000       0.00000    
     24253 MEMB     134      POPE     HX       HDA2A    0.116000       1.00800           0   0.00000       0.00000    
     24254 MEMB     134      POPE     HY       HDA2A    0.116000       1.00800           0   0.00000       0.00000    
     24255 MEMB     134      POPE     O31      OD30CL    1.48470       15.5994           0 -0.732000      0.601000    
     24256 MEMB     134      POPE     DO31     DRUD     -1.48470      0.400000           0   0.00000       0.00000    
     24257 MEMB     134      POPE     C31      CD2O3B    2.72820       11.6110           0  -1.37000       1.74700    
     24258 MEMB     134      POPE     DC31     DRUD     -2.03120      0.400000           0   0.00000       0.00000    
     24259 MEMB     134      POPE     O32      OD2C3B    1.64990       15.5994           0 -0.904000      0.565000    
     24260 MEMB     134      POPE     DO32     DRUD     -1.64990      0.400000           0   0.00000       0.00000    
     24261 MEMB     134      POPE     C32      CD32C     2.24380       11.6110           0  -1.99300      0.410000    
     24262 MEMB     134      POPE     DC32     DRUD     -2.44980      0.400000           0   0.00000       0.00000    
     24263 MEMB     134      POPE     H2X      HDA2A    0.690000E-01   1.00800           0   0.00000       0.00000    
     24264 MEMB     134      POPE     H2Y      HDA2A    0.690000E-01   1.00800           0   0.00000       0.00000    
     24265 MEMB     134      POPE     LP1C     LPD     -0.349000       0.00000          -1   0.00000       0.00000    
     24266 MEMB     134      POPE     LP1D     LPD     -0.258000       0.00000          -1   0.00000       0.00000    
     24267 MEMB     134      POPE     LPMC     LPD     -0.170000       0.00000          -1   0.00000       0.00000    
     24268 MEMB     134      POPE     LPMD     LPD     -0.170000       0.00000          -1   0.00000       0.00000    
     24269 MEMB     134      POPE     C23      CD32A     2.07980       11.6110           0  -1.66000       1.30000    
     24270 MEMB     134      POPE     DC23     DRUD     -2.23580      0.400000           0   0.00000       0.00000    
     24271 MEMB     134      POPE     H3R      HDA2A    0.780000E-01   1.00800           0   0.00000       0.00000    
     24272 MEMB     134      POPE     H3S      HDA2A    0.780000E-01   1.00800           0   0.00000       0.00000    
     24273 MEMB     134      POPE     C24      CD32A     2.07980       11.6110           0  -1.66000       1.30000    
     24274 MEMB     134      POPE     DC24     DRUD     -2.23580      0.400000           0   0.00000       0.00000    
     24275 MEMB     134      POPE     H4R      HDA2A    0.780000E-01   1.00800           0   0.00000       0.00000    
     24276 MEMB     134      POPE     H4S      HDA2A    0.780000E-01   1.00800           0   0.00000       0.00000    
     24277 MEMB     134      POPE     C25      CD32A     2.07980       11.6110           0  -1.66000       1.30000    
     24278 MEMB     134      POPE     DC25     DRUD     -2.23580      0.400000           0   0.00000       0.00000    
     24279 MEMB     134      POPE     H5R      HDA2A    0.780000E-01   1.00800           0   0.00000       0.00000    
     24280 MEMB     134      POPE     H5S      HDA2A    0.780000E-01   1.00800           0   0.00000       0.00000    
     24281 MEMB     134      POPE     C26      CD32A     2.07980       11.6110           0  -1.66000       1.30000    
     24282 MEMB     134      POPE     DC26     DRUD     -2.23580      0.400000           0   0.00000       0.00000    
     24283 MEMB     134      POPE     H6R      HDA2A    0.780000E-01   1.00800           0   0.00000       0.00000    
     24284 MEMB     134      POPE     H6S      HDA2A    0.780000E-01   1.00800           0   0.00000       0.00000    
     24285 MEMB     134      POPE     C27      CD32A     2.07980       11.6110           0  -1.66000       1.30000    
     24286 MEMB     134      POPE     DC27     DRUD     -2.23580      0.400000           0   0.00000       0.00000    
     24287 MEMB     134      POPE     H7R      HDA2A    0.780000E-01   1.00800           0   0.00000       0.00000    
     24288 MEMB     134      POPE     H7S      HDA2A    0.780000E-01   1.00800           0   0.00000       0.00000    
     24289 MEMB     134      POPE     C28      CD32A     2.07980       11.6110           0  -1.66000       1.30000    
     24290 MEMB     134      POPE     DC28     DRUD     -2.23580      0.400000           0   0.00000       0.00000    
     24291 MEMB     134      POPE     H8R      HDA2A    0.780000E-01   1.00800           0   0.00000       0.00000    
     24292 MEMB     134      POPE     H8S      HDA2A    0.780000E-01   1.00800           0   0.00000       0.00000    
     24293 MEMB     134      POPE     C29      CD2C1A    2.33700       11.6110           0  -1.99000      0.750000    
     24294 MEMB     134      POPE     DC29     DRUD     -2.44800      0.400000           0   0.00000       0.00000    
     24295 MEMB     134      POPE     H91      HD2C1A   0.111000       1.00800           0   0.00000       0.00000    
     24296 MEMB     134      POPE     C210     CD2C1A    2.33700       11.6110           0  -1.99000      0.750000    
     24297 MEMB     134      POPE     DC210    DRUD     -2.44800      0.400000           0   0.00000       0.00000    
     24298 MEMB     134      POPE     H101     HD2C1A   0.111000       1.00800           0   0.00000       0.00000    
     24299 MEMB     134      POPE     C211     CD32A     2.07980       11.6110           0  -1.66000       1.30000    
     24300 MEMB     134      POPE     DC211    DRUD     -2.23580      0.400000           0   0.00000       0.00000    
     24301 MEMB     134      POPE     H11R     HDA2A    0.780000E-01   1.00800           0   0.00000       0.00000    
     24302 MEMB     134      POPE     H11S     HDA2A    0.780000E-01   1.00800           0   0.00000       0.00000    
     24303 MEMB     134      POPE     C212     CD32A     2.07980       11.6110           0  -1.66000       1.30000    
     24304 MEMB     134      POPE     DC212    DRUD     -2.23580      0.400000           0   0.00000       0.00000    
     24305 MEMB     134      POPE     H12R     HDA2A    0.780000E-01   1.00800           0   0.00000       0.00000    
     24306 MEMB     134      POPE     H12S     HDA2A    0.780000E-01   1.00800           0   0.00000       0.00000    
     24307 MEMB     134      POPE     C213     CD32A     2.07980       11.6110           0  -1.66000       1.30000    
     24308 MEMB     134      POPE     DC213    DRUD     -2.23580      0.400000           0   0.00000       0.00000    
     24309 MEMB     134      POPE     H13R     HDA2A    0.780000E-01   1.00800           0   0.00000       0.00000    
     24310 MEMB     134      POPE     H13S     HDA2A    0.780000E-01   1.00800           0   0.00000       0.00000    
     24311 MEMB     134      POPE     C214     CD32A     2.07980       11.6110           0  -1.66000       1.30000    
     24312 MEMB     134      POPE     DC214    DRUD     -2.23580      0.400000           0   0.00000       0.00000    
     24313 MEMB     134      POPE     H14R     HDA2A    0.780000E-01   1.00800           0   0.00000       0.00000    
     24314 MEMB     134      POPE     H14S     HDA2A    0.780000E-01   1.00800           0   0.00000       0.00000    
     24315 MEMB     134      POPE     C215     CD32A     2.07980       11.6110           0  -1.66000       1.30000    
     24316 MEMB     134      POPE     DC215    DRUD     -2.23580      0.400000           0   0.00000       0.00000    
     24317 MEMB     134      POPE     H15R     HDA2A    0.780000E-01   1.00800           0   0.00000       0.00000    
     24318 MEMB     134      POPE     H15S     HDA2A    0.780000E-01   1.00800           0   0.00000       0.00000    
     24319 MEMB     134      POPE     C216     CD32A     2.07980       11.6110           0  -1.66000       1.30000    
     24320 MEMB     134      POPE     DC216    DRUD     -2.23580      0.400000           0   0.00000       0.00000    
     24321 MEMB     134      POPE     H16R     HDA2A    0.780000E-01   1.00800           0   0.00000       0.00000    
     24322 MEMB     134      POPE     H16S     HDA2A    0.780000E-01   1.00800           0   0.00000       0.00000    
     24323 MEMB     134      POPE     C217     CD32A     2.07980       11.6110           0  -1.66000       1.30000    
     24324 MEMB     134      POPE     DC217    DRUD     -2.23580      0.400000           0   0.00000       0.00000    
     24325 MEMB     134      POPE     H17R     HDA2A    0.780000E-01   1.00800           0   0.00000       0.00000    
     24326 MEMB     134      POPE     H17S     HDA2A    0.780000E-01   1.00800           0   0.00000       0.00000    
     24327 MEMB     134      POPE     C218     CD33A     2.30820       11.6110           0  -2.05100       1.30000    
     24328 MEMB     134      POPE     DC218    DRUD     -2.48520      0.400000           0   0.00000       0.00000    
     24329 MEMB     134      POPE     H18R     HDA3A    0.590000E-01   1.00800           0   0.00000       0.00000    
     24330 MEMB     134      POPE     H18S     HDA3A    0.590000E-01   1.00800           0   0.00000       0.00000    
     24331 MEMB     134      POPE     H18T     HDA3A    0.590000E-01   1.00800           0   0.00000       0.00000    
     24332 MEMB     134      POPE     C33      CD32A     2.07980       11.6110           0  -1.66000       1.30000    
     24333 MEMB     134      POPE     DC33     DRUD     -2.23580      0.400000           0   0.00000       0.00000    
     24334 MEMB     134      POPE     H3X      HDA2A    0.780000E-01   1.00800           0   0.00000       0.00000    
     24335 MEMB     134      POPE     H3Y      HDA2A    0.780000E-01   1.00800           0   0.00000       0.00000    
     24336 MEMB     134      POPE     C34      CD32A     2.07980       11.6110           0  -1.66000       1.30000    
     24337 MEMB     134      POPE     DC34     DRUD     -2.23580      0.400000           0   0.00000       0.00000    
     24338 MEMB     134      POPE     H4X      HDA2A    0.780000E-01   1.00800           0   0.00000       0.00000    
     24339 MEMB     134      POPE     H4Y      HDA2A    0.780000E-01   1.00800           0   0.00000       0.00000    
     24340 MEMB     134      POPE     C35      CD32A     2.07980       11.6110           0  -1.66000       1.30000    
     24341 MEMB     134      POPE     DC35     DRUD     -2.23580      0.400000           0   0.00000       0.00000    
     24342 MEMB     134      POPE     H5X      HDA2A    0.780000E-01   1.00800           0   0.00000       0.00000    
     24343 MEMB     134      POPE     H5Y      HDA2A    0.780000E-01   1.00800           0   0.00000       0.00000    
     24344 MEMB     134      POPE     C36      CD32A     2.07980       11.6110           0  -1.66000       1.30000    
     24345 MEMB     134      POPE     DC36     DRUD     -2.23580      0.400000           0   0.00000       0.00000    
     24346 MEMB     134      POPE     H6X      HDA2A    0.780000E-01   1.00800           0   0.00000       0.00000    
     24347 MEMB     134      POPE     H6Y      HDA2A    0.780000E-01   1.00800           0   0.00000       0.00000    
     24348 MEMB     134      POPE     C37      CD32A     2.07980       11.6110           0  -1.66000       1.30000    
     24349 MEMB     134      POPE     DC37     DRUD     -2.23580      0.400000           0   0.00000       0.00000    
     24350 MEMB     134      POPE     H7X      HDA2A    0.780000E-01   1.00800           0   0.00000       0.00000    
     24351 MEMB     134      POPE     H7Y      HDA2A    0.780000E-01   1.00800           0   0.00000       0.00000    
     24352 MEMB     134      POPE     C38      CD32A     2.07980       11.6110           0  -1.66000       1.30000    
     24353 MEMB     134      POPE     DC38     DRUD     -2.23580      0.400000           0   0.00000       0.00000    
     24354 MEMB     134      POPE     H8X      HDA2A    0.780000E-01   1.00800           0   0.00000       0.00000    
     24355 MEMB     134      POPE     H8Y      HDA2A    0.780000E-01   1.00800           0   0.00000       0.00000    
     24356 MEMB     134      POPE     C39      CD32A     2.07980       11.6110           0  -1.66000       1.30000    
     24357 MEMB     134      POPE     DC39     DRUD     -2.23580      0.400000           0   0.00000       0.00000    
     24358 MEMB     134      POPE     H9X      HDA2A    0.780000E-01   1.00800           0   0.00000       0.00000    
     24359 MEMB     134      POPE     H9Y      HDA2A    0.780000E-01   1.00800           0   0.00000       0.00000    
     24360 MEMB     134      POPE     C310     CD32A     2.07980       11.6110           0  -1.66000       1.30000    
     24361 MEMB     134      POPE     DC310    DRUD     -2.23580      0.400000           0   0.00000       0.00000    
     24362 MEMB     134      POPE     H10X     HDA2A    0.780000E-01   1.00800           0   0.00000       0.00000    
     24363 MEMB     134      POPE     H10Y     HDA2A    0.780000E-01   1.00800           0   0.00000       0.00000    
     24364 MEMB     134      POPE     C311     CD32A     2.07980       11.6110           0  -1.66000       1.30000    
     24365 MEMB     134      POPE     DC311    DRUD     -2.23580      0.400000           0   0.00000       0.00000    
     24366 MEMB     134      POPE     H11X     HDA2A    0.780000E-01   1.00800           0   0.00000       0.00000    
     24367 MEMB     134      POPE     H11Y     HDA2A    0.780000E-01   1.00800           0   0.00000       0.00000    
     24368 MEMB     134      POPE     C312     CD32A     2.07980       11.6110           0  -1.66000       1.30000    
     24369 MEMB     134      POPE     DC312    DRUD     -2.23580      0.400000           0   0.00000       0.00000    
     24370 MEMB     134      POPE     H12X     HDA2A    0.780000E-01   1.00800           0   0.00000       0.00000    
     24371 MEMB     134      POPE     H12Y     HDA2A    0.780000E-01   1.00800           0   0.00000       0.00000    
     24372 MEMB     134      POPE     C313     CD32A     2.07980       11.6110           0  -1.66000       1.30000    
     24373 MEMB     134      POPE     DC313    DRUD     -2.23580      0.400000           0   0.00000       0.00000    
     24374 MEMB     134      POPE     H13X     HDA2A    0.780000E-01   1.00800           0   0.00000       0.00000    
     24375 MEMB     134      POPE     H13Y     HDA2A    0.780000E-01   1.00800           0   0.00000       0.00000    
     24376 MEMB     134      POPE     C314     CD32A     2.07980       11.6110           0  -1.66000       1.30000    
     24377 MEMB     134      POPE     DC314    DRUD     -2.23580      0.400000           0   0.00000       0.00000    
     24378 MEMB     134      POPE     H14X     HDA2A    0.780000E-01   1.00800           0   0.00000       0.00000    
     24379 MEMB     134      POPE     H14Y     HDA2A    0.780000E-01   1.00800           0   0.00000       0.00000    
     24380 MEMB     134      POPE     C315     CD32A     2.07980       11.6110           0  -1.66000       1.30000    
     24381 MEMB     134      POPE     DC315    DRUD     -2.23580      0.400000           0   0.00000       0.00000    
     24382 MEMB     134      POPE     H15X     HDA2A    0.780000E-01   1.00800           0   0.00000       0.00000    
     24383 MEMB     134      POPE     H15Y     HDA2A    0.780000E-01   1.00800           0   0.00000       0.00000    
     24384 MEMB     134      POPE     C316     CD33A     2.30820       11.6110           0  -2.05100       1.30000    
     24385 MEMB     134      POPE     DC316    DRUD     -2.48520      0.400000           0   0.00000       0.00000    
     24386 MEMB     134      POPE     H16X     HDA3A    0.590000E-01   1.00800           0   0.00000       0.00000    
     24387 MEMB     134      POPE     H16Y     HDA3A    0.590000E-01   1.00800           0   0.00000       0.00000    
     24388 MEMB     134      POPE     H16Z     HDA3A    0.590000E-01   1.00800           0   0.00000       0.00000    
     24389 MEMB     135      POPE     N        ND3P3A    1.62810       13.6070           0  -1.29800      0.895000    
     24390 MEMB     135      POPE     DN       DRUD     -1.97710      0.400000           0   0.00000       0.00000    
     24391 MEMB     135      POPE     HN1      HDP1B    0.340000       1.00800           0   0.00000       0.00000    
     24392 MEMB     135      POPE     HN2      HDP1B    0.340000       1.00800           0   0.00000       0.00000    
     24393 MEMB     135      POPE     HN3      HDP1B    0.340000       1.00800           0   0.00000       0.00000    
     24394 MEMB     135      POPE     C12      CD32A     2.27610       11.6110           0  -1.65600      0.895000    
     24395 MEMB     135      POPE     DC12     DRUD     -2.23310      0.400000           0   0.00000       0.00000    
     24396 MEMB     135      POPE     H12A     HDA2A    0.143000       1.00800           0   0.00000       0.00000    
     24397 MEMB     135      POPE     H12B     HDA2A    0.143000       1.00800           0   0.00000       0.00000    
     24398 MEMB     135      POPE     C11      CD32A     2.42220       11.6110           0  -1.64200      0.862000    
     24399 MEMB     135      POPE     DC11     DRUD     -2.22370      0.400000           0   0.00000       0.00000    
     24400 MEMB     135      POPE     H11A     HDA2A    0.260000E-01   1.00800           0   0.00000       0.00000    
     24401 MEMB     135      POPE     H11B     HDA2A    0.260000E-01   1.00800           0   0.00000       0.00000    
     24402 MEMB     135      POPE     P        PD1A      2.90360       30.5740           0 -0.974000       2.09800    
     24403 MEMB     135      POPE     DP       DRUD     -1.71260      0.400000           0   0.00000       0.00000    
     24404 MEMB     135      POPE     O13      OD2C2B   0.798400       15.5994           0 -0.931000       1.08300    
     24405 MEMB     135      POPE     DO13     DRUD     -1.67440      0.400000           0   0.00000       0.00000    
     24406 MEMB     135      POPE     O14      OD2C2B   0.798400       15.5994           0 -0.931000       1.08300    
     24407 MEMB     135      POPE     DO14     DRUD     -1.67440      0.400000           0   0.00000       0.00000    
     24408 MEMB     135      POPE     O11      OD30B     1.17720       15.5994           0 -0.901000      0.181000    
     24409 MEMB     135      POPE     DO11     DRUD     -1.64720      0.400000           0   0.00000       0.00000    
     24410 MEMB     135      POPE     O12      OD30B     1.17720       15.5994           0 -0.901000      0.181000    
     24411 MEMB     135      POPE     DO12     DRUD     -1.64720      0.400000           0   0.00000       0.00000    
     24412 MEMB     135      POPE     C1       CD32A     2.42220       11.6110           0  -1.64200      0.862000    
     24413 MEMB     135      POPE     DC1      DRUD     -2.22370      0.400000           0   0.00000       0.00000    
     24414 MEMB     135      POPE     HA       HDA2A    0.260000E-01   1.00800           0   0.00000       0.00000    
     24415 MEMB     135      POPE     HB       HDA2A    0.260000E-01   1.00800           0   0.00000       0.00000    
     24416 MEMB     135      POPE     C2       CD31C     2.52830       11.6110           0  -1.79700      0.410000    
     24417 MEMB     135      POPE     DC2      DRUD     -2.32630      0.400000           0   0.00000       0.00000    
     24418 MEMB     135      POPE     HS       HDA1A    0.116000       1.00800           0   0.00000       0.00000    
     24419 MEMB     135      POPE     O21      OD30CL    1.48470       15.5994           0 -0.732000      0.601000    
     24420 MEMB     135      POPE     DO21     DRUD     -1.48470      0.400000           0   0.00000       0.00000    
     24421 MEMB     135      POPE     C21      CD2O3B    2.72820       11.6110           0  -1.37000       1.74700    
     24422 MEMB     135      POPE     DC21     DRUD     -2.03120      0.400000           0   0.00000       0.00000    
     24423 MEMB     135      POPE     O22      OD2C3B    1.64990       15.5994           0 -0.904000      0.565000    
     24424 MEMB     135      POPE     DO22     DRUD     -1.64990      0.400000           0   0.00000       0.00000    
     24425 MEMB     135      POPE     C22      CD32C     2.24380       11.6110           0  -1.99300      0.410000    
     24426 MEMB     135      POPE     DC22     DRUD     -2.44980      0.400000           0   0.00000       0.00000    
     24427 MEMB     135      POPE     H2R      HDA2A    0.690000E-01   1.00800           0   0.00000       0.00000    
     24428 MEMB     135      POPE     H2S      HDA2A    0.690000E-01   1.00800           0   0.00000       0.00000    
     24429 MEMB     135      POPE     LP1A     LPD     -0.349000       0.00000          -1   0.00000       0.00000    
     24430 MEMB     135      POPE     LP1B     LPD     -0.258000       0.00000          -1   0.00000       0.00000    
     24431 MEMB     135      POPE     LPMA     LPD     -0.170000       0.00000          -1   0.00000       0.00000    
     24432 MEMB     135      POPE     LPMB     LPD     -0.170000       0.00000          -1   0.00000       0.00000    
     24433 MEMB     135      POPE     C3       CD32C     2.41230       11.6110           0  -1.79700      0.410000    
     24434 MEMB     135      POPE     DC3      DRUD     -2.32630      0.400000           0   0.00000       0.00000    
     24435 MEMB     135      POPE     HX       HDA2A    0.116000       1.00800           0   0.00000       0.00000    
     24436 MEMB     135      POPE     HY       HDA2A    0.116000       1.00800           0   0.00000       0.00000    
     24437 MEMB     135      POPE     O31      OD30CL    1.48470       15.5994           0 -0.732000      0.601000    
     24438 MEMB     135      POPE     DO31     DRUD     -1.48470      0.400000           0   0.00000       0.00000    
     24439 MEMB     135      POPE     C31      CD2O3B    2.72820       11.6110           0  -1.37000       1.74700    
     24440 MEMB     135      POPE     DC31     DRUD     -2.03120      0.400000           0   0.00000       0.00000    
     24441 MEMB     135      POPE     O32      OD2C3B    1.64990       15.5994           0 -0.904000      0.565000    
     24442 MEMB     135      POPE     DO32     DRUD     -1.64990      0.400000           0   0.00000       0.00000    
     24443 MEMB     135      POPE     C32      CD32C     2.24380       11.6110           0  -1.99300      0.410000    
     24444 MEMB     135      POPE     DC32     DRUD     -2.44980      0.400000           0   0.00000       0.00000    
     24445 MEMB     135      POPE     H2X      HDA2A    0.690000E-01   1.00800           0   0.00000       0.00000    
     24446 MEMB     135      POPE     H2Y      HDA2A    0.690000E-01   1.00800           0   0.00000       0.00000    
     24447 MEMB     135      POPE     LP1C     LPD     -0.349000       0.00000          -1   0.00000       0.00000    
     24448 MEMB     135      POPE     LP1D     LPD     -0.258000       0.00000          -1   0.00000       0.00000    
     24449 MEMB     135      POPE     LPMC     LPD     -0.170000       0.00000          -1   0.00000       0.00000    
     24450 MEMB     135      POPE     LPMD     LPD     -0.170000       0.00000          -1   0.00000       0.00000    
     24451 MEMB     135      POPE     C23      CD32A     2.07980       11.6110           0  -1.66000       1.30000    
     24452 MEMB     135      POPE     DC23     DRUD     -2.23580      0.400000           0   0.00000       0.00000    
     24453 MEMB     135      POPE     H3R      HDA2A    0.780000E-01   1.00800           0   0.00000       0.00000    
     24454 MEMB     135      POPE     H3S      HDA2A    0.780000E-01   1.00800           0   0.00000       0.00000    
     24455 MEMB     135      POPE     C24      CD32A     2.07980       11.6110           0  -1.66000       1.30000    
     24456 MEMB     135      POPE     DC24     DRUD     -2.23580      0.400000           0   0.00000       0.00000    
     24457 MEMB     135      POPE     H4R      HDA2A    0.780000E-01   1.00800           0   0.00000       0.00000    
     24458 MEMB     135      POPE     H4S      HDA2A    0.780000E-01   1.00800           0   0.00000       0.00000    
     24459 MEMB     135      POPE     C25      CD32A     2.07980       11.6110           0  -1.66000       1.30000    
     24460 MEMB     135      POPE     DC25     DRUD     -2.23580      0.400000           0   0.00000       0.00000    
     24461 MEMB     135      POPE     H5R      HDA2A    0.780000E-01   1.00800           0   0.00000       0.00000    
     24462 MEMB     135      POPE     H5S      HDA2A    0.780000E-01   1.00800           0   0.00000       0.00000    
     24463 MEMB     135      POPE     C26      CD32A     2.07980       11.6110           0  -1.66000       1.30000    
     24464 MEMB     135      POPE     DC26     DRUD     -2.23580      0.400000           0   0.00000       0.00000    
     24465 MEMB     135      POPE     H6R      HDA2A    0.780000E-01   1.00800           0   0.00000       0.00000    
     24466 MEMB     135      POPE     H6S      HDA2A    0.780000E-01   1.00800           0   0.00000       0.00000    
     24467 MEMB     135      POPE     C27      CD32A     2.07980       11.6110           0  -1.66000       1.30000    
     24468 MEMB     135      POPE     DC27     DRUD     -2.23580      0.400000           0   0.00000       0.00000    
     24469 MEMB     135      POPE     H7R      HDA2A    0.780000E-01   1.00800           0   0.00000       0.00000    
     24470 MEMB     135      POPE     H7S      HDA2A    0.780000E-01   1.00800           0   0.00000       0.00000    
     24471 MEMB     135      POPE     C28      CD32A     2.07980       11.6110           0  -1.66000       1.30000    
     24472 MEMB     135      POPE     DC28     DRUD     -2.23580      0.400000           0   0.00000       0.00000    
     24473 MEMB     135      POPE     H8R      HDA2A    0.780000E-01   1.00800           0   0.00000       0.00000    
     24474 MEMB     135      POPE     H8S      HDA2A    0.780000E-01   1.00800           0   0.00000       0.00000    
     24475 MEMB     135      POPE     C29      CD2C1A    2.33700       11.6110           0  -1.99000      0.750000    
     24476 MEMB     135      POPE     DC29     DRUD     -2.44800      0.400000           0   0.00000       0.00000    
     24477 MEMB     135      POPE     H91      HD2C1A   0.111000       1.00800           0   0.00000       0.00000    
     24478 MEMB     135      POPE     C210     CD2C1A    2.33700       11.6110           0  -1.99000      0.750000    
     24479 MEMB     135      POPE     DC210    DRUD     -2.44800      0.400000           0   0.00000       0.00000    
     24480 MEMB     135      POPE     H101     HD2C1A   0.111000       1.00800           0   0.00000       0.00000    
     24481 MEMB     135      POPE     C211     CD32A     2.07980       11.6110           0  -1.66000       1.30000    
     24482 MEMB     135      POPE     DC211    DRUD     -2.23580      0.400000           0   0.00000       0.00000    
     24483 MEMB     135      POPE     H11R     HDA2A    0.780000E-01   1.00800           0   0.00000       0.00000    
     24484 MEMB     135      POPE     H11S     HDA2A    0.780000E-01   1.00800           0   0.00000       0.00000    
     24485 MEMB     135      POPE     C212     CD32A     2.07980       11.6110           0  -1.66000       1.30000    
     24486 MEMB     135      POPE     DC212    DRUD     -2.23580      0.400000           0   0.00000       0.00000    
     24487 MEMB     135      POPE     H12R     HDA2A    0.780000E-01   1.00800           0   0.00000       0.00000    
     24488 MEMB     135      POPE     H12S     HDA2A    0.780000E-01   1.00800           0   0.00000       0.00000    
     24489 MEMB     135      POPE     C213     CD32A     2.07980       11.6110           0  -1.66000       1.30000    
     24490 MEMB     135      POPE     DC213    DRUD     -2.23580      0.400000           0   0.00000       0.00000    
     24491 MEMB     135      POPE     H13R     HDA2A    0.780000E-01   1.00800           0   0.00000       0.00000    
     24492 MEMB     135      POPE     H13S     HDA2A    0.780000E-01   1.00800           0   0.00000       0.00000    
     24493 MEMB     135      POPE     C214     CD32A     2.07980       11.6110           0  -1.66000       1.30000    
     24494 MEMB     135      POPE     DC214    DRUD     -2.23580      0.400000           0   0.00000       0.00000    
     24495 MEMB     135      POPE     H14R     HDA2A    0.780000E-01   1.00800           0   0.00000       0.00000    
     24496 MEMB     135      POPE     H14S     HDA2A    0.780000E-01   1.00800           0   0.00000       0.00000    
     24497 MEMB     135      POPE     C215     CD32A     2.07980       11.6110           0  -1.66000       1.30000    
     24498 MEMB     135      POPE     DC215    DRUD     -2.23580      0.400000           0   0.00000       0.00000    
     24499 MEMB     135      POPE     H15R     HDA2A    0.780000E-01   1.00800           0   0.00000       0.00000    
     24500 MEMB     135      POPE     H15S     HDA2A    0.780000E-01   1.00800           0   0.00000       0.00000    
     24501 MEMB     135      POPE     C216     CD32A     2.07980       11.6110           0  -1.66000       1.30000    
     24502 MEMB     135      POPE     DC216    DRUD     -2.23580      0.400000           0   0.00000       0.00000    
     24503 MEMB     135      POPE     H16R     HDA2A    0.780000E-01   1.00800           0   0.00000       0.00000    
     24504 MEMB     135      POPE     H16S     HDA2A    0.780000E-01   1.00800           0   0.00000       0.00000    
     24505 MEMB     135      POPE     C217     CD32A     2.07980       11.6110           0  -1.66000       1.30000    
     24506 MEMB     135      POPE     DC217    DRUD     -2.23580      0.400000           0   0.00000       0.00000    
     24507 MEMB     135      POPE     H17R     HDA2A    0.780000E-01   1.00800           0   0.00000       0.00000    
     24508 MEMB     135      POPE     H17S     HDA2A    0.780000E-01   1.00800           0   0.00000       0.00000    
     24509 MEMB     135      POPE     C218     CD33A     2.30820       11.6110           0  -2.05100       1.30000    
     24510 MEMB     135      POPE     DC218    DRUD     -2.48520      0.400000           0   0.00000       0.00000    
     24511 MEMB     135      POPE     H18R     HDA3A    0.590000E-01   1.00800           0   0.00000       0.00000    
     24512 MEMB     135      POPE     H18S     HDA3A    0.590000E-01   1.00800           0   0.00000       0.00000    
     24513 MEMB     135      POPE     H18T     HDA3A    0.590000E-01   1.00800           0   0.00000       0.00000    
     24514 MEMB     135      POPE     C33      CD32A     2.07980       11.6110           0  -1.66000       1.30000    
     24515 MEMB     135      POPE     DC33     DRUD     -2.23580      0.400000           0   0.00000       0.00000    
     24516 MEMB     135      POPE     H3X      HDA2A    0.780000E-01   1.00800           0   0.00000       0.00000    
     24517 MEMB     135      POPE     H3Y      HDA2A    0.780000E-01   1.00800           0   0.00000       0.00000    
     24518 MEMB     135      POPE     C34      CD32A     2.07980       11.6110           0  -1.66000       1.30000    
     24519 MEMB     135      POPE     DC34     DRUD     -2.23580      0.400000           0   0.00000       0.00000    
     24520 MEMB     135      POPE     H4X      HDA2A    0.780000E-01   1.00800           0   0.00000       0.00000    
     24521 MEMB     135      POPE     H4Y      HDA2A    0.780000E-01   1.00800           0   0.00000       0.00000    
     24522 MEMB     135      POPE     C35      CD32A     2.07980       11.6110           0  -1.66000       1.30000    
     24523 MEMB     135      POPE     DC35     DRUD     -2.23580      0.400000           0   0.00000       0.00000    
     24524 MEMB     135      POPE     H5X      HDA2A    0.780000E-01   1.00800           0   0.00000       0.00000    
     24525 MEMB     135      POPE     H5Y      HDA2A    0.780000E-01   1.00800           0   0.00000       0.00000    
     24526 MEMB     135      POPE     C36      CD32A     2.07980       11.6110           0  -1.66000       1.30000    
     24527 MEMB     135      POPE     DC36     DRUD     -2.23580      0.400000           0   0.00000       0.00000    
     24528 MEMB     135      POPE     H6X      HDA2A    0.780000E-01   1.00800           0   0.00000       0.00000    
     24529 MEMB     135      POPE     H6Y      HDA2A    0.780000E-01   1.00800           0   0.00000       0.00000    
     24530 MEMB     135      POPE     C37      CD32A     2.07980       11.6110           0  -1.66000       1.30000    
     24531 MEMB     135      POPE     DC37     DRUD     -2.23580      0.400000           0   0.00000       0.00000    
     24532 MEMB     135      POPE     H7X      HDA2A    0.780000E-01   1.00800           0   0.00000       0.00000    
     24533 MEMB     135      POPE     H7Y      HDA2A    0.780000E-01   1.00800           0   0.00000       0.00000    
     24534 MEMB     135      POPE     C38      CD32A     2.07980       11.6110           0  -1.66000       1.30000    
     24535 MEMB     135      POPE     DC38     DRUD     -2.23580      0.400000           0   0.00000       0.00000    
     24536 MEMB     135      POPE     H8X      HDA2A    0.780000E-01   1.00800           0   0.00000       0.00000    
     24537 MEMB     135      POPE     H8Y      HDA2A    0.780000E-01   1.00800           0   0.00000       0.00000    
     24538 MEMB     135      POPE     C39      CD32A     2.07980       11.6110           0  -1.66000       1.30000    
     24539 MEMB     135      POPE     DC39     DRUD     -2.23580      0.400000           0   0.00000       0.00000    
     24540 MEMB     135      POPE     H9X      HDA2A    0.780000E-01   1.00800           0   0.00000       0.00000    
     24541 MEMB     135      POPE     H9Y      HDA2A    0.780000E-01   1.00800           0   0.00000       0.00000    
     24542 MEMB     135      POPE     C310     CD32A     2.07980       11.6110           0  -1.66000       1.30000    
     24543 MEMB     135      POPE     DC310    DRUD     -2.23580      0.400000           0   0.00000       0.00000    
     24544 MEMB     135      POPE     H10X     HDA2A    0.780000E-01   1.00800           0   0.00000       0.00000    
     24545 MEMB     135      POPE     H10Y     HDA2A    0.780000E-01   1.00800           0   0.00000       0.00000    
     24546 MEMB     135      POPE     C311     CD32A     2.07980       11.6110           0  -1.66000       1.30000    
     24547 MEMB     135      POPE     DC311    DRUD     -2.23580      0.400000           0   0.00000       0.00000    
     24548 MEMB     135      POPE     H11X     HDA2A    0.780000E-01   1.00800           0   0.00000       0.00000    
     24549 MEMB     135      POPE     H11Y     HDA2A    0.780000E-01   1.00800           0   0.00000       0.00000    
     24550 MEMB     135      POPE     C312     CD32A     2.07980       11.6110           0  -1.66000       1.30000    
     24551 MEMB     135      POPE     DC312    DRUD     -2.23580      0.400000           0   0.00000       0.00000    
     24552 MEMB     135      POPE     H12X     HDA2A    0.780000E-01   1.00800           0   0.00000       0.00000    
     24553 MEMB     135      POPE     H12Y     HDA2A    0.780000E-01   1.00800           0   0.00000       0.00000    
     24554 MEMB     135      POPE     C313     CD32A     2.07980       11.6110           0  -1.66000       1.30000    
     24555 MEMB     135      POPE     DC313    DRUD     -2.23580      0.400000           0   0.00000       0.00000    
     24556 MEMB     135      POPE     H13X     HDA2A    0.780000E-01   1.00800           0   0.00000       0.00000    
     24557 MEMB     135      POPE     H13Y     HDA2A    0.780000E-01   1.00800           0   0.00000       0.00000    
     24558 MEMB     135      POPE     C314     CD32A     2.07980       11.6110           0  -1.66000       1.30000    
     24559 MEMB     135      POPE     DC314    DRUD     -2.23580      0.400000           0   0.00000       0.00000    
     24560 MEMB     135      POPE     H14X     HDA2A    0.780000E-01   1.00800           0   0.00000       0.00000    
     24561 MEMB     135      POPE     H14Y     HDA2A    0.780000E-01   1.00800           0   0.00000       0.00000    
     24562 MEMB     135      POPE     C315     CD32A     2.07980       11.6110           0  -1.66000       1.30000    
     24563 MEMB     135      POPE     DC315    DRUD     -2.23580      0.400000           0   0.00000       0.00000    
     24564 MEMB     135      POPE     H15X     HDA2A    0.780000E-01   1.00800           0   0.00000       0.00000    
     24565 MEMB     135      POPE     H15Y     HDA2A    0.780000E-01   1.00800           0   0.00000       0.00000    
     24566 MEMB     135      POPE     C316     CD33A     2.30820       11.6110           0  -2.05100       1.30000    
     24567 MEMB     135      POPE     DC316    DRUD     -2.48520      0.400000           0   0.00000       0.00000    
     24568 MEMB     135      POPE     H16X     HDA3A    0.590000E-01   1.00800           0   0.00000       0.00000    
     24569 MEMB     135      POPE     H16Y     HDA3A    0.590000E-01   1.00800           0   0.00000       0.00000    
     24570 MEMB     135      POPE     H16Z     HDA3A    0.590000E-01   1.00800           0   0.00000       0.00000    
     24571 MEMB     136      POPE     N        ND3P3A    1.62810       13.6070           0  -1.29800      0.895000    
     24572 MEMB     136      POPE     DN       DRUD     -1.97710      0.400000           0   0.00000       0.00000    
     24573 MEMB     136      POPE     HN1      HDP1B    0.340000       1.00800           0   0.00000       0.00000    
     24574 MEMB     136      POPE     HN2      HDP1B    0.340000       1.00800           0   0.00000       0.00000    
     24575 MEMB     136      POPE     HN3      HDP1B    0.340000       1.00800           0   0.00000       0.00000    
     24576 MEMB     136      POPE     C12      CD32A     2.27610       11.6110           0  -1.65600      0.895000    
     24577 MEMB     136      POPE     DC12     DRUD     -2.23310      0.400000           0   0.00000       0.00000    
     24578 MEMB     136      POPE     H12A     HDA2A    0.143000       1.00800           0   0.00000       0.00000    
     24579 MEMB     136      POPE     H12B     HDA2A    0.143000       1.00800           0   0.00000       0.00000    
     24580 MEMB     136      POPE     C11      CD32A     2.42220       11.6110           0  -1.64200      0.862000    
     24581 MEMB     136      POPE     DC11     DRUD     -2.22370      0.400000           0   0.00000       0.00000    
     24582 MEMB     136      POPE     H11A     HDA2A    0.260000E-01   1.00800           0   0.00000       0.00000    
     24583 MEMB     136      POPE     H11B     HDA2A    0.260000E-01   1.00800           0   0.00000       0.00000    
     24584 MEMB     136      POPE     P        PD1A      2.90360       30.5740           0 -0.974000       2.09800    
     24585 MEMB     136      POPE     DP       DRUD     -1.71260      0.400000           0   0.00000       0.00000    
     24586 MEMB     136      POPE     O13      OD2C2B   0.798400       15.5994           0 -0.931000       1.08300    
     24587 MEMB     136      POPE     DO13     DRUD     -1.67440      0.400000           0   0.00000       0.00000    
     24588 MEMB     136      POPE     O14      OD2C2B   0.798400       15.5994           0 -0.931000       1.08300    
     24589 MEMB     136      POPE     DO14     DRUD     -1.67440      0.400000           0   0.00000       0.00000    
     24590 MEMB     136      POPE     O11      OD30B     1.17720       15.5994           0 -0.901000      0.181000    
     24591 MEMB     136      POPE     DO11     DRUD     -1.64720      0.400000           0   0.00000       0.00000    
     24592 MEMB     136      POPE     O12      OD30B     1.17720       15.5994           0 -0.901000      0.181000    
     24593 MEMB     136      POPE     DO12     DRUD     -1.64720      0.400000           0   0.00000       0.00000    
     24594 MEMB     136      POPE     C1       CD32A     2.42220       11.6110           0  -1.64200      0.862000    
     24595 MEMB     136      POPE     DC1      DRUD     -2.22370      0.400000           0   0.00000       0.00000    
     24596 MEMB     136      POPE     HA       HDA2A    0.260000E-01   1.00800           0   0.00000       0.00000    
     24597 MEMB     136      POPE     HB       HDA2A    0.260000E-01   1.00800           0   0.00000       0.00000    
     24598 MEMB     136      POPE     C2       CD31C     2.52830       11.6110           0  -1.79700      0.410000    
     24599 MEMB     136      POPE     DC2      DRUD     -2.32630      0.400000           0   0.00000       0.00000    
     24600 MEMB     136      POPE     HS       HDA1A    0.116000       1.00800           0   0.00000       0.00000    
     24601 MEMB     136      POPE     O21      OD30CL    1.48470       15.5994           0 -0.732000      0.601000    
     24602 MEMB     136      POPE     DO21     DRUD     -1.48470      0.400000           0   0.00000       0.00000    
     24603 MEMB     136      POPE     C21      CD2O3B    2.72820       11.6110           0  -1.37000       1.74700    
     24604 MEMB     136      POPE     DC21     DRUD     -2.03120      0.400000           0   0.00000       0.00000    
     24605 MEMB     136      POPE     O22      OD2C3B    1.64990       15.5994           0 -0.904000      0.565000    
     24606 MEMB     136      POPE     DO22     DRUD     -1.64990      0.400000           0   0.00000       0.00000    
     24607 MEMB     136      POPE     C22      CD32C     2.24380       11.6110           0  -1.99300      0.410000    
     24608 MEMB     136      POPE     DC22     DRUD     -2.44980      0.400000           0   0.00000       0.00000    
     24609 MEMB     136      POPE     H2R      HDA2A    0.690000E-01   1.00800           0   0.00000       0.00000    
     24610 MEMB     136      POPE     H2S      HDA2A    0.690000E-01   1.00800           0   0.00000       0.00000    
     24611 MEMB     136      POPE     LP1A     LPD     -0.349000       0.00000          -1   0.00000       0.00000    
     24612 MEMB     136      POPE     LP1B     LPD     -0.258000       0.00000          -1   0.00000       0.00000    
     24613 MEMB     136      POPE     LPMA     LPD     -0.170000       0.00000          -1   0.00000       0.00000    
     24614 MEMB     136      POPE     LPMB     LPD     -0.170000       0.00000          -1   0.00000       0.00000    
     24615 MEMB     136      POPE     C3       CD32C     2.41230       11.6110           0  -1.79700      0.410000    
     24616 MEMB     136      POPE     DC3      DRUD     -2.32630      0.400000           0   0.00000       0.00000    
     24617 MEMB     136      POPE     HX       HDA2A    0.116000       1.00800           0   0.00000       0.00000    
     24618 MEMB     136      POPE     HY       HDA2A    0.116000       1.00800           0   0.00000       0.00000    
     24619 MEMB     136      POPE     O31      OD30CL    1.48470       15.5994           0 -0.732000      0.601000    
     24620 MEMB     136      POPE     DO31     DRUD     -1.48470      0.400000           0   0.00000       0.00000    
     24621 MEMB     136      POPE     C31      CD2O3B    2.72820       11.6110           0  -1.37000       1.74700    
     24622 MEMB     136      POPE     DC31     DRUD     -2.03120      0.400000           0   0.00000       0.00000    
     24623 MEMB     136      POPE     O32      OD2C3B    1.64990       15.5994           0 -0.904000      0.565000    
     24624 MEMB     136      POPE     DO32     DRUD     -1.64990      0.400000           0   0.00000       0.00000    
     24625 MEMB     136      POPE     C32      CD32C     2.24380       11.6110           0  -1.99300      0.410000    
     24626 MEMB     136      POPE     DC32     DRUD     -2.44980      0.400000           0   0.00000       0.00000    
     24627 MEMB     136      POPE     H2X      HDA2A    0.690000E-01   1.00800           0   0.00000       0.00000    
     24628 MEMB     136      POPE     H2Y      HDA2A    0.690000E-01   1.00800           0   0.00000       0.00000    
     24629 MEMB     136      POPE     LP1C     LPD     -0.349000       0.00000          -1   0.00000       0.00000    
     24630 MEMB     136      POPE     LP1D     LPD     -0.258000       0.00000          -1   0.00000       0.00000    
     24631 MEMB     136      POPE     LPMC     LPD     -0.170000       0.00000          -1   0.00000       0.00000    
     24632 MEMB     136      POPE     LPMD     LPD     -0.170000       0.00000          -1   0.00000       0.00000    
     24633 MEMB     136      POPE     C23      CD32A     2.07980       11.6110           0  -1.66000       1.30000    
     24634 MEMB     136      POPE     DC23     DRUD     -2.23580      0.400000           0   0.00000       0.00000    
     24635 MEMB     136      POPE     H3R      HDA2A    0.780000E-01   1.00800           0   0.00000       0.00000    
     24636 MEMB     136      POPE     H3S      HDA2A    0.780000E-01   1.00800           0   0.00000       0.00000    
     24637 MEMB     136      POPE     C24      CD32A     2.07980       11.6110           0  -1.66000       1.30000    
     24638 MEMB     136      POPE     DC24     DRUD     -2.23580      0.400000           0   0.00000       0.00000    
     24639 MEMB     136      POPE     H4R      HDA2A    0.780000E-01   1.00800           0   0.00000       0.00000    
     24640 MEMB     136      POPE     H4S      HDA2A    0.780000E-01   1.00800           0   0.00000       0.00000    
     24641 MEMB     136      POPE     C25      CD32A     2.07980       11.6110           0  -1.66000       1.30000    
     24642 MEMB     136      POPE     DC25     DRUD     -2.23580      0.400000           0   0.00000       0.00000    
     24643 MEMB     136      POPE     H5R      HDA2A    0.780000E-01   1.00800           0   0.00000       0.00000    
     24644 MEMB     136      POPE     H5S      HDA2A    0.780000E-01   1.00800           0   0.00000       0.00000    
     24645 MEMB     136      POPE     C26      CD32A     2.07980       11.6110           0  -1.66000       1.30000    
     24646 MEMB     136      POPE     DC26     DRUD     -2.23580      0.400000           0   0.00000       0.00000    
     24647 MEMB     136      POPE     H6R      HDA2A    0.780000E-01   1.00800           0   0.00000       0.00000    
     24648 MEMB     136      POPE     H6S      HDA2A    0.780000E-01   1.00800           0   0.00000       0.00000    
     24649 MEMB     136      POPE     C27      CD32A     2.07980       11.6110           0  -1.66000       1.30000    
     24650 MEMB     136      POPE     DC27     DRUD     -2.23580      0.400000           0   0.00000       0.00000    
     24651 MEMB     136      POPE     H7R      HDA2A    0.780000E-01   1.00800           0   0.00000       0.00000    
     24652 MEMB     136      POPE     H7S      HDA2A    0.780000E-01   1.00800           0   0.00000       0.00000    
     24653 MEMB     136      POPE     C28      CD32A     2.07980       11.6110           0  -1.66000       1.30000    
     24654 MEMB     136      POPE     DC28     DRUD     -2.23580      0.400000           0   0.00000       0.00000    
     24655 MEMB     136      POPE     H8R      HDA2A    0.780000E-01   1.00800           0   0.00000       0.00000    
     24656 MEMB     136      POPE     H8S      HDA2A    0.780000E-01   1.00800           0   0.00000       0.00000    
     24657 MEMB     136      POPE     C29      CD2C1A    2.33700       11.6110           0  -1.99000      0.750000    
     24658 MEMB     136      POPE     DC29     DRUD     -2.44800      0.400000           0   0.00000       0.00000    
     24659 MEMB     136      POPE     H91      HD2C1A   0.111000       1.00800           0   0.00000       0.00000    
     24660 MEMB     136      POPE     C210     CD2C1A    2.33700       11.6110           0  -1.99000      0.750000    
     24661 MEMB     136      POPE     DC210    DRUD     -2.44800      0.400000           0   0.00000       0.00000    
     24662 MEMB     136      POPE     H101     HD2C1A   0.111000       1.00800           0   0.00000       0.00000    
     24663 MEMB     136      POPE     C211     CD32A     2.07980       11.6110           0  -1.66000       1.30000    
     24664 MEMB     136      POPE     DC211    DRUD     -2.23580      0.400000           0   0.00000       0.00000    
     24665 MEMB     136      POPE     H11R     HDA2A    0.780000E-01   1.00800           0   0.00000       0.00000    
     24666 MEMB     136      POPE     H11S     HDA2A    0.780000E-01   1.00800           0   0.00000       0.00000    
     24667 MEMB     136      POPE     C212     CD32A     2.07980       11.6110           0  -1.66000       1.30000    
     24668 MEMB     136      POPE     DC212    DRUD     -2.23580      0.400000           0   0.00000       0.00000    
     24669 MEMB     136      POPE     H12R     HDA2A    0.780000E-01   1.00800           0   0.00000       0.00000    
     24670 MEMB     136      POPE     H12S     HDA2A    0.780000E-01   1.00800           0   0.00000       0.00000    
     24671 MEMB     136      POPE     C213     CD32A     2.07980       11.6110           0  -1.66000       1.30000    
     24672 MEMB     136      POPE     DC213    DRUD     -2.23580      0.400000           0   0.00000       0.00000    
     24673 MEMB     136      POPE     H13R     HDA2A    0.780000E-01   1.00800           0   0.00000       0.00000    
     24674 MEMB     136      POPE     H13S     HDA2A    0.780000E-01   1.00800           0   0.00000       0.00000    
     24675 MEMB     136      POPE     C214     CD32A     2.07980       11.6110           0  -1.66000       1.30000    
     24676 MEMB     136      POPE     DC214    DRUD     -2.23580      0.400000           0   0.00000       0.00000    
     24677 MEMB     136      POPE     H14R     HDA2A    0.780000E-01   1.00800           0   0.00000       0.00000    
     24678 MEMB     136      POPE     H14S     HDA2A    0.780000E-01   1.00800           0   0.00000       0.00000    
     24679 MEMB     136      POPE     C215     CD32A     2.07980       11.6110           0  -1.66000       1.30000    
     24680 MEMB     136      POPE     DC215    DRUD     -2.23580      0.400000           0   0.00000       0.00000    
     24681 MEMB     136      POPE     H15R     HDA2A    0.780000E-01   1.00800           0   0.00000       0.00000    
     24682 MEMB     136      POPE     H15S     HDA2A    0.780000E-01   1.00800           0   0.00000       0.00000    
     24683 MEMB     136      POPE     C216     CD32A     2.07980       11.6110           0  -1.66000       1.30000    
     24684 MEMB     136      POPE     DC216    DRUD     -2.23580      0.400000           0   0.00000       0.00000    
     24685 MEMB     136      POPE     H16R     HDA2A    0.780000E-01   1.00800           0   0.00000       0.00000    
     24686 MEMB     136      POPE     H16S     HDA2A    0.780000E-01   1.00800           0   0.00000       0.00000    
     24687 MEMB     136      POPE     C217     CD32A     2.07980       11.6110           0  -1.66000       1.30000    
     24688 MEMB     136      POPE     DC217    DRUD     -2.23580      0.400000           0   0.00000       0.00000    
     24689 MEMB     136      POPE     H17R     HDA2A    0.780000E-01   1.00800           0   0.00000       0.00000    
     24690 MEMB     136      POPE     H17S     HDA2A    0.780000E-01   1.00800           0   0.00000       0.00000    
     24691 MEMB     136      POPE     C218     CD33A     2.30820       11.6110           0  -2.05100       1.30000    
     24692 MEMB     136      POPE     DC218    DRUD     -2.48520      0.400000           0   0.00000       0.00000    
     24693 MEMB     136      POPE     H18R     HDA3A    0.590000E-01   1.00800           0   0.00000       0.00000    
     24694 MEMB     136      POPE     H18S     HDA3A    0.590000E-01   1.00800           0   0.00000       0.00000    
     24695 MEMB     136      POPE     H18T     HDA3A    0.590000E-01   1.00800           0   0.00000       0.00000    
     24696 MEMB     136      POPE     C33      CD32A     2.07980       11.6110           0  -1.66000       1.30000    
     24697 MEMB     136      POPE     DC33     DRUD     -2.23580      0.400000           0   0.00000       0.00000    
     24698 MEMB     136      POPE     H3X      HDA2A    0.780000E-01   1.00800           0   0.00000       0.00000    
     24699 MEMB     136      POPE     H3Y      HDA2A    0.780000E-01   1.00800           0   0.00000       0.00000    
     24700 MEMB     136      POPE     C34      CD32A     2.07980       11.6110           0  -1.66000       1.30000    
     24701 MEMB     136      POPE     DC34     DRUD     -2.23580      0.400000           0   0.00000       0.00000    
     24702 MEMB     136      POPE     H4X      HDA2A    0.780000E-01   1.00800           0   0.00000       0.00000    
     24703 MEMB     136      POPE     H4Y      HDA2A    0.780000E-01   1.00800           0   0.00000       0.00000    
     24704 MEMB     136      POPE     C35      CD32A     2.07980       11.6110           0  -1.66000       1.30000    
     24705 MEMB     136      POPE     DC35     DRUD     -2.23580      0.400000           0   0.00000       0.00000    
     24706 MEMB     136      POPE     H5X      HDA2A    0.780000E-01   1.00800           0   0.00000       0.00000    
     24707 MEMB     136      POPE     H5Y      HDA2A    0.780000E-01   1.00800           0   0.00000       0.00000    
     24708 MEMB     136      POPE     C36      CD32A     2.07980       11.6110           0  -1.66000       1.30000    
     24709 MEMB     136      POPE     DC36     DRUD     -2.23580      0.400000           0   0.00000       0.00000    
     24710 MEMB     136      POPE     H6X      HDA2A    0.780000E-01   1.00800           0   0.00000       0.00000    
     24711 MEMB     136      POPE     H6Y      HDA2A    0.780000E-01   1.00800           0   0.00000       0.00000    
     24712 MEMB     136      POPE     C37      CD32A     2.07980       11.6110           0  -1.66000       1.30000    
     24713 MEMB     136      POPE     DC37     DRUD     -2.23580      0.400000           0   0.00000       0.00000    
     24714 MEMB     136      POPE     H7X      HDA2A    0.780000E-01   1.00800           0   0.00000       0.00000    
     24715 MEMB     136      POPE     H7Y      HDA2A    0.780000E-01   1.00800           0   0.00000       0.00000    
     24716 MEMB     136      POPE     C38      CD32A     2.07980       11.6110           0  -1.66000       1.30000    
     24717 MEMB     136      POPE     DC38     DRUD     -2.23580      0.400000           0   0.00000       0.00000    
     24718 MEMB     136      POPE     H8X      HDA2A    0.780000E-01   1.00800           0   0.00000       0.00000    
     24719 MEMB     136      POPE     H8Y      HDA2A    0.780000E-01   1.00800           0   0.00000       0.00000    
     24720 MEMB     136      POPE     C39      CD32A     2.07980       11.6110           0  -1.66000       1.30000    
     24721 MEMB     136      POPE     DC39     DRUD     -2.23580      0.400000           0   0.00000       0.00000    
     24722 MEMB     136      POPE     H9X      HDA2A    0.780000E-01   1.00800           0   0.00000       0.00000    
     24723 MEMB     136      POPE     H9Y      HDA2A    0.780000E-01   1.00800           0   0.00000       0.00000    
     24724 MEMB     136      POPE     C310     CD32A     2.07980       11.6110           0  -1.66000       1.30000    
     24725 MEMB     136      POPE     DC310    DRUD     -2.23580      0.400000           0   0.00000       0.00000    
     24726 MEMB     136      POPE     H10X     HDA2A    0.780000E-01   1.00800           0   0.00000       0.00000    
     24727 MEMB     136      POPE     H10Y     HDA2A    0.780000E-01   1.00800           0   0.00000       0.00000    
     24728 MEMB     136      POPE     C311     CD32A     2.07980       11.6110           0  -1.66000       1.30000    
     24729 MEMB     136      POPE     DC311    DRUD     -2.23580      0.400000           0   0.00000       0.00000    
     24730 MEMB     136      POPE     H11X     HDA2A    0.780000E-01   1.00800           0   0.00000       0.00000    
     24731 MEMB     136      POPE     H11Y     HDA2A    0.780000E-01   1.00800           0   0.00000       0.00000    
     24732 MEMB     136      POPE     C312     CD32A     2.07980       11.6110           0  -1.66000       1.30000    
     24733 MEMB     136      POPE     DC312    DRUD     -2.23580      0.400000           0   0.00000       0.00000    
     24734 MEMB     136      POPE     H12X     HDA2A    0.780000E-01   1.00800           0   0.00000       0.00000    
     24735 MEMB     136      POPE     H12Y     HDA2A    0.780000E-01   1.00800           0   0.00000       0.00000    
     24736 MEMB     136      POPE     C313     CD32A     2.07980       11.6110           0  -1.66000       1.30000    
     24737 MEMB     136      POPE     DC313    DRUD     -2.23580      0.400000           0   0.00000       0.00000    
     24738 MEMB     136      POPE     H13X     HDA2A    0.780000E-01   1.00800           0   0.00000       0.00000    
     24739 MEMB     136      POPE     H13Y     HDA2A    0.780000E-01   1.00800           0   0.00000       0.00000    
     24740 MEMB     136      POPE     C314     CD32A     2.07980       11.6110           0  -1.66000       1.30000    
     24741 MEMB     136      POPE     DC314    DRUD     -2.23580      0.400000           0   0.00000       0.00000    
     24742 MEMB     136      POPE     H14X     HDA2A    0.780000E-01   1.00800           0   0.00000       0.00000    
     24743 MEMB     136      POPE     H14Y     HDA2A    0.780000E-01   1.00800           0   0.00000       0.00000    
     24744 MEMB     136      POPE     C315     CD32A     2.07980       11.6110           0  -1.66000       1.30000    
     24745 MEMB     136      POPE     DC315    DRUD     -2.23580      0.400000           0   0.00000       0.00000    
     24746 MEMB     136      POPE     H15X     HDA2A    0.780000E-01   1.00800           0   0.00000       0.00000    
     24747 MEMB     136      POPE     H15Y     HDA2A    0.780000E-01   1.00800           0   0.00000       0.00000    
     24748 MEMB     136      POPE     C316     CD33A     2.30820       11.6110           0  -2.05100       1.30000    
     24749 MEMB     136      POPE     DC316    DRUD     -2.48520      0.400000           0   0.00000       0.00000    
     24750 MEMB     136      POPE     H16X     HDA3A    0.590000E-01   1.00800           0   0.00000       0.00000    
     24751 MEMB     136      POPE     H16Y     HDA3A    0.590000E-01   1.00800           0   0.00000       0.00000    
     24752 MEMB     136      POPE     H16Z     HDA3A    0.590000E-01   1.00800           0   0.00000       0.00000    
     24753 MEMB     137      POPE     N        ND3P3A    1.62810       13.6070           0  -1.29800      0.895000    
     24754 MEMB     137      POPE     DN       DRUD     -1.97710      0.400000           0   0.00000       0.00000    
     24755 MEMB     137      POPE     HN1      HDP1B    0.340000       1.00800           0   0.00000       0.00000    
     24756 MEMB     137      POPE     HN2      HDP1B    0.340000       1.00800           0   0.00000       0.00000    
     24757 MEMB     137      POPE     HN3      HDP1B    0.340000       1.00800           0   0.00000       0.00000    
     24758 MEMB     137      POPE     C12      CD32A     2.27610       11.6110           0  -1.65600      0.895000    
     24759 MEMB     137      POPE     DC12     DRUD     -2.23310      0.400000           0   0.00000       0.00000    
     24760 MEMB     137      POPE     H12A     HDA2A    0.143000       1.00800           0   0.00000       0.00000    
     24761 MEMB     137      POPE     H12B     HDA2A    0.143000       1.00800           0   0.00000       0.00000    
     24762 MEMB     137      POPE     C11      CD32A     2.42220       11.6110           0  -1.64200      0.862000    
     24763 MEMB     137      POPE     DC11     DRUD     -2.22370      0.400000           0   0.00000       0.00000    
     24764 MEMB     137      POPE     H11A     HDA2A    0.260000E-01   1.00800           0   0.00000       0.00000    
     24765 MEMB     137      POPE     H11B     HDA2A    0.260000E-01   1.00800           0   0.00000       0.00000    
     24766 MEMB     137      POPE     P        PD1A      2.90360       30.5740           0 -0.974000       2.09800    
     24767 MEMB     137      POPE     DP       DRUD     -1.71260      0.400000           0   0.00000       0.00000    
     24768 MEMB     137      POPE     O13      OD2C2B   0.798400       15.5994           0 -0.931000       1.08300    
     24769 MEMB     137      POPE     DO13     DRUD     -1.67440      0.400000           0   0.00000       0.00000    
     24770 MEMB     137      POPE     O14      OD2C2B   0.798400       15.5994           0 -0.931000       1.08300    
     24771 MEMB     137      POPE     DO14     DRUD     -1.67440      0.400000           0   0.00000       0.00000    
     24772 MEMB     137      POPE     O11      OD30B     1.17720       15.5994           0 -0.901000      0.181000    
     24773 MEMB     137      POPE     DO11     DRUD     -1.64720      0.400000           0   0.00000       0.00000    
     24774 MEMB     137      POPE     O12      OD30B     1.17720       15.5994           0 -0.901000      0.181000    
     24775 MEMB     137      POPE     DO12     DRUD     -1.64720      0.400000           0   0.00000       0.00000    
     24776 MEMB     137      POPE     C1       CD32A     2.42220       11.6110           0  -1.64200      0.862000    
     24777 MEMB     137      POPE     DC1      DRUD     -2.22370      0.400000           0   0.00000       0.00000    
     24778 MEMB     137      POPE     HA       HDA2A    0.260000E-01   1.00800           0   0.00000       0.00000    
     24779 MEMB     137      POPE     HB       HDA2A    0.260000E-01   1.00800           0   0.00000       0.00000    
     24780 MEMB     137      POPE     C2       CD31C     2.52830       11.6110           0  -1.79700      0.410000    
     24781 MEMB     137      POPE     DC2      DRUD     -2.32630      0.400000           0   0.00000       0.00000    
     24782 MEMB     137      POPE     HS       HDA1A    0.116000       1.00800           0   0.00000       0.00000    
     24783 MEMB     137      POPE     O21      OD30CL    1.48470       15.5994           0 -0.732000      0.601000    
     24784 MEMB     137      POPE     DO21     DRUD     -1.48470      0.400000           0   0.00000       0.00000    
     24785 MEMB     137      POPE     C21      CD2O3B    2.72820       11.6110           0  -1.37000       1.74700    
     24786 MEMB     137      POPE     DC21     DRUD     -2.03120      0.400000           0   0.00000       0.00000    
     24787 MEMB     137      POPE     O22      OD2C3B    1.64990       15.5994           0 -0.904000      0.565000    
     24788 MEMB     137      POPE     DO22     DRUD     -1.64990      0.400000           0   0.00000       0.00000    
     24789 MEMB     137      POPE     C22      CD32C     2.24380       11.6110           0  -1.99300      0.410000    
     24790 MEMB     137      POPE     DC22     DRUD     -2.44980      0.400000           0   0.00000       0.00000    
     24791 MEMB     137      POPE     H2R      HDA2A    0.690000E-01   1.00800           0   0.00000       0.00000    
     24792 MEMB     137      POPE     H2S      HDA2A    0.690000E-01   1.00800           0   0.00000       0.00000    
     24793 MEMB     137      POPE     LP1A     LPD     -0.349000       0.00000          -1   0.00000       0.00000    
     24794 MEMB     137      POPE     LP1B     LPD     -0.258000       0.00000          -1   0.00000       0.00000    
     24795 MEMB     137      POPE     LPMA     LPD     -0.170000       0.00000          -1   0.00000       0.00000    
     24796 MEMB     137      POPE     LPMB     LPD     -0.170000       0.00000          -1   0.00000       0.00000    
     24797 MEMB     137      POPE     C3       CD32C     2.41230       11.6110           0  -1.79700      0.410000    
     24798 MEMB     137      POPE     DC3      DRUD     -2.32630      0.400000           0   0.00000       0.00000    
     24799 MEMB     137      POPE     HX       HDA2A    0.116000       1.00800           0   0.00000       0.00000    
     24800 MEMB     137      POPE     HY       HDA2A    0.116000       1.00800           0   0.00000       0.00000    
     24801 MEMB     137      POPE     O31      OD30CL    1.48470       15.5994           0 -0.732000      0.601000    
     24802 MEMB     137      POPE     DO31     DRUD     -1.48470      0.400000           0   0.00000       0.00000    
     24803 MEMB     137      POPE     C31      CD2O3B    2.72820       11.6110           0  -1.37000       1.74700    
     24804 MEMB     137      POPE     DC31     DRUD     -2.03120      0.400000           0   0.00000       0.00000    
     24805 MEMB     137      POPE     O32      OD2C3B    1.64990       15.5994           0 -0.904000      0.565000    
     24806 MEMB     137      POPE     DO32     DRUD     -1.64990      0.400000           0   0.00000       0.00000    
     24807 MEMB     137      POPE     C32      CD32C     2.24380       11.6110           0  -1.99300      0.410000    
     24808 MEMB     137      POPE     DC32     DRUD     -2.44980      0.400000           0   0.00000       0.00000    
     24809 MEMB     137      POPE     H2X      HDA2A    0.690000E-01   1.00800           0   0.00000       0.00000    
     24810 MEMB     137      POPE     H2Y      HDA2A    0.690000E-01   1.00800           0   0.00000       0.00000    
     24811 MEMB     137      POPE     LP1C     LPD     -0.349000       0.00000          -1   0.00000       0.00000    
     24812 MEMB     137      POPE     LP1D     LPD     -0.258000       0.00000          -1   0.00000       0.00000    
     24813 MEMB     137      POPE     LPMC     LPD     -0.170000       0.00000          -1   0.00000       0.00000    
     24814 MEMB     137      POPE     LPMD     LPD     -0.170000       0.00000          -1   0.00000       0.00000    
     24815 MEMB     137      POPE     C23      CD32A     2.07980       11.6110           0  -1.66000       1.30000    
     24816 MEMB     137      POPE     DC23     DRUD     -2.23580      0.400000           0   0.00000       0.00000    
     24817 MEMB     137      POPE     H3R      HDA2A    0.780000E-01   1.00800           0   0.00000       0.00000    
     24818 MEMB     137      POPE     H3S      HDA2A    0.780000E-01   1.00800           0   0.00000       0.00000    
     24819 MEMB     137      POPE     C24      CD32A     2.07980       11.6110           0  -1.66000       1.30000    
     24820 MEMB     137      POPE     DC24     DRUD     -2.23580      0.400000           0   0.00000       0.00000    
     24821 MEMB     137      POPE     H4R      HDA2A    0.780000E-01   1.00800           0   0.00000       0.00000    
     24822 MEMB     137      POPE     H4S      HDA2A    0.780000E-01   1.00800           0   0.00000       0.00000    
     24823 MEMB     137      POPE     C25      CD32A     2.07980       11.6110           0  -1.66000       1.30000    
     24824 MEMB     137      POPE     DC25     DRUD     -2.23580      0.400000           0   0.00000       0.00000    
     24825 MEMB     137      POPE     H5R      HDA2A    0.780000E-01   1.00800           0   0.00000       0.00000    
     24826 MEMB     137      POPE     H5S      HDA2A    0.780000E-01   1.00800           0   0.00000       0.00000    
     24827 MEMB     137      POPE     C26      CD32A     2.07980       11.6110           0  -1.66000       1.30000    
     24828 MEMB     137      POPE     DC26     DRUD     -2.23580      0.400000           0   0.00000       0.00000    
     24829 MEMB     137      POPE     H6R      HDA2A    0.780000E-01   1.00800           0   0.00000       0.00000    
     24830 MEMB     137      POPE     H6S      HDA2A    0.780000E-01   1.00800           0   0.00000       0.00000    
     24831 MEMB     137      POPE     C27      CD32A     2.07980       11.6110           0  -1.66000       1.30000    
     24832 MEMB     137      POPE     DC27     DRUD     -2.23580      0.400000           0   0.00000       0.00000    
     24833 MEMB     137      POPE     H7R      HDA2A    0.780000E-01   1.00800           0   0.00000       0.00000    
     24834 MEMB     137      POPE     H7S      HDA2A    0.780000E-01   1.00800           0   0.00000       0.00000    
     24835 MEMB     137      POPE     C28      CD32A     2.07980       11.6110           0  -1.66000       1.30000    
     24836 MEMB     137      POPE     DC28     DRUD     -2.23580      0.400000           0   0.00000       0.00000    
     24837 MEMB     137      POPE     H8R      HDA2A    0.780000E-01   1.00800           0   0.00000       0.00000    
     24838 MEMB     137      POPE     H8S      HDA2A    0.780000E-01   1.00800           0   0.00000       0.00000    
     24839 MEMB     137      POPE     C29      CD2C1A    2.33700       11.6110           0  -1.99000      0.750000    
     24840 MEMB     137      POPE     DC29     DRUD     -2.44800      0.400000           0   0.00000       0.00000    
     24841 MEMB     137      POPE     H91      HD2C1A   0.111000       1.00800           0   0.00000       0.00000    
     24842 MEMB     137      POPE     C210     CD2C1A    2.33700       11.6110           0  -1.99000      0.750000    
     24843 MEMB     137      POPE     DC210    DRUD     -2.44800      0.400000           0   0.00000       0.00000    
     24844 MEMB     137      POPE     H101     HD2C1A   0.111000       1.00800           0   0.00000       0.00000    
     24845 MEMB     137      POPE     C211     CD32A     2.07980       11.6110           0  -1.66000       1.30000    
     24846 MEMB     137      POPE     DC211    DRUD     -2.23580      0.400000           0   0.00000       0.00000    
     24847 MEMB     137      POPE     H11R     HDA2A    0.780000E-01   1.00800           0   0.00000       0.00000    
     24848 MEMB     137      POPE     H11S     HDA2A    0.780000E-01   1.00800           0   0.00000       0.00000    
     24849 MEMB     137      POPE     C212     CD32A     2.07980       11.6110           0  -1.66000       1.30000    
     24850 MEMB     137      POPE     DC212    DRUD     -2.23580      0.400000           0   0.00000       0.00000    
     24851 MEMB     137      POPE     H12R     HDA2A    0.780000E-01   1.00800           0   0.00000       0.00000    
     24852 MEMB     137      POPE     H12S     HDA2A    0.780000E-01   1.00800           0   0.00000       0.00000    
     24853 MEMB     137      POPE     C213     CD32A     2.07980       11.6110           0  -1.66000       1.30000    
     24854 MEMB     137      POPE     DC213    DRUD     -2.23580      0.400000           0   0.00000       0.00000    
     24855 MEMB     137      POPE     H13R     HDA2A    0.780000E-01   1.00800           0   0.00000       0.00000    
     24856 MEMB     137      POPE     H13S     HDA2A    0.780000E-01   1.00800           0   0.00000       0.00000    
     24857 MEMB     137      POPE     C214     CD32A     2.07980       11.6110           0  -1.66000       1.30000    
     24858 MEMB     137      POPE     DC214    DRUD     -2.23580      0.400000           0   0.00000       0.00000    
     24859 MEMB     137      POPE     H14R     HDA2A    0.780000E-01   1.00800           0   0.00000       0.00000    
     24860 MEMB     137      POPE     H14S     HDA2A    0.780000E-01   1.00800           0   0.00000       0.00000    
     24861 MEMB     137      POPE     C215     CD32A     2.07980       11.6110           0  -1.66000       1.30000    
     24862 MEMB     137      POPE     DC215    DRUD     -2.23580      0.400000           0   0.00000       0.00000    
     24863 MEMB     137      POPE     H15R     HDA2A    0.780000E-01   1.00800           0   0.00000       0.00000    
     24864 MEMB     137      POPE     H15S     HDA2A    0.780000E-01   1.00800           0   0.00000       0.00000    
     24865 MEMB     137      POPE     C216     CD32A     2.07980       11.6110           0  -1.66000       1.30000    
     24866 MEMB     137      POPE     DC216    DRUD     -2.23580      0.400000           0   0.00000       0.00000    
     24867 MEMB     137      POPE     H16R     HDA2A    0.780000E-01   1.00800           0   0.00000       0.00000    
     24868 MEMB     137      POPE     H16S     HDA2A    0.780000E-01   1.00800           0   0.00000       0.00000    
     24869 MEMB     137      POPE     C217     CD32A     2.07980       11.6110           0  -1.66000       1.30000    
     24870 MEMB     137      POPE     DC217    DRUD     -2.23580      0.400000           0   0.00000       0.00000    
     24871 MEMB     137      POPE     H17R     HDA2A    0.780000E-01   1.00800           0   0.00000       0.00000    
     24872 MEMB     137      POPE     H17S     HDA2A    0.780000E-01   1.00800           0   0.00000       0.00000    
     24873 MEMB     137      POPE     C218     CD33A     2.30820       11.6110           0  -2.05100       1.30000    
     24874 MEMB     137      POPE     DC218    DRUD     -2.48520      0.400000           0   0.00000       0.00000    
     24875 MEMB     137      POPE     H18R     HDA3A    0.590000E-01   1.00800           0   0.00000       0.00000    
     24876 MEMB     137      POPE     H18S     HDA3A    0.590000E-01   1.00800           0   0.00000       0.00000    
     24877 MEMB     137      POPE     H18T     HDA3A    0.590000E-01   1.00800           0   0.00000       0.00000    
     24878 MEMB     137      POPE     C33      CD32A     2.07980       11.6110           0  -1.66000       1.30000    
     24879 MEMB     137      POPE     DC33     DRUD     -2.23580      0.400000           0   0.00000       0.00000    
     24880 MEMB     137      POPE     H3X      HDA2A    0.780000E-01   1.00800           0   0.00000       0.00000    
     24881 MEMB     137      POPE     H3Y      HDA2A    0.780000E-01   1.00800           0   0.00000       0.00000    
     24882 MEMB     137      POPE     C34      CD32A     2.07980       11.6110           0  -1.66000       1.30000    
     24883 MEMB     137      POPE     DC34     DRUD     -2.23580      0.400000           0   0.00000       0.00000    
     24884 MEMB     137      POPE     H4X      HDA2A    0.780000E-01   1.00800           0   0.00000       0.00000    
     24885 MEMB     137      POPE     H4Y      HDA2A    0.780000E-01   1.00800           0   0.00000       0.00000    
     24886 MEMB     137      POPE     C35      CD32A     2.07980       11.6110           0  -1.66000       1.30000    
     24887 MEMB     137      POPE     DC35     DRUD     -2.23580      0.400000           0   0.00000       0.00000    
     24888 MEMB     137      POPE     H5X      HDA2A    0.780000E-01   1.00800           0   0.00000       0.00000    
     24889 MEMB     137      POPE     H5Y      HDA2A    0.780000E-01   1.00800           0   0.00000       0.00000    
     24890 MEMB     137      POPE     C36      CD32A     2.07980       11.6110           0  -1.66000       1.30000    
     24891 MEMB     137      POPE     DC36     DRUD     -2.23580      0.400000           0   0.00000       0.00000    
     24892 MEMB     137      POPE     H6X      HDA2A    0.780000E-01   1.00800           0   0.00000       0.00000    
     24893 MEMB     137      POPE     H6Y      HDA2A    0.780000E-01   1.00800           0   0.00000       0.00000    
     24894 MEMB     137      POPE     C37      CD32A     2.07980       11.6110           0  -1.66000       1.30000    
     24895 MEMB     137      POPE     DC37     DRUD     -2.23580      0.400000           0   0.00000       0.00000    
     24896 MEMB     137      POPE     H7X      HDA2A    0.780000E-01   1.00800           0   0.00000       0.00000    
     24897 MEMB     137      POPE     H7Y      HDA2A    0.780000E-01   1.00800           0   0.00000       0.00000    
     24898 MEMB     137      POPE     C38      CD32A     2.07980       11.6110           0  -1.66000       1.30000    
     24899 MEMB     137      POPE     DC38     DRUD     -2.23580      0.400000           0   0.00000       0.00000    
     24900 MEMB     137      POPE     H8X      HDA2A    0.780000E-01   1.00800           0   0.00000       0.00000    
     24901 MEMB     137      POPE     H8Y      HDA2A    0.780000E-01   1.00800           0   0.00000       0.00000    
     24902 MEMB     137      POPE     C39      CD32A     2.07980       11.6110           0  -1.66000       1.30000    
     24903 MEMB     137      POPE     DC39     DRUD     -2.23580      0.400000           0   0.00000       0.00000    
     24904 MEMB     137      POPE     H9X      HDA2A    0.780000E-01   1.00800           0   0.00000       0.00000    
     24905 MEMB     137      POPE     H9Y      HDA2A    0.780000E-01   1.00800           0   0.00000       0.00000    
     24906 MEMB     137      POPE     C310     CD32A     2.07980       11.6110           0  -1.66000       1.30000    
     24907 MEMB     137      POPE     DC310    DRUD     -2.23580      0.400000           0   0.00000       0.00000    
     24908 MEMB     137      POPE     H10X     HDA2A    0.780000E-01   1.00800           0   0.00000       0.00000    
     24909 MEMB     137      POPE     H10Y     HDA2A    0.780000E-01   1.00800           0   0.00000       0.00000    
     24910 MEMB     137      POPE     C311     CD32A     2.07980       11.6110           0  -1.66000       1.30000    
     24911 MEMB     137      POPE     DC311    DRUD     -2.23580      0.400000           0   0.00000       0.00000    
     24912 MEMB     137      POPE     H11X     HDA2A    0.780000E-01   1.00800           0   0.00000       0.00000    
     24913 MEMB     137      POPE     H11Y     HDA2A    0.780000E-01   1.00800           0   0.00000       0.00000    
     24914 MEMB     137      POPE     C312     CD32A     2.07980       11.6110           0  -1.66000       1.30000    
     24915 MEMB     137      POPE     DC312    DRUD     -2.23580      0.400000           0   0.00000       0.00000    
     24916 MEMB     137      POPE     H12X     HDA2A    0.780000E-01   1.00800           0   0.00000       0.00000    
     24917 MEMB     137      POPE     H12Y     HDA2A    0.780000E-01   1.00800           0   0.00000       0.00000    
     24918 MEMB     137      POPE     C313     CD32A     2.07980       11.6110           0  -1.66000       1.30000    
     24919 MEMB     137      POPE     DC313    DRUD     -2.23580      0.400000           0   0.00000       0.00000    
     24920 MEMB     137      POPE     H13X     HDA2A    0.780000E-01   1.00800           0   0.00000       0.00000    
     24921 MEMB     137      POPE     H13Y     HDA2A    0.780000E-01   1.00800           0   0.00000       0.00000    
     24922 MEMB     137      POPE     C314     CD32A     2.07980       11.6110           0  -1.66000       1.30000    
     24923 MEMB     137      POPE     DC314    DRUD     -2.23580      0.400000           0   0.00000       0.00000    
     24924 MEMB     137      POPE     H14X     HDA2A    0.780000E-01   1.00800           0   0.00000       0.00000    
     24925 MEMB     137      POPE     H14Y     HDA2A    0.780000E-01   1.00800           0   0.00000       0.00000    
     24926 MEMB     137      POPE     C315     CD32A     2.07980       11.6110           0  -1.66000       1.30000    
     24927 MEMB     137      POPE     DC315    DRUD     -2.23580      0.400000           0   0.00000       0.00000    
     24928 MEMB     137      POPE     H15X     HDA2A    0.780000E-01   1.00800           0   0.00000       0.00000    
     24929 MEMB     137      POPE     H15Y     HDA2A    0.780000E-01   1.00800           0   0.00000       0.00000    
     24930 MEMB     137      POPE     C316     CD33A     2.30820       11.6110           0  -2.05100       1.30000    
     24931 MEMB     137      POPE     DC316    DRUD     -2.48520      0.400000           0   0.00000       0.00000    
     24932 MEMB     137      POPE     H16X     HDA3A    0.590000E-01   1.00800           0   0.00000       0.00000    
     24933 MEMB     137      POPE     H16Y     HDA3A    0.590000E-01   1.00800           0   0.00000       0.00000    
     24934 MEMB     137      POPE     H16Z     HDA3A    0.590000E-01   1.00800           0   0.00000       0.00000    
     24935 MEMB     138      POPE     N        ND3P3A    1.62810       13.6070           0  -1.29800      0.895000    
     24936 MEMB     138      POPE     DN       DRUD     -1.97710      0.400000           0   0.00000       0.00000    
     24937 MEMB     138      POPE     HN1      HDP1B    0.340000       1.00800           0   0.00000       0.00000    
     24938 MEMB     138      POPE     HN2      HDP1B    0.340000       1.00800           0   0.00000       0.00000    
     24939 MEMB     138      POPE     HN3      HDP1B    0.340000       1.00800           0   0.00000       0.00000    
     24940 MEMB     138      POPE     C12      CD32A     2.27610       11.6110           0  -1.65600      0.895000    
     24941 MEMB     138      POPE     DC12     DRUD     -2.23310      0.400000           0   0.00000       0.00000    
     24942 MEMB     138      POPE     H12A     HDA2A    0.143000       1.00800           0   0.00000       0.00000    
     24943 MEMB     138      POPE     H12B     HDA2A    0.143000       1.00800           0   0.00000       0.00000    
     24944 MEMB     138      POPE     C11      CD32A     2.42220       11.6110           0  -1.64200      0.862000    
     24945 MEMB     138      POPE     DC11     DRUD     -2.22370      0.400000           0   0.00000       0.00000    
     24946 MEMB     138      POPE     H11A     HDA2A    0.260000E-01   1.00800           0   0.00000       0.00000    
     24947 MEMB     138      POPE     H11B     HDA2A    0.260000E-01   1.00800           0   0.00000       0.00000    
     24948 MEMB     138      POPE     P        PD1A      2.90360       30.5740           0 -0.974000       2.09800    
     24949 MEMB     138      POPE     DP       DRUD     -1.71260      0.400000           0   0.00000       0.00000    
     24950 MEMB     138      POPE     O13      OD2C2B   0.798400       15.5994           0 -0.931000       1.08300    
     24951 MEMB     138      POPE     DO13     DRUD     -1.67440      0.400000           0   0.00000       0.00000    
     24952 MEMB     138      POPE     O14      OD2C2B   0.798400       15.5994           0 -0.931000       1.08300    
     24953 MEMB     138      POPE     DO14     DRUD     -1.67440      0.400000           0   0.00000       0.00000    
     24954 MEMB     138      POPE     O11      OD30B     1.17720       15.5994           0 -0.901000      0.181000    
     24955 MEMB     138      POPE     DO11     DRUD     -1.64720      0.400000           0   0.00000       0.00000    
     24956 MEMB     138      POPE     O12      OD30B     1.17720       15.5994           0 -0.901000      0.181000    
     24957 MEMB     138      POPE     DO12     DRUD     -1.64720      0.400000           0   0.00000       0.00000    
     24958 MEMB     138      POPE     C1       CD32A     2.42220       11.6110           0  -1.64200      0.862000    
     24959 MEMB     138      POPE     DC1      DRUD     -2.22370      0.400000           0   0.00000       0.00000    
     24960 MEMB     138      POPE     HA       HDA2A    0.260000E-01   1.00800           0   0.00000       0.00000    
     24961 MEMB     138      POPE     HB       HDA2A    0.260000E-01   1.00800           0   0.00000       0.00000    
     24962 MEMB     138      POPE     C2       CD31C     2.52830       11.6110           0  -1.79700      0.410000    
     24963 MEMB     138      POPE     DC2      DRUD     -2.32630      0.400000           0   0.00000       0.00000    
     24964 MEMB     138      POPE     HS       HDA1A    0.116000       1.00800           0   0.00000       0.00000    
     24965 MEMB     138      POPE     O21      OD30CL    1.48470       15.5994           0 -0.732000      0.601000    
     24966 MEMB     138      POPE     DO21     DRUD     -1.48470      0.400000           0   0.00000       0.00000    
     24967 MEMB     138      POPE     C21      CD2O3B    2.72820       11.6110           0  -1.37000       1.74700    
     24968 MEMB     138      POPE     DC21     DRUD     -2.03120      0.400000           0   0.00000       0.00000    
     24969 MEMB     138      POPE     O22      OD2C3B    1.64990       15.5994           0 -0.904000      0.565000    
     24970 MEMB     138      POPE     DO22     DRUD     -1.64990      0.400000           0   0.00000       0.00000    
     24971 MEMB     138      POPE     C22      CD32C     2.24380       11.6110           0  -1.99300      0.410000    
     24972 MEMB     138      POPE     DC22     DRUD     -2.44980      0.400000           0   0.00000       0.00000    
     24973 MEMB     138      POPE     H2R      HDA2A    0.690000E-01   1.00800           0   0.00000       0.00000    
     24974 MEMB     138      POPE     H2S      HDA2A    0.690000E-01   1.00800           0   0.00000       0.00000    
     24975 MEMB     138      POPE     LP1A     LPD     -0.349000       0.00000          -1   0.00000       0.00000    
     24976 MEMB     138      POPE     LP1B     LPD     -0.258000       0.00000          -1   0.00000       0.00000    
     24977 MEMB     138      POPE     LPMA     LPD     -0.170000       0.00000          -1   0.00000       0.00000    
     24978 MEMB     138      POPE     LPMB     LPD     -0.170000       0.00000          -1   0.00000       0.00000    
     24979 MEMB     138      POPE     C3       CD32C     2.41230       11.6110           0  -1.79700      0.410000    
     24980 MEMB     138      POPE     DC3      DRUD     -2.32630      0.400000           0   0.00000       0.00000    
     24981 MEMB     138      POPE     HX       HDA2A    0.116000       1.00800           0   0.00000       0.00000    
     24982 MEMB     138      POPE     HY       HDA2A    0.116000       1.00800           0   0.00000       0.00000    
     24983 MEMB     138      POPE     O31      OD30CL    1.48470       15.5994           0 -0.732000      0.601000    
     24984 MEMB     138      POPE     DO31     DRUD     -1.48470      0.400000           0   0.00000       0.00000    
     24985 MEMB     138      POPE     C31      CD2O3B    2.72820       11.6110           0  -1.37000       1.74700    
     24986 MEMB     138      POPE     DC31     DRUD     -2.03120      0.400000           0   0.00000       0.00000    
     24987 MEMB     138      POPE     O32      OD2C3B    1.64990       15.5994           0 -0.904000      0.565000    
     24988 MEMB     138      POPE     DO32     DRUD     -1.64990      0.400000           0   0.00000       0.00000    
     24989 MEMB     138      POPE     C32      CD32C     2.24380       11.6110           0  -1.99300      0.410000    
     24990 MEMB     138      POPE     DC32     DRUD     -2.44980      0.400000           0   0.00000       0.00000    
     24991 MEMB     138      POPE     H2X      HDA2A    0.690000E-01   1.00800           0   0.00000       0.00000    
     24992 MEMB     138      POPE     H2Y      HDA2A    0.690000E-01   1.00800           0   0.00000       0.00000    
     24993 MEMB     138      POPE     LP1C     LPD     -0.349000       0.00000          -1   0.00000       0.00000    
     24994 MEMB     138      POPE     LP1D     LPD     -0.258000       0.00000          -1   0.00000       0.00000    
     24995 MEMB     138      POPE     LPMC     LPD     -0.170000       0.00000          -1   0.00000       0.00000    
     24996 MEMB     138      POPE     LPMD     LPD     -0.170000       0.00000          -1   0.00000       0.00000    
     24997 MEMB     138      POPE     C23      CD32A     2.07980       11.6110           0  -1.66000       1.30000    
     24998 MEMB     138      POPE     DC23     DRUD     -2.23580      0.400000           0   0.00000       0.00000    
     24999 MEMB     138      POPE     H3R      HDA2A    0.780000E-01   1.00800           0   0.00000       0.00000    
     25000 MEMB     138      POPE     H3S      HDA2A    0.780000E-01   1.00800           0   0.00000       0.00000    
     25001 MEMB     138      POPE     C24      CD32A     2.07980       11.6110           0  -1.66000       1.30000    
     25002 MEMB     138      POPE     DC24     DRUD     -2.23580      0.400000           0   0.00000       0.00000    
     25003 MEMB     138      POPE     H4R      HDA2A    0.780000E-01   1.00800           0   0.00000       0.00000    
     25004 MEMB     138      POPE     H4S      HDA2A    0.780000E-01   1.00800           0   0.00000       0.00000    
     25005 MEMB     138      POPE     C25      CD32A     2.07980       11.6110           0  -1.66000       1.30000    
     25006 MEMB     138      POPE     DC25     DRUD     -2.23580      0.400000           0   0.00000       0.00000    
     25007 MEMB     138      POPE     H5R      HDA2A    0.780000E-01   1.00800           0   0.00000       0.00000    
     25008 MEMB     138      POPE     H5S      HDA2A    0.780000E-01   1.00800           0   0.00000       0.00000    
     25009 MEMB     138      POPE     C26      CD32A     2.07980       11.6110           0  -1.66000       1.30000    
     25010 MEMB     138      POPE     DC26     DRUD     -2.23580      0.400000           0   0.00000       0.00000    
     25011 MEMB     138      POPE     H6R      HDA2A    0.780000E-01   1.00800           0   0.00000       0.00000    
     25012 MEMB     138      POPE     H6S      HDA2A    0.780000E-01   1.00800           0   0.00000       0.00000    
     25013 MEMB     138      POPE     C27      CD32A     2.07980       11.6110           0  -1.66000       1.30000    
     25014 MEMB     138      POPE     DC27     DRUD     -2.23580      0.400000           0   0.00000       0.00000    
     25015 MEMB     138      POPE     H7R      HDA2A    0.780000E-01   1.00800           0   0.00000       0.00000    
     25016 MEMB     138      POPE     H7S      HDA2A    0.780000E-01   1.00800           0   0.00000       0.00000    
     25017 MEMB     138      POPE     C28      CD32A     2.07980       11.6110           0  -1.66000       1.30000    
     25018 MEMB     138      POPE     DC28     DRUD     -2.23580      0.400000           0   0.00000       0.00000    
     25019 MEMB     138      POPE     H8R      HDA2A    0.780000E-01   1.00800           0   0.00000       0.00000    
     25020 MEMB     138      POPE     H8S      HDA2A    0.780000E-01   1.00800           0   0.00000       0.00000    
     25021 MEMB     138      POPE     C29      CD2C1A    2.33700       11.6110           0  -1.99000      0.750000    
     25022 MEMB     138      POPE     DC29     DRUD     -2.44800      0.400000           0   0.00000       0.00000    
     25023 MEMB     138      POPE     H91      HD2C1A   0.111000       1.00800           0   0.00000       0.00000    
     25024 MEMB     138      POPE     C210     CD2C1A    2.33700       11.6110           0  -1.99000      0.750000    
     25025 MEMB     138      POPE     DC210    DRUD     -2.44800      0.400000           0   0.00000       0.00000    
     25026 MEMB     138      POPE     H101     HD2C1A   0.111000       1.00800           0   0.00000       0.00000    
     25027 MEMB     138      POPE     C211     CD32A     2.07980       11.6110           0  -1.66000       1.30000    
     25028 MEMB     138      POPE     DC211    DRUD     -2.23580      0.400000           0   0.00000       0.00000    
     25029 MEMB     138      POPE     H11R     HDA2A    0.780000E-01   1.00800           0   0.00000       0.00000    
     25030 MEMB     138      POPE     H11S     HDA2A    0.780000E-01   1.00800           0   0.00000       0.00000    
     25031 MEMB     138      POPE     C212     CD32A     2.07980       11.6110           0  -1.66000       1.30000    
     25032 MEMB     138      POPE     DC212    DRUD     -2.23580      0.400000           0   0.00000       0.00000    
     25033 MEMB     138      POPE     H12R     HDA2A    0.780000E-01   1.00800           0   0.00000       0.00000    
     25034 MEMB     138      POPE     H12S     HDA2A    0.780000E-01   1.00800           0   0.00000       0.00000    
     25035 MEMB     138      POPE     C213     CD32A     2.07980       11.6110           0  -1.66000       1.30000    
     25036 MEMB     138      POPE     DC213    DRUD     -2.23580      0.400000           0   0.00000       0.00000    
     25037 MEMB     138      POPE     H13R     HDA2A    0.780000E-01   1.00800           0   0.00000       0.00000    
     25038 MEMB     138      POPE     H13S     HDA2A    0.780000E-01   1.00800           0   0.00000       0.00000    
     25039 MEMB     138      POPE     C214     CD32A     2.07980       11.6110           0  -1.66000       1.30000    
     25040 MEMB     138      POPE     DC214    DRUD     -2.23580      0.400000           0   0.00000       0.00000    
     25041 MEMB     138      POPE     H14R     HDA2A    0.780000E-01   1.00800           0   0.00000       0.00000    
     25042 MEMB     138      POPE     H14S     HDA2A    0.780000E-01   1.00800           0   0.00000       0.00000    
     25043 MEMB     138      POPE     C215     CD32A     2.07980       11.6110           0  -1.66000       1.30000    
     25044 MEMB     138      POPE     DC215    DRUD     -2.23580      0.400000           0   0.00000       0.00000    
     25045 MEMB     138      POPE     H15R     HDA2A    0.780000E-01   1.00800           0   0.00000       0.00000    
     25046 MEMB     138      POPE     H15S     HDA2A    0.780000E-01   1.00800           0   0.00000       0.00000    
     25047 MEMB     138      POPE     C216     CD32A     2.07980       11.6110           0  -1.66000       1.30000    
     25048 MEMB     138      POPE     DC216    DRUD     -2.23580      0.400000           0   0.00000       0.00000    
     25049 MEMB     138      POPE     H16R     HDA2A    0.780000E-01   1.00800           0   0.00000       0.00000    
     25050 MEMB     138      POPE     H16S     HDA2A    0.780000E-01   1.00800           0   0.00000       0.00000    
     25051 MEMB     138      POPE     C217     CD32A     2.07980       11.6110           0  -1.66000       1.30000    
     25052 MEMB     138      POPE     DC217    DRUD     -2.23580      0.400000           0   0.00000       0.00000    
     25053 MEMB     138      POPE     H17R     HDA2A    0.780000E-01   1.00800           0   0.00000       0.00000    
     25054 MEMB     138      POPE     H17S     HDA2A    0.780000E-01   1.00800           0   0.00000       0.00000    
     25055 MEMB     138      POPE     C218     CD33A     2.30820       11.6110           0  -2.05100       1.30000    
     25056 MEMB     138      POPE     DC218    DRUD     -2.48520      0.400000           0   0.00000       0.00000    
     25057 MEMB     138      POPE     H18R     HDA3A    0.590000E-01   1.00800           0   0.00000       0.00000    
     25058 MEMB     138      POPE     H18S     HDA3A    0.590000E-01   1.00800           0   0.00000       0.00000    
     25059 MEMB     138      POPE     H18T     HDA3A    0.590000E-01   1.00800           0   0.00000       0.00000    
     25060 MEMB     138      POPE     C33      CD32A     2.07980       11.6110           0  -1.66000       1.30000    
     25061 MEMB     138      POPE     DC33     DRUD     -2.23580      0.400000           0   0.00000       0.00000    
     25062 MEMB     138      POPE     H3X      HDA2A    0.780000E-01   1.00800           0   0.00000       0.00000    
     25063 MEMB     138      POPE     H3Y      HDA2A    0.780000E-01   1.00800           0   0.00000       0.00000    
     25064 MEMB     138      POPE     C34      CD32A     2.07980       11.6110           0  -1.66000       1.30000    
     25065 MEMB     138      POPE     DC34     DRUD     -2.23580      0.400000           0   0.00000       0.00000    
     25066 MEMB     138      POPE     H4X      HDA2A    0.780000E-01   1.00800           0   0.00000       0.00000    
     25067 MEMB     138      POPE     H4Y      HDA2A    0.780000E-01   1.00800           0   0.00000       0.00000    
     25068 MEMB     138      POPE     C35      CD32A     2.07980       11.6110           0  -1.66000       1.30000    
     25069 MEMB     138      POPE     DC35     DRUD     -2.23580      0.400000           0   0.00000       0.00000    
     25070 MEMB     138      POPE     H5X      HDA2A    0.780000E-01   1.00800           0   0.00000       0.00000    
     25071 MEMB     138      POPE     H5Y      HDA2A    0.780000E-01   1.00800           0   0.00000       0.00000    
     25072 MEMB     138      POPE     C36      CD32A     2.07980       11.6110           0  -1.66000       1.30000    
     25073 MEMB     138      POPE     DC36     DRUD     -2.23580      0.400000           0   0.00000       0.00000    
     25074 MEMB     138      POPE     H6X      HDA2A    0.780000E-01   1.00800           0   0.00000       0.00000    
     25075 MEMB     138      POPE     H6Y      HDA2A    0.780000E-01   1.00800           0   0.00000       0.00000    
     25076 MEMB     138      POPE     C37      CD32A     2.07980       11.6110           0  -1.66000       1.30000    
     25077 MEMB     138      POPE     DC37     DRUD     -2.23580      0.400000           0   0.00000       0.00000    
     25078 MEMB     138      POPE     H7X      HDA2A    0.780000E-01   1.00800           0   0.00000       0.00000    
     25079 MEMB     138      POPE     H7Y      HDA2A    0.780000E-01   1.00800           0   0.00000       0.00000    
     25080 MEMB     138      POPE     C38      CD32A     2.07980       11.6110           0  -1.66000       1.30000    
     25081 MEMB     138      POPE     DC38     DRUD     -2.23580      0.400000           0   0.00000       0.00000    
     25082 MEMB     138      POPE     H8X      HDA2A    0.780000E-01   1.00800           0   0.00000       0.00000    
     25083 MEMB     138      POPE     H8Y      HDA2A    0.780000E-01   1.00800           0   0.00000       0.00000    
     25084 MEMB     138      POPE     C39      CD32A     2.07980       11.6110           0  -1.66000       1.30000    
     25085 MEMB     138      POPE     DC39     DRUD     -2.23580      0.400000           0   0.00000       0.00000    
     25086 MEMB     138      POPE     H9X      HDA2A    0.780000E-01   1.00800           0   0.00000       0.00000    
     25087 MEMB     138      POPE     H9Y      HDA2A    0.780000E-01   1.00800           0   0.00000       0.00000    
     25088 MEMB     138      POPE     C310     CD32A     2.07980       11.6110           0  -1.66000       1.30000    
     25089 MEMB     138      POPE     DC310    DRUD     -2.23580      0.400000           0   0.00000       0.00000    
     25090 MEMB     138      POPE     H10X     HDA2A    0.780000E-01   1.00800           0   0.00000       0.00000    
     25091 MEMB     138      POPE     H10Y     HDA2A    0.780000E-01   1.00800           0   0.00000       0.00000    
     25092 MEMB     138      POPE     C311     CD32A     2.07980       11.6110           0  -1.66000       1.30000    
     25093 MEMB     138      POPE     DC311    DRUD     -2.23580      0.400000           0   0.00000       0.00000    
     25094 MEMB     138      POPE     H11X     HDA2A    0.780000E-01   1.00800           0   0.00000       0.00000    
     25095 MEMB     138      POPE     H11Y     HDA2A    0.780000E-01   1.00800           0   0.00000       0.00000    
     25096 MEMB     138      POPE     C312     CD32A     2.07980       11.6110           0  -1.66000       1.30000    
     25097 MEMB     138      POPE     DC312    DRUD     -2.23580      0.400000           0   0.00000       0.00000    
     25098 MEMB     138      POPE     H12X     HDA2A    0.780000E-01   1.00800           0   0.00000       0.00000    
     25099 MEMB     138      POPE     H12Y     HDA2A    0.780000E-01   1.00800           0   0.00000       0.00000    
     25100 MEMB     138      POPE     C313     CD32A     2.07980       11.6110           0  -1.66000       1.30000    
     25101 MEMB     138      POPE     DC313    DRUD     -2.23580      0.400000           0   0.00000       0.00000    
     25102 MEMB     138      POPE     H13X     HDA2A    0.780000E-01   1.00800           0   0.00000       0.00000    
     25103 MEMB     138      POPE     H13Y     HDA2A    0.780000E-01   1.00800           0   0.00000       0.00000    
     25104 MEMB     138      POPE     C314     CD32A     2.07980       11.6110           0  -1.66000       1.30000    
     25105 MEMB     138      POPE     DC314    DRUD     -2.23580      0.400000           0   0.00000       0.00000    
     25106 MEMB     138      POPE     H14X     HDA2A    0.780000E-01   1.00800           0   0.00000       0.00000    
     25107 MEMB     138      POPE     H14Y     HDA2A    0.780000E-01   1.00800           0   0.00000       0.00000    
     25108 MEMB     138      POPE     C315     CD32A     2.07980       11.6110           0  -1.66000       1.30000    
     25109 MEMB     138      POPE     DC315    DRUD     -2.23580      0.400000           0   0.00000       0.00000    
     25110 MEMB     138      POPE     H15X     HDA2A    0.780000E-01   1.00800           0   0.00000       0.00000    
     25111 MEMB     138      POPE     H15Y     HDA2A    0.780000E-01   1.00800           0   0.00000       0.00000    
     25112 MEMB     138      POPE     C316     CD33A     2.30820       11.6110           0  -2.05100       1.30000    
     25113 MEMB     138      POPE     DC316    DRUD     -2.48520      0.400000           0   0.00000       0.00000    
     25114 MEMB     138      POPE     H16X     HDA3A    0.590000E-01   1.00800           0   0.00000       0.00000    
     25115 MEMB     138      POPE     H16Y     HDA3A    0.590000E-01   1.00800           0   0.00000       0.00000    
     25116 MEMB     138      POPE     H16Z     HDA3A    0.590000E-01   1.00800           0   0.00000       0.00000    
     25117 MEMB     139      POPE     N        ND3P3A    1.62810       13.6070           0  -1.29800      0.895000    
     25118 MEMB     139      POPE     DN       DRUD     -1.97710      0.400000           0   0.00000       0.00000    
     25119 MEMB     139      POPE     HN1      HDP1B    0.340000       1.00800           0   0.00000       0.00000    
     25120 MEMB     139      POPE     HN2      HDP1B    0.340000       1.00800           0   0.00000       0.00000    
     25121 MEMB     139      POPE     HN3      HDP1B    0.340000       1.00800           0   0.00000       0.00000    
     25122 MEMB     139      POPE     C12      CD32A     2.27610       11.6110           0  -1.65600      0.895000    
     25123 MEMB     139      POPE     DC12     DRUD     -2.23310      0.400000           0   0.00000       0.00000    
     25124 MEMB     139      POPE     H12A     HDA2A    0.143000       1.00800           0   0.00000       0.00000    
     25125 MEMB     139      POPE     H12B     HDA2A    0.143000       1.00800           0   0.00000       0.00000    
     25126 MEMB     139      POPE     C11      CD32A     2.42220       11.6110           0  -1.64200      0.862000    
     25127 MEMB     139      POPE     DC11     DRUD     -2.22370      0.400000           0   0.00000       0.00000    
     25128 MEMB     139      POPE     H11A     HDA2A    0.260000E-01   1.00800           0   0.00000       0.00000    
     25129 MEMB     139      POPE     H11B     HDA2A    0.260000E-01   1.00800           0   0.00000       0.00000    
     25130 MEMB     139      POPE     P        PD1A      2.90360       30.5740           0 -0.974000       2.09800    
     25131 MEMB     139      POPE     DP       DRUD     -1.71260      0.400000           0   0.00000       0.00000    
     25132 MEMB     139      POPE     O13      OD2C2B   0.798400       15.5994           0 -0.931000       1.08300    
     25133 MEMB     139      POPE     DO13     DRUD     -1.67440      0.400000           0   0.00000       0.00000    
     25134 MEMB     139      POPE     O14      OD2C2B   0.798400       15.5994           0 -0.931000       1.08300    
     25135 MEMB     139      POPE     DO14     DRUD     -1.67440      0.400000           0   0.00000       0.00000    
     25136 MEMB     139      POPE     O11      OD30B     1.17720       15.5994           0 -0.901000      0.181000    
     25137 MEMB     139      POPE     DO11     DRUD     -1.64720      0.400000           0   0.00000       0.00000    
     25138 MEMB     139      POPE     O12      OD30B     1.17720       15.5994           0 -0.901000      0.181000    
     25139 MEMB     139      POPE     DO12     DRUD     -1.64720      0.400000           0   0.00000       0.00000    
     25140 MEMB     139      POPE     C1       CD32A     2.42220       11.6110           0  -1.64200      0.862000    
     25141 MEMB     139      POPE     DC1      DRUD     -2.22370      0.400000           0   0.00000       0.00000    
     25142 MEMB     139      POPE     HA       HDA2A    0.260000E-01   1.00800           0   0.00000       0.00000    
     25143 MEMB     139      POPE     HB       HDA2A    0.260000E-01   1.00800           0   0.00000       0.00000    
     25144 MEMB     139      POPE     C2       CD31C     2.52830       11.6110           0  -1.79700      0.410000    
     25145 MEMB     139      POPE     DC2      DRUD     -2.32630      0.400000           0   0.00000       0.00000    
     25146 MEMB     139      POPE     HS       HDA1A    0.116000       1.00800           0   0.00000       0.00000    
     25147 MEMB     139      POPE     O21      OD30CL    1.48470       15.5994           0 -0.732000      0.601000    
     25148 MEMB     139      POPE     DO21     DRUD     -1.48470      0.400000           0   0.00000       0.00000    
     25149 MEMB     139      POPE     C21      CD2O3B    2.72820       11.6110           0  -1.37000       1.74700    
     25150 MEMB     139      POPE     DC21     DRUD     -2.03120      0.400000           0   0.00000       0.00000    
     25151 MEMB     139      POPE     O22      OD2C3B    1.64990       15.5994           0 -0.904000      0.565000    
     25152 MEMB     139      POPE     DO22     DRUD     -1.64990      0.400000           0   0.00000       0.00000    
     25153 MEMB     139      POPE     C22      CD32C     2.24380       11.6110           0  -1.99300      0.410000    
     25154 MEMB     139      POPE     DC22     DRUD     -2.44980      0.400000           0   0.00000       0.00000    
     25155 MEMB     139      POPE     H2R      HDA2A    0.690000E-01   1.00800           0   0.00000       0.00000    
     25156 MEMB     139      POPE     H2S      HDA2A    0.690000E-01   1.00800           0   0.00000       0.00000    
     25157 MEMB     139      POPE     LP1A     LPD     -0.349000       0.00000          -1   0.00000       0.00000    
     25158 MEMB     139      POPE     LP1B     LPD     -0.258000       0.00000          -1   0.00000       0.00000    
     25159 MEMB     139      POPE     LPMA     LPD     -0.170000       0.00000          -1   0.00000       0.00000    
     25160 MEMB     139      POPE     LPMB     LPD     -0.170000       0.00000          -1   0.00000       0.00000    
     25161 MEMB     139      POPE     C3       CD32C     2.41230       11.6110           0  -1.79700      0.410000    
     25162 MEMB     139      POPE     DC3      DRUD     -2.32630      0.400000           0   0.00000       0.00000    
     25163 MEMB     139      POPE     HX       HDA2A    0.116000       1.00800           0   0.00000       0.00000    
     25164 MEMB     139      POPE     HY       HDA2A    0.116000       1.00800           0   0.00000       0.00000    
     25165 MEMB     139      POPE     O31      OD30CL    1.48470       15.5994           0 -0.732000      0.601000    
     25166 MEMB     139      POPE     DO31     DRUD     -1.48470      0.400000           0   0.00000       0.00000    
     25167 MEMB     139      POPE     C31      CD2O3B    2.72820       11.6110           0  -1.37000       1.74700    
     25168 MEMB     139      POPE     DC31     DRUD     -2.03120      0.400000           0   0.00000       0.00000    
     25169 MEMB     139      POPE     O32      OD2C3B    1.64990       15.5994           0 -0.904000      0.565000    
     25170 MEMB     139      POPE     DO32     DRUD     -1.64990      0.400000           0   0.00000       0.00000    
     25171 MEMB     139      POPE     C32      CD32C     2.24380       11.6110           0  -1.99300      0.410000    
     25172 MEMB     139      POPE     DC32     DRUD     -2.44980      0.400000           0   0.00000       0.00000    
     25173 MEMB     139      POPE     H2X      HDA2A    0.690000E-01   1.00800           0   0.00000       0.00000    
     25174 MEMB     139      POPE     H2Y      HDA2A    0.690000E-01   1.00800           0   0.00000       0.00000    
     25175 MEMB     139      POPE     LP1C     LPD     -0.349000       0.00000          -1   0.00000       0.00000    
     25176 MEMB     139      POPE     LP1D     LPD     -0.258000       0.00000          -1   0.00000       0.00000    
     25177 MEMB     139      POPE     LPMC     LPD     -0.170000       0.00000          -1   0.00000       0.00000    
     25178 MEMB     139      POPE     LPMD     LPD     -0.170000       0.00000          -1   0.00000       0.00000    
     25179 MEMB     139      POPE     C23      CD32A     2.07980       11.6110           0  -1.66000       1.30000    
     25180 MEMB     139      POPE     DC23     DRUD     -2.23580      0.400000           0   0.00000       0.00000    
     25181 MEMB     139      POPE     H3R      HDA2A    0.780000E-01   1.00800           0   0.00000       0.00000    
     25182 MEMB     139      POPE     H3S      HDA2A    0.780000E-01   1.00800           0   0.00000       0.00000    
     25183 MEMB     139      POPE     C24      CD32A     2.07980       11.6110           0  -1.66000       1.30000    
     25184 MEMB     139      POPE     DC24     DRUD     -2.23580      0.400000           0   0.00000       0.00000    
     25185 MEMB     139      POPE     H4R      HDA2A    0.780000E-01   1.00800           0   0.00000       0.00000    
     25186 MEMB     139      POPE     H4S      HDA2A    0.780000E-01   1.00800           0   0.00000       0.00000    
     25187 MEMB     139      POPE     C25      CD32A     2.07980       11.6110           0  -1.66000       1.30000    
     25188 MEMB     139      POPE     DC25     DRUD     -2.23580      0.400000           0   0.00000       0.00000    
     25189 MEMB     139      POPE     H5R      HDA2A    0.780000E-01   1.00800           0   0.00000       0.00000    
     25190 MEMB     139      POPE     H5S      HDA2A    0.780000E-01   1.00800           0   0.00000       0.00000    
     25191 MEMB     139      POPE     C26      CD32A     2.07980       11.6110           0  -1.66000       1.30000    
     25192 MEMB     139      POPE     DC26     DRUD     -2.23580      0.400000           0   0.00000       0.00000    
     25193 MEMB     139      POPE     H6R      HDA2A    0.780000E-01   1.00800           0   0.00000       0.00000    
     25194 MEMB     139      POPE     H6S      HDA2A    0.780000E-01   1.00800           0   0.00000       0.00000    
     25195 MEMB     139      POPE     C27      CD32A     2.07980       11.6110           0  -1.66000       1.30000    
     25196 MEMB     139      POPE     DC27     DRUD     -2.23580      0.400000           0   0.00000       0.00000    
     25197 MEMB     139      POPE     H7R      HDA2A    0.780000E-01   1.00800           0   0.00000       0.00000    
     25198 MEMB     139      POPE     H7S      HDA2A    0.780000E-01   1.00800           0   0.00000       0.00000    
     25199 MEMB     139      POPE     C28      CD32A     2.07980       11.6110           0  -1.66000       1.30000    
     25200 MEMB     139      POPE     DC28     DRUD     -2.23580      0.400000           0   0.00000       0.00000    
     25201 MEMB     139      POPE     H8R      HDA2A    0.780000E-01   1.00800           0   0.00000       0.00000    
     25202 MEMB     139      POPE     H8S      HDA2A    0.780000E-01   1.00800           0   0.00000       0.00000    
     25203 MEMB     139      POPE     C29      CD2C1A    2.33700       11.6110           0  -1.99000      0.750000    
     25204 MEMB     139      POPE     DC29     DRUD     -2.44800      0.400000           0   0.00000       0.00000    
     25205 MEMB     139      POPE     H91      HD2C1A   0.111000       1.00800           0   0.00000       0.00000    
     25206 MEMB     139      POPE     C210     CD2C1A    2.33700       11.6110           0  -1.99000      0.750000    
     25207 MEMB     139      POPE     DC210    DRUD     -2.44800      0.400000           0   0.00000       0.00000    
     25208 MEMB     139      POPE     H101     HD2C1A   0.111000       1.00800           0   0.00000       0.00000    
     25209 MEMB     139      POPE     C211     CD32A     2.07980       11.6110           0  -1.66000       1.30000    
     25210 MEMB     139      POPE     DC211    DRUD     -2.23580      0.400000           0   0.00000       0.00000    
     25211 MEMB     139      POPE     H11R     HDA2A    0.780000E-01   1.00800           0   0.00000       0.00000    
     25212 MEMB     139      POPE     H11S     HDA2A    0.780000E-01   1.00800           0   0.00000       0.00000    
     25213 MEMB     139      POPE     C212     CD32A     2.07980       11.6110           0  -1.66000       1.30000    
     25214 MEMB     139      POPE     DC212    DRUD     -2.23580      0.400000           0   0.00000       0.00000    
     25215 MEMB     139      POPE     H12R     HDA2A    0.780000E-01   1.00800           0   0.00000       0.00000    
     25216 MEMB     139      POPE     H12S     HDA2A    0.780000E-01   1.00800           0   0.00000       0.00000    
     25217 MEMB     139      POPE     C213     CD32A     2.07980       11.6110           0  -1.66000       1.30000    
     25218 MEMB     139      POPE     DC213    DRUD     -2.23580      0.400000           0   0.00000       0.00000    
     25219 MEMB     139      POPE     H13R     HDA2A    0.780000E-01   1.00800           0   0.00000       0.00000    
     25220 MEMB     139      POPE     H13S     HDA2A    0.780000E-01   1.00800           0   0.00000       0.00000    
     25221 MEMB     139      POPE     C214     CD32A     2.07980       11.6110           0  -1.66000       1.30000    
     25222 MEMB     139      POPE     DC214    DRUD     -2.23580      0.400000           0   0.00000       0.00000    
     25223 MEMB     139      POPE     H14R     HDA2A    0.780000E-01   1.00800           0   0.00000       0.00000    
     25224 MEMB     139      POPE     H14S     HDA2A    0.780000E-01   1.00800           0   0.00000       0.00000    
     25225 MEMB     139      POPE     C215     CD32A     2.07980       11.6110           0  -1.66000       1.30000    
     25226 MEMB     139      POPE     DC215    DRUD     -2.23580      0.400000           0   0.00000       0.00000    
     25227 MEMB     139      POPE     H15R     HDA2A    0.780000E-01   1.00800           0   0.00000       0.00000    
     25228 MEMB     139      POPE     H15S     HDA2A    0.780000E-01   1.00800           0   0.00000       0.00000    
     25229 MEMB     139      POPE     C216     CD32A     2.07980       11.6110           0  -1.66000       1.30000    
     25230 MEMB     139      POPE     DC216    DRUD     -2.23580      0.400000           0   0.00000       0.00000    
     25231 MEMB     139      POPE     H16R     HDA2A    0.780000E-01   1.00800           0   0.00000       0.00000    
     25232 MEMB     139      POPE     H16S     HDA2A    0.780000E-01   1.00800           0   0.00000       0.00000    
     25233 MEMB     139      POPE     C217     CD32A     2.07980       11.6110           0  -1.66000       1.30000    
     25234 MEMB     139      POPE     DC217    DRUD     -2.23580      0.400000           0   0.00000       0.00000    
     25235 MEMB     139      POPE     H17R     HDA2A    0.780000E-01   1.00800           0   0.00000       0.00000    
     25236 MEMB     139      POPE     H17S     HDA2A    0.780000E-01   1.00800           0   0.00000       0.00000    
     25237 MEMB     139      POPE     C218     CD33A     2.30820       11.6110           0  -2.05100       1.30000    
     25238 MEMB     139      POPE     DC218    DRUD     -2.48520      0.400000           0   0.00000       0.00000    
     25239 MEMB     139      POPE     H18R     HDA3A    0.590000E-01   1.00800           0   0.00000       0.00000    
     25240 MEMB     139      POPE     H18S     HDA3A    0.590000E-01   1.00800           0   0.00000       0.00000    
     25241 MEMB     139      POPE     H18T     HDA3A    0.590000E-01   1.00800           0   0.00000       0.00000    
     25242 MEMB     139      POPE     C33      CD32A     2.07980       11.6110           0  -1.66000       1.30000    
     25243 MEMB     139      POPE     DC33     DRUD     -2.23580      0.400000           0   0.00000       0.00000    
     25244 MEMB     139      POPE     H3X      HDA2A    0.780000E-01   1.00800           0   0.00000       0.00000    
     25245 MEMB     139      POPE     H3Y      HDA2A    0.780000E-01   1.00800           0   0.00000       0.00000    
     25246 MEMB     139      POPE     C34      CD32A     2.07980       11.6110           0  -1.66000       1.30000    
     25247 MEMB     139      POPE     DC34     DRUD     -2.23580      0.400000           0   0.00000       0.00000    
     25248 MEMB     139      POPE     H4X      HDA2A    0.780000E-01   1.00800           0   0.00000       0.00000    
     25249 MEMB     139      POPE     H4Y      HDA2A    0.780000E-01   1.00800           0   0.00000       0.00000    
     25250 MEMB     139      POPE     C35      CD32A     2.07980       11.6110           0  -1.66000       1.30000    
     25251 MEMB     139      POPE     DC35     DRUD     -2.23580      0.400000           0   0.00000       0.00000    
     25252 MEMB     139      POPE     H5X      HDA2A    0.780000E-01   1.00800           0   0.00000       0.00000    
     25253 MEMB     139      POPE     H5Y      HDA2A    0.780000E-01   1.00800           0   0.00000       0.00000    
     25254 MEMB     139      POPE     C36      CD32A     2.07980       11.6110           0  -1.66000       1.30000    
     25255 MEMB     139      POPE     DC36     DRUD     -2.23580      0.400000           0   0.00000       0.00000    
     25256 MEMB     139      POPE     H6X      HDA2A    0.780000E-01   1.00800           0   0.00000       0.00000    
     25257 MEMB     139      POPE     H6Y      HDA2A    0.780000E-01   1.00800           0   0.00000       0.00000    
     25258 MEMB     139      POPE     C37      CD32A     2.07980       11.6110           0  -1.66000       1.30000    
     25259 MEMB     139      POPE     DC37     DRUD     -2.23580      0.400000           0   0.00000       0.00000    
     25260 MEMB     139      POPE     H7X      HDA2A    0.780000E-01   1.00800           0   0.00000       0.00000    
     25261 MEMB     139      POPE     H7Y      HDA2A    0.780000E-01   1.00800           0   0.00000       0.00000    
     25262 MEMB     139      POPE     C38      CD32A     2.07980       11.6110           0  -1.66000       1.30000    
     25263 MEMB     139      POPE     DC38     DRUD     -2.23580      0.400000           0   0.00000       0.00000    
     25264 MEMB     139      POPE     H8X      HDA2A    0.780000E-01   1.00800           0   0.00000       0.00000    
     25265 MEMB     139      POPE     H8Y      HDA2A    0.780000E-01   1.00800           0   0.00000       0.00000    
     25266 MEMB     139      POPE     C39      CD32A     2.07980       11.6110           0  -1.66000       1.30000    
     25267 MEMB     139      POPE     DC39     DRUD     -2.23580      0.400000           0   0.00000       0.00000    
     25268 MEMB     139      POPE     H9X      HDA2A    0.780000E-01   1.00800           0   0.00000       0.00000    
     25269 MEMB     139      POPE     H9Y      HDA2A    0.780000E-01   1.00800           0   0.00000       0.00000    
     25270 MEMB     139      POPE     C310     CD32A     2.07980       11.6110           0  -1.66000       1.30000    
     25271 MEMB     139      POPE     DC310    DRUD     -2.23580      0.400000           0   0.00000       0.00000    
     25272 MEMB     139      POPE     H10X     HDA2A    0.780000E-01   1.00800           0   0.00000       0.00000    
     25273 MEMB     139      POPE     H10Y     HDA2A    0.780000E-01   1.00800           0   0.00000       0.00000    
     25274 MEMB     139      POPE     C311     CD32A     2.07980       11.6110           0  -1.66000       1.30000    
     25275 MEMB     139      POPE     DC311    DRUD     -2.23580      0.400000           0   0.00000       0.00000    
     25276 MEMB     139      POPE     H11X     HDA2A    0.780000E-01   1.00800           0   0.00000       0.00000    
     25277 MEMB     139      POPE     H11Y     HDA2A    0.780000E-01   1.00800           0   0.00000       0.00000    
     25278 MEMB     139      POPE     C312     CD32A     2.07980       11.6110           0  -1.66000       1.30000    
     25279 MEMB     139      POPE     DC312    DRUD     -2.23580      0.400000           0   0.00000       0.00000    
     25280 MEMB     139      POPE     H12X     HDA2A    0.780000E-01   1.00800           0   0.00000       0.00000    
     25281 MEMB     139      POPE     H12Y     HDA2A    0.780000E-01   1.00800           0   0.00000       0.00000    
     25282 MEMB     139      POPE     C313     CD32A     2.07980       11.6110           0  -1.66000       1.30000    
     25283 MEMB     139      POPE     DC313    DRUD     -2.23580      0.400000           0   0.00000       0.00000    
     25284 MEMB     139      POPE     H13X     HDA2A    0.780000E-01   1.00800           0   0.00000       0.00000    
     25285 MEMB     139      POPE     H13Y     HDA2A    0.780000E-01   1.00800           0   0.00000       0.00000    
     25286 MEMB     139      POPE     C314     CD32A     2.07980       11.6110           0  -1.66000       1.30000    
     25287 MEMB     139      POPE     DC314    DRUD     -2.23580      0.400000           0   0.00000       0.00000    
     25288 MEMB     139      POPE     H14X     HDA2A    0.780000E-01   1.00800           0   0.00000       0.00000    
     25289 MEMB     139      POPE     H14Y     HDA2A    0.780000E-01   1.00800           0   0.00000       0.00000    
     25290 MEMB     139      POPE     C315     CD32A     2.07980       11.6110           0  -1.66000       1.30000    
     25291 MEMB     139      POPE     DC315    DRUD     -2.23580      0.400000           0   0.00000       0.00000    
     25292 MEMB     139      POPE     H15X     HDA2A    0.780000E-01   1.00800           0   0.00000       0.00000    
     25293 MEMB     139      POPE     H15Y     HDA2A    0.780000E-01   1.00800           0   0.00000       0.00000    
     25294 MEMB     139      POPE     C316     CD33A     2.30820       11.6110           0  -2.05100       1.30000    
     25295 MEMB     139      POPE     DC316    DRUD     -2.48520      0.400000           0   0.00000       0.00000    
     25296 MEMB     139      POPE     H16X     HDA3A    0.590000E-01   1.00800           0   0.00000       0.00000    
     25297 MEMB     139      POPE     H16Y     HDA3A    0.590000E-01   1.00800           0   0.00000       0.00000    
     25298 MEMB     139      POPE     H16Z     HDA3A    0.590000E-01   1.00800           0   0.00000       0.00000    
     25299 MEMB     140      POPE     N        ND3P3A    1.62810       13.6070           0  -1.29800      0.895000    
     25300 MEMB     140      POPE     DN       DRUD     -1.97710      0.400000           0   0.00000       0.00000    
     25301 MEMB     140      POPE     HN1      HDP1B    0.340000       1.00800           0   0.00000       0.00000    
     25302 MEMB     140      POPE     HN2      HDP1B    0.340000       1.00800           0   0.00000       0.00000    
     25303 MEMB     140      POPE     HN3      HDP1B    0.340000       1.00800           0   0.00000       0.00000    
     25304 MEMB     140      POPE     C12      CD32A     2.27610       11.6110           0  -1.65600      0.895000    
     25305 MEMB     140      POPE     DC12     DRUD     -2.23310      0.400000           0   0.00000       0.00000    
     25306 MEMB     140      POPE     H12A     HDA2A    0.143000       1.00800           0   0.00000       0.00000    
     25307 MEMB     140      POPE     H12B     HDA2A    0.143000       1.00800           0   0.00000       0.00000    
     25308 MEMB     140      POPE     C11      CD32A     2.42220       11.6110           0  -1.64200      0.862000    
     25309 MEMB     140      POPE     DC11     DRUD     -2.22370      0.400000           0   0.00000       0.00000    
     25310 MEMB     140      POPE     H11A     HDA2A    0.260000E-01   1.00800           0   0.00000       0.00000    
     25311 MEMB     140      POPE     H11B     HDA2A    0.260000E-01   1.00800           0   0.00000       0.00000    
     25312 MEMB     140      POPE     P        PD1A      2.90360       30.5740           0 -0.974000       2.09800    
     25313 MEMB     140      POPE     DP       DRUD     -1.71260      0.400000           0   0.00000       0.00000    
     25314 MEMB     140      POPE     O13      OD2C2B   0.798400       15.5994           0 -0.931000       1.08300    
     25315 MEMB     140      POPE     DO13     DRUD     -1.67440      0.400000           0   0.00000       0.00000    
     25316 MEMB     140      POPE     O14      OD2C2B   0.798400       15.5994           0 -0.931000       1.08300    
     25317 MEMB     140      POPE     DO14     DRUD     -1.67440      0.400000           0   0.00000       0.00000    
     25318 MEMB     140      POPE     O11      OD30B     1.17720       15.5994           0 -0.901000      0.181000    
     25319 MEMB     140      POPE     DO11     DRUD     -1.64720      0.400000           0   0.00000       0.00000    
     25320 MEMB     140      POPE     O12      OD30B     1.17720       15.5994           0 -0.901000      0.181000    
     25321 MEMB     140      POPE     DO12     DRUD     -1.64720      0.400000           0   0.00000       0.00000    
     25322 MEMB     140      POPE     C1       CD32A     2.42220       11.6110           0  -1.64200      0.862000    
     25323 MEMB     140      POPE     DC1      DRUD     -2.22370      0.400000           0   0.00000       0.00000    
     25324 MEMB     140      POPE     HA       HDA2A    0.260000E-01   1.00800           0   0.00000       0.00000    
     25325 MEMB     140      POPE     HB       HDA2A    0.260000E-01   1.00800           0   0.00000       0.00000    
     25326 MEMB     140      POPE     C2       CD31C     2.52830       11.6110           0  -1.79700      0.410000    
     25327 MEMB     140      POPE     DC2      DRUD     -2.32630      0.400000           0   0.00000       0.00000    
     25328 MEMB     140      POPE     HS       HDA1A    0.116000       1.00800           0   0.00000       0.00000    
     25329 MEMB     140      POPE     O21      OD30CL    1.48470       15.5994           0 -0.732000      0.601000    
     25330 MEMB     140      POPE     DO21     DRUD     -1.48470      0.400000           0   0.00000       0.00000    
     25331 MEMB     140      POPE     C21      CD2O3B    2.72820       11.6110           0  -1.37000       1.74700    
     25332 MEMB     140      POPE     DC21     DRUD     -2.03120      0.400000           0   0.00000       0.00000    
     25333 MEMB     140      POPE     O22      OD2C3B    1.64990       15.5994           0 -0.904000      0.565000    
     25334 MEMB     140      POPE     DO22     DRUD     -1.64990      0.400000           0   0.00000       0.00000    
     25335 MEMB     140      POPE     C22      CD32C     2.24380       11.6110           0  -1.99300      0.410000    
     25336 MEMB     140      POPE     DC22     DRUD     -2.44980      0.400000           0   0.00000       0.00000    
     25337 MEMB     140      POPE     H2R      HDA2A    0.690000E-01   1.00800           0   0.00000       0.00000    
     25338 MEMB     140      POPE     H2S      HDA2A    0.690000E-01   1.00800           0   0.00000       0.00000    
     25339 MEMB     140      POPE     LP1A     LPD     -0.349000       0.00000          -1   0.00000       0.00000    
     25340 MEMB     140      POPE     LP1B     LPD     -0.258000       0.00000          -1   0.00000       0.00000    
     25341 MEMB     140      POPE     LPMA     LPD     -0.170000       0.00000          -1   0.00000       0.00000    
     25342 MEMB     140      POPE     LPMB     LPD     -0.170000       0.00000          -1   0.00000       0.00000    
     25343 MEMB     140      POPE     C3       CD32C     2.41230       11.6110           0  -1.79700      0.410000    
     25344 MEMB     140      POPE     DC3      DRUD     -2.32630      0.400000           0   0.00000       0.00000    
     25345 MEMB     140      POPE     HX       HDA2A    0.116000       1.00800           0   0.00000       0.00000    
     25346 MEMB     140      POPE     HY       HDA2A    0.116000       1.00800           0   0.00000       0.00000    
     25347 MEMB     140      POPE     O31      OD30CL    1.48470       15.5994           0 -0.732000      0.601000    
     25348 MEMB     140      POPE     DO31     DRUD     -1.48470      0.400000           0   0.00000       0.00000    
     25349 MEMB     140      POPE     C31      CD2O3B    2.72820       11.6110           0  -1.37000       1.74700    
     25350 MEMB     140      POPE     DC31     DRUD     -2.03120      0.400000           0   0.00000       0.00000    
     25351 MEMB     140      POPE     O32      OD2C3B    1.64990       15.5994           0 -0.904000      0.565000    
     25352 MEMB     140      POPE     DO32     DRUD     -1.64990      0.400000           0   0.00000       0.00000    
     25353 MEMB     140      POPE     C32      CD32C     2.24380       11.6110           0  -1.99300      0.410000    
     25354 MEMB     140      POPE     DC32     DRUD     -2.44980      0.400000           0   0.00000       0.00000    
     25355 MEMB     140      POPE     H2X      HDA2A    0.690000E-01   1.00800           0   0.00000       0.00000    
     25356 MEMB     140      POPE     H2Y      HDA2A    0.690000E-01   1.00800           0   0.00000       0.00000    
     25357 MEMB     140      POPE     LP1C     LPD     -0.349000       0.00000          -1   0.00000       0.00000    
     25358 MEMB     140      POPE     LP1D     LPD     -0.258000       0.00000          -1   0.00000       0.00000    
     25359 MEMB     140      POPE     LPMC     LPD     -0.170000       0.00000          -1   0.00000       0.00000    
     25360 MEMB     140      POPE     LPMD     LPD     -0.170000       0.00000          -1   0.00000       0.00000    
     25361 MEMB     140      POPE     C23      CD32A     2.07980       11.6110           0  -1.66000       1.30000    
     25362 MEMB     140      POPE     DC23     DRUD     -2.23580      0.400000           0   0.00000       0.00000    
     25363 MEMB     140      POPE     H3R      HDA2A    0.780000E-01   1.00800           0   0.00000       0.00000    
     25364 MEMB     140      POPE     H3S      HDA2A    0.780000E-01   1.00800           0   0.00000       0.00000    
     25365 MEMB     140      POPE     C24      CD32A     2.07980       11.6110           0  -1.66000       1.30000    
     25366 MEMB     140      POPE     DC24     DRUD     -2.23580      0.400000           0   0.00000       0.00000    
     25367 MEMB     140      POPE     H4R      HDA2A    0.780000E-01   1.00800           0   0.00000       0.00000    
     25368 MEMB     140      POPE     H4S      HDA2A    0.780000E-01   1.00800           0   0.00000       0.00000    
     25369 MEMB     140      POPE     C25      CD32A     2.07980       11.6110           0  -1.66000       1.30000    
     25370 MEMB     140      POPE     DC25     DRUD     -2.23580      0.400000           0   0.00000       0.00000    
     25371 MEMB     140      POPE     H5R      HDA2A    0.780000E-01   1.00800           0   0.00000       0.00000    
     25372 MEMB     140      POPE     H5S      HDA2A    0.780000E-01   1.00800           0   0.00000       0.00000    
     25373 MEMB     140      POPE     C26      CD32A     2.07980       11.6110           0  -1.66000       1.30000    
     25374 MEMB     140      POPE     DC26     DRUD     -2.23580      0.400000           0   0.00000       0.00000    
     25375 MEMB     140      POPE     H6R      HDA2A    0.780000E-01   1.00800           0   0.00000       0.00000    
     25376 MEMB     140      POPE     H6S      HDA2A    0.780000E-01   1.00800           0   0.00000       0.00000    
     25377 MEMB     140      POPE     C27      CD32A     2.07980       11.6110           0  -1.66000       1.30000    
     25378 MEMB     140      POPE     DC27     DRUD     -2.23580      0.400000           0   0.00000       0.00000    
     25379 MEMB     140      POPE     H7R      HDA2A    0.780000E-01   1.00800           0   0.00000       0.00000    
     25380 MEMB     140      POPE     H7S      HDA2A    0.780000E-01   1.00800           0   0.00000       0.00000    
     25381 MEMB     140      POPE     C28      CD32A     2.07980       11.6110           0  -1.66000       1.30000    
     25382 MEMB     140      POPE     DC28     DRUD     -2.23580      0.400000           0   0.00000       0.00000    
     25383 MEMB     140      POPE     H8R      HDA2A    0.780000E-01   1.00800           0   0.00000       0.00000    
     25384 MEMB     140      POPE     H8S      HDA2A    0.780000E-01   1.00800           0   0.00000       0.00000    
     25385 MEMB     140      POPE     C29      CD2C1A    2.33700       11.6110           0  -1.99000      0.750000    
     25386 MEMB     140      POPE     DC29     DRUD     -2.44800      0.400000           0   0.00000       0.00000    
     25387 MEMB     140      POPE     H91      HD2C1A   0.111000       1.00800           0   0.00000       0.00000    
     25388 MEMB     140      POPE     C210     CD2C1A    2.33700       11.6110           0  -1.99000      0.750000    
     25389 MEMB     140      POPE     DC210    DRUD     -2.44800      0.400000           0   0.00000       0.00000    
     25390 MEMB     140      POPE     H101     HD2C1A   0.111000       1.00800           0   0.00000       0.00000    
     25391 MEMB     140      POPE     C211     CD32A     2.07980       11.6110           0  -1.66000       1.30000    
     25392 MEMB     140      POPE     DC211    DRUD     -2.23580      0.400000           0   0.00000       0.00000    
     25393 MEMB     140      POPE     H11R     HDA2A    0.780000E-01   1.00800           0   0.00000       0.00000    
     25394 MEMB     140      POPE     H11S     HDA2A    0.780000E-01   1.00800           0   0.00000       0.00000    
     25395 MEMB     140      POPE     C212     CD32A     2.07980       11.6110           0  -1.66000       1.30000    
     25396 MEMB     140      POPE     DC212    DRUD     -2.23580      0.400000           0   0.00000       0.00000    
     25397 MEMB     140      POPE     H12R     HDA2A    0.780000E-01   1.00800           0   0.00000       0.00000    
     25398 MEMB     140      POPE     H12S     HDA2A    0.780000E-01   1.00800           0   0.00000       0.00000    
     25399 MEMB     140      POPE     C213     CD32A     2.07980       11.6110           0  -1.66000       1.30000    
     25400 MEMB     140      POPE     DC213    DRUD     -2.23580      0.400000           0   0.00000       0.00000    
     25401 MEMB     140      POPE     H13R     HDA2A    0.780000E-01   1.00800           0   0.00000       0.00000    
     25402 MEMB     140      POPE     H13S     HDA2A    0.780000E-01   1.00800           0   0.00000       0.00000    
     25403 MEMB     140      POPE     C214     CD32A     2.07980       11.6110           0  -1.66000       1.30000    
     25404 MEMB     140      POPE     DC214    DRUD     -2.23580      0.400000           0   0.00000       0.00000    
     25405 MEMB     140      POPE     H14R     HDA2A    0.780000E-01   1.00800           0   0.00000       0.00000    
     25406 MEMB     140      POPE     H14S     HDA2A    0.780000E-01   1.00800           0   0.00000       0.00000    
     25407 MEMB     140      POPE     C215     CD32A     2.07980       11.6110           0  -1.66000       1.30000    
     25408 MEMB     140      POPE     DC215    DRUD     -2.23580      0.400000           0   0.00000       0.00000    
     25409 MEMB     140      POPE     H15R     HDA2A    0.780000E-01   1.00800           0   0.00000       0.00000    
     25410 MEMB     140      POPE     H15S     HDA2A    0.780000E-01   1.00800           0   0.00000       0.00000    
     25411 MEMB     140      POPE     C216     CD32A     2.07980       11.6110           0  -1.66000       1.30000    
     25412 MEMB     140      POPE     DC216    DRUD     -2.23580      0.400000           0   0.00000       0.00000    
     25413 MEMB     140      POPE     H16R     HDA2A    0.780000E-01   1.00800           0   0.00000       0.00000    
     25414 MEMB     140      POPE     H16S     HDA2A    0.780000E-01   1.00800           0   0.00000       0.00000    
     25415 MEMB     140      POPE     C217     CD32A     2.07980       11.6110           0  -1.66000       1.30000    
     25416 MEMB     140      POPE     DC217    DRUD     -2.23580      0.400000           0   0.00000       0.00000    
     25417 MEMB     140      POPE     H17R     HDA2A    0.780000E-01   1.00800           0   0.00000       0.00000    
     25418 MEMB     140      POPE     H17S     HDA2A    0.780000E-01   1.00800           0   0.00000       0.00000    
     25419 MEMB     140      POPE     C218     CD33A     2.30820       11.6110           0  -2.05100       1.30000    
     25420 MEMB     140      POPE     DC218    DRUD     -2.48520      0.400000           0   0.00000       0.00000    
     25421 MEMB     140      POPE     H18R     HDA3A    0.590000E-01   1.00800           0   0.00000       0.00000    
     25422 MEMB     140      POPE     H18S     HDA3A    0.590000E-01   1.00800           0   0.00000       0.00000    
     25423 MEMB     140      POPE     H18T     HDA3A    0.590000E-01   1.00800           0   0.00000       0.00000    
     25424 MEMB     140      POPE     C33      CD32A     2.07980       11.6110           0  -1.66000       1.30000    
     25425 MEMB     140      POPE     DC33     DRUD     -2.23580      0.400000           0   0.00000       0.00000    
     25426 MEMB     140      POPE     H3X      HDA2A    0.780000E-01   1.00800           0   0.00000       0.00000    
     25427 MEMB     140      POPE     H3Y      HDA2A    0.780000E-01   1.00800           0   0.00000       0.00000    
     25428 MEMB     140      POPE     C34      CD32A     2.07980       11.6110           0  -1.66000       1.30000    
     25429 MEMB     140      POPE     DC34     DRUD     -2.23580      0.400000           0   0.00000       0.00000    
     25430 MEMB     140      POPE     H4X      HDA2A    0.780000E-01   1.00800           0   0.00000       0.00000    
     25431 MEMB     140      POPE     H4Y      HDA2A    0.780000E-01   1.00800           0   0.00000       0.00000    
     25432 MEMB     140      POPE     C35      CD32A     2.07980       11.6110           0  -1.66000       1.30000    
     25433 MEMB     140      POPE     DC35     DRUD     -2.23580      0.400000           0   0.00000       0.00000    
     25434 MEMB     140      POPE     H5X      HDA2A    0.780000E-01   1.00800           0   0.00000       0.00000    
     25435 MEMB     140      POPE     H5Y      HDA2A    0.780000E-01   1.00800           0   0.00000       0.00000    
     25436 MEMB     140      POPE     C36      CD32A     2.07980       11.6110           0  -1.66000       1.30000    
     25437 MEMB     140      POPE     DC36     DRUD     -2.23580      0.400000           0   0.00000       0.00000    
     25438 MEMB     140      POPE     H6X      HDA2A    0.780000E-01   1.00800           0   0.00000       0.00000    
     25439 MEMB     140      POPE     H6Y      HDA2A    0.780000E-01   1.00800           0   0.00000       0.00000    
     25440 MEMB     140      POPE     C37      CD32A     2.07980       11.6110           0  -1.66000       1.30000    
     25441 MEMB     140      POPE     DC37     DRUD     -2.23580      0.400000           0   0.00000       0.00000    
     25442 MEMB     140      POPE     H7X      HDA2A    0.780000E-01   1.00800           0   0.00000       0.00000    
     25443 MEMB     140      POPE     H7Y      HDA2A    0.780000E-01   1.00800           0   0.00000       0.00000    
     25444 MEMB     140      POPE     C38      CD32A     2.07980       11.6110           0  -1.66000       1.30000    
     25445 MEMB     140      POPE     DC38     DRUD     -2.23580      0.400000           0   0.00000       0.00000    
     25446 MEMB     140      POPE     H8X      HDA2A    0.780000E-01   1.00800           0   0.00000       0.00000    
     25447 MEMB     140      POPE     H8Y      HDA2A    0.780000E-01   1.00800           0   0.00000       0.00000    
     25448 MEMB     140      POPE     C39      CD32A     2.07980       11.6110           0  -1.66000       1.30000    
     25449 MEMB     140      POPE     DC39     DRUD     -2.23580      0.400000           0   0.00000       0.00000    
     25450 MEMB     140      POPE     H9X      HDA2A    0.780000E-01   1.00800           0   0.00000       0.00000    
     25451 MEMB     140      POPE     H9Y      HDA2A    0.780000E-01   1.00800           0   0.00000       0.00000    
     25452 MEMB     140      POPE     C310     CD32A     2.07980       11.6110           0  -1.66000       1.30000    
     25453 MEMB     140      POPE     DC310    DRUD     -2.23580      0.400000           0   0.00000       0.00000    
     25454 MEMB     140      POPE     H10X     HDA2A    0.780000E-01   1.00800           0   0.00000       0.00000    
     25455 MEMB     140      POPE     H10Y     HDA2A    0.780000E-01   1.00800           0   0.00000       0.00000    
     25456 MEMB     140      POPE     C311     CD32A     2.07980       11.6110           0  -1.66000       1.30000    
     25457 MEMB     140      POPE     DC311    DRUD     -2.23580      0.400000           0   0.00000       0.00000    
     25458 MEMB     140      POPE     H11X     HDA2A    0.780000E-01   1.00800           0   0.00000       0.00000    
     25459 MEMB     140      POPE     H11Y     HDA2A    0.780000E-01   1.00800           0   0.00000       0.00000    
     25460 MEMB     140      POPE     C312     CD32A     2.07980       11.6110           0  -1.66000       1.30000    
     25461 MEMB     140      POPE     DC312    DRUD     -2.23580      0.400000           0   0.00000       0.00000    
     25462 MEMB     140      POPE     H12X     HDA2A    0.780000E-01   1.00800           0   0.00000       0.00000    
     25463 MEMB     140      POPE     H12Y     HDA2A    0.780000E-01   1.00800           0   0.00000       0.00000    
     25464 MEMB     140      POPE     C313     CD32A     2.07980       11.6110           0  -1.66000       1.30000    
     25465 MEMB     140      POPE     DC313    DRUD     -2.23580      0.400000           0   0.00000       0.00000    
     25466 MEMB     140      POPE     H13X     HDA2A    0.780000E-01   1.00800           0   0.00000       0.00000    
     25467 MEMB     140      POPE     H13Y     HDA2A    0.780000E-01   1.00800           0   0.00000       0.00000    
     25468 MEMB     140      POPE     C314     CD32A     2.07980       11.6110           0  -1.66000       1.30000    
     25469 MEMB     140      POPE     DC314    DRUD     -2.23580      0.400000           0   0.00000       0.00000    
     25470 MEMB     140      POPE     H14X     HDA2A    0.780000E-01   1.00800           0   0.00000       0.00000    
     25471 MEMB     140      POPE     H14Y     HDA2A    0.780000E-01   1.00800           0   0.00000       0.00000    
     25472 MEMB     140      POPE     C315     CD32A     2.07980       11.6110           0  -1.66000       1.30000    
     25473 MEMB     140      POPE     DC315    DRUD     -2.23580      0.400000           0   0.00000       0.00000    
     25474 MEMB     140      POPE     H15X     HDA2A    0.780000E-01   1.00800           0   0.00000       0.00000    
     25475 MEMB     140      POPE     H15Y     HDA2A    0.780000E-01   1.00800           0   0.00000       0.00000    
     25476 MEMB     140      POPE     C316     CD33A     2.30820       11.6110           0  -2.05100       1.30000    
     25477 MEMB     140      POPE     DC316    DRUD     -2.48520      0.400000           0   0.00000       0.00000    
     25478 MEMB     140      POPE     H16X     HDA3A    0.590000E-01   1.00800           0   0.00000       0.00000    
     25479 MEMB     140      POPE     H16Y     HDA3A    0.590000E-01   1.00800           0   0.00000       0.00000    
     25480 MEMB     140      POPE     H16Z     HDA3A    0.590000E-01   1.00800           0   0.00000       0.00000    
     25481 MEMB     141      POPE     N        ND3P3A    1.62810       13.6070           0  -1.29800      0.895000    
     25482 MEMB     141      POPE     DN       DRUD     -1.97710      0.400000           0   0.00000       0.00000    
     25483 MEMB     141      POPE     HN1      HDP1B    0.340000       1.00800           0   0.00000       0.00000    
     25484 MEMB     141      POPE     HN2      HDP1B    0.340000       1.00800           0   0.00000       0.00000    
     25485 MEMB     141      POPE     HN3      HDP1B    0.340000       1.00800           0   0.00000       0.00000    
     25486 MEMB     141      POPE     C12      CD32A     2.27610       11.6110           0  -1.65600      0.895000    
     25487 MEMB     141      POPE     DC12     DRUD     -2.23310      0.400000           0   0.00000       0.00000    
     25488 MEMB     141      POPE     H12A     HDA2A    0.143000       1.00800           0   0.00000       0.00000    
     25489 MEMB     141      POPE     H12B     HDA2A    0.143000       1.00800           0   0.00000       0.00000    
     25490 MEMB     141      POPE     C11      CD32A     2.42220       11.6110           0  -1.64200      0.862000    
     25491 MEMB     141      POPE     DC11     DRUD     -2.22370      0.400000           0   0.00000       0.00000    
     25492 MEMB     141      POPE     H11A     HDA2A    0.260000E-01   1.00800           0   0.00000       0.00000    
     25493 MEMB     141      POPE     H11B     HDA2A    0.260000E-01   1.00800           0   0.00000       0.00000    
     25494 MEMB     141      POPE     P        PD1A      2.90360       30.5740           0 -0.974000       2.09800    
     25495 MEMB     141      POPE     DP       DRUD     -1.71260      0.400000           0   0.00000       0.00000    
     25496 MEMB     141      POPE     O13      OD2C2B   0.798400       15.5994           0 -0.931000       1.08300    
     25497 MEMB     141      POPE     DO13     DRUD     -1.67440      0.400000           0   0.00000       0.00000    
     25498 MEMB     141      POPE     O14      OD2C2B   0.798400       15.5994           0 -0.931000       1.08300    
     25499 MEMB     141      POPE     DO14     DRUD     -1.67440      0.400000           0   0.00000       0.00000    
     25500 MEMB     141      POPE     O11      OD30B     1.17720       15.5994           0 -0.901000      0.181000    
     25501 MEMB     141      POPE     DO11     DRUD     -1.64720      0.400000           0   0.00000       0.00000    
     25502 MEMB     141      POPE     O12      OD30B     1.17720       15.5994           0 -0.901000      0.181000    
     25503 MEMB     141      POPE     DO12     DRUD     -1.64720      0.400000           0   0.00000       0.00000    
     25504 MEMB     141      POPE     C1       CD32A     2.42220       11.6110           0  -1.64200      0.862000    
     25505 MEMB     141      POPE     DC1      DRUD     -2.22370      0.400000           0   0.00000       0.00000    
     25506 MEMB     141      POPE     HA       HDA2A    0.260000E-01   1.00800           0   0.00000       0.00000    
     25507 MEMB     141      POPE     HB       HDA2A    0.260000E-01   1.00800           0   0.00000       0.00000    
     25508 MEMB     141      POPE     C2       CD31C     2.52830       11.6110           0  -1.79700      0.410000    
     25509 MEMB     141      POPE     DC2      DRUD     -2.32630      0.400000           0   0.00000       0.00000    
     25510 MEMB     141      POPE     HS       HDA1A    0.116000       1.00800           0   0.00000       0.00000    
     25511 MEMB     141      POPE     O21      OD30CL    1.48470       15.5994           0 -0.732000      0.601000    
     25512 MEMB     141      POPE     DO21     DRUD     -1.48470      0.400000           0   0.00000       0.00000    
     25513 MEMB     141      POPE     C21      CD2O3B    2.72820       11.6110           0  -1.37000       1.74700    
     25514 MEMB     141      POPE     DC21     DRUD     -2.03120      0.400000           0   0.00000       0.00000    
     25515 MEMB     141      POPE     O22      OD2C3B    1.64990       15.5994           0 -0.904000      0.565000    
     25516 MEMB     141      POPE     DO22     DRUD     -1.64990      0.400000           0   0.00000       0.00000    
     25517 MEMB     141      POPE     C22      CD32C     2.24380       11.6110           0  -1.99300      0.410000    
     25518 MEMB     141      POPE     DC22     DRUD     -2.44980      0.400000           0   0.00000       0.00000    
     25519 MEMB     141      POPE     H2R      HDA2A    0.690000E-01   1.00800           0   0.00000       0.00000    
     25520 MEMB     141      POPE     H2S      HDA2A    0.690000E-01   1.00800           0   0.00000       0.00000    
     25521 MEMB     141      POPE     LP1A     LPD     -0.349000       0.00000          -1   0.00000       0.00000    
     25522 MEMB     141      POPE     LP1B     LPD     -0.258000       0.00000          -1   0.00000       0.00000    
     25523 MEMB     141      POPE     LPMA     LPD     -0.170000       0.00000          -1   0.00000       0.00000    
     25524 MEMB     141      POPE     LPMB     LPD     -0.170000       0.00000          -1   0.00000       0.00000    
     25525 MEMB     141      POPE     C3       CD32C     2.41230       11.6110           0  -1.79700      0.410000    
     25526 MEMB     141      POPE     DC3      DRUD     -2.32630      0.400000           0   0.00000       0.00000    
     25527 MEMB     141      POPE     HX       HDA2A    0.116000       1.00800           0   0.00000       0.00000    
     25528 MEMB     141      POPE     HY       HDA2A    0.116000       1.00800           0   0.00000       0.00000    
     25529 MEMB     141      POPE     O31      OD30CL    1.48470       15.5994           0 -0.732000      0.601000    
     25530 MEMB     141      POPE     DO31     DRUD     -1.48470      0.400000           0   0.00000       0.00000    
     25531 MEMB     141      POPE     C31      CD2O3B    2.72820       11.6110           0  -1.37000       1.74700    
     25532 MEMB     141      POPE     DC31     DRUD     -2.03120      0.400000           0   0.00000       0.00000    
     25533 MEMB     141      POPE     O32      OD2C3B    1.64990       15.5994           0 -0.904000      0.565000    
     25534 MEMB     141      POPE     DO32     DRUD     -1.64990      0.400000           0   0.00000       0.00000    
     25535 MEMB     141      POPE     C32      CD32C     2.24380       11.6110           0  -1.99300      0.410000    
     25536 MEMB     141      POPE     DC32     DRUD     -2.44980      0.400000           0   0.00000       0.00000    
     25537 MEMB     141      POPE     H2X      HDA2A    0.690000E-01   1.00800           0   0.00000       0.00000    
     25538 MEMB     141      POPE     H2Y      HDA2A    0.690000E-01   1.00800           0   0.00000       0.00000    
     25539 MEMB     141      POPE     LP1C     LPD     -0.349000       0.00000          -1   0.00000       0.00000    
     25540 MEMB     141      POPE     LP1D     LPD     -0.258000       0.00000          -1   0.00000       0.00000    
     25541 MEMB     141      POPE     LPMC     LPD     -0.170000       0.00000          -1   0.00000       0.00000    
     25542 MEMB     141      POPE     LPMD     LPD     -0.170000       0.00000          -1   0.00000       0.00000    
     25543 MEMB     141      POPE     C23      CD32A     2.07980       11.6110           0  -1.66000       1.30000    
     25544 MEMB     141      POPE     DC23     DRUD     -2.23580      0.400000           0   0.00000       0.00000    
     25545 MEMB     141      POPE     H3R      HDA2A    0.780000E-01   1.00800           0   0.00000       0.00000    
     25546 MEMB     141      POPE     H3S      HDA2A    0.780000E-01   1.00800           0   0.00000       0.00000    
     25547 MEMB     141      POPE     C24      CD32A     2.07980       11.6110           0  -1.66000       1.30000    
     25548 MEMB     141      POPE     DC24     DRUD     -2.23580      0.400000           0   0.00000       0.00000    
     25549 MEMB     141      POPE     H4R      HDA2A    0.780000E-01   1.00800           0   0.00000       0.00000    
     25550 MEMB     141      POPE     H4S      HDA2A    0.780000E-01   1.00800           0   0.00000       0.00000    
     25551 MEMB     141      POPE     C25      CD32A     2.07980       11.6110           0  -1.66000       1.30000    
     25552 MEMB     141      POPE     DC25     DRUD     -2.23580      0.400000           0   0.00000       0.00000    
     25553 MEMB     141      POPE     H5R      HDA2A    0.780000E-01   1.00800           0   0.00000       0.00000    
     25554 MEMB     141      POPE     H5S      HDA2A    0.780000E-01   1.00800           0   0.00000       0.00000    
     25555 MEMB     141      POPE     C26      CD32A     2.07980       11.6110           0  -1.66000       1.30000    
     25556 MEMB     141      POPE     DC26     DRUD     -2.23580      0.400000           0   0.00000       0.00000    
     25557 MEMB     141      POPE     H6R      HDA2A    0.780000E-01   1.00800           0   0.00000       0.00000    
     25558 MEMB     141      POPE     H6S      HDA2A    0.780000E-01   1.00800           0   0.00000       0.00000    
     25559 MEMB     141      POPE     C27      CD32A     2.07980       11.6110           0  -1.66000       1.30000    
     25560 MEMB     141      POPE     DC27     DRUD     -2.23580      0.400000           0   0.00000       0.00000    
     25561 MEMB     141      POPE     H7R      HDA2A    0.780000E-01   1.00800           0   0.00000       0.00000    
     25562 MEMB     141      POPE     H7S      HDA2A    0.780000E-01   1.00800           0   0.00000       0.00000    
     25563 MEMB     141      POPE     C28      CD32A     2.07980       11.6110           0  -1.66000       1.30000    
     25564 MEMB     141      POPE     DC28     DRUD     -2.23580      0.400000           0   0.00000       0.00000    
     25565 MEMB     141      POPE     H8R      HDA2A    0.780000E-01   1.00800           0   0.00000       0.00000    
     25566 MEMB     141      POPE     H8S      HDA2A    0.780000E-01   1.00800           0   0.00000       0.00000    
     25567 MEMB     141      POPE     C29      CD2C1A    2.33700       11.6110           0  -1.99000      0.750000    
     25568 MEMB     141      POPE     DC29     DRUD     -2.44800      0.400000           0   0.00000       0.00000    
     25569 MEMB     141      POPE     H91      HD2C1A   0.111000       1.00800           0   0.00000       0.00000    
     25570 MEMB     141      POPE     C210     CD2C1A    2.33700       11.6110           0  -1.99000      0.750000    
     25571 MEMB     141      POPE     DC210    DRUD     -2.44800      0.400000           0   0.00000       0.00000    
     25572 MEMB     141      POPE     H101     HD2C1A   0.111000       1.00800           0   0.00000       0.00000    
     25573 MEMB     141      POPE     C211     CD32A     2.07980       11.6110           0  -1.66000       1.30000    
     25574 MEMB     141      POPE     DC211    DRUD     -2.23580      0.400000           0   0.00000       0.00000    
     25575 MEMB     141      POPE     H11R     HDA2A    0.780000E-01   1.00800           0   0.00000       0.00000    
     25576 MEMB     141      POPE     H11S     HDA2A    0.780000E-01   1.00800           0   0.00000       0.00000    
     25577 MEMB     141      POPE     C212     CD32A     2.07980       11.6110           0  -1.66000       1.30000    
     25578 MEMB     141      POPE     DC212    DRUD     -2.23580      0.400000           0   0.00000       0.00000    
     25579 MEMB     141      POPE     H12R     HDA2A    0.780000E-01   1.00800           0   0.00000       0.00000    
     25580 MEMB     141      POPE     H12S     HDA2A    0.780000E-01   1.00800           0   0.00000       0.00000    
     25581 MEMB     141      POPE     C213     CD32A     2.07980       11.6110           0  -1.66000       1.30000    
     25582 MEMB     141      POPE     DC213    DRUD     -2.23580      0.400000           0   0.00000       0.00000    
     25583 MEMB     141      POPE     H13R     HDA2A    0.780000E-01   1.00800           0   0.00000       0.00000    
     25584 MEMB     141      POPE     H13S     HDA2A    0.780000E-01   1.00800           0   0.00000       0.00000    
     25585 MEMB     141      POPE     C214     CD32A     2.07980       11.6110           0  -1.66000       1.30000    
     25586 MEMB     141      POPE     DC214    DRUD     -2.23580      0.400000           0   0.00000       0.00000    
     25587 MEMB     141      POPE     H14R     HDA2A    0.780000E-01   1.00800           0   0.00000       0.00000    
     25588 MEMB     141      POPE     H14S     HDA2A    0.780000E-01   1.00800           0   0.00000       0.00000    
     25589 MEMB     141      POPE     C215     CD32A     2.07980       11.6110           0  -1.66000       1.30000    
     25590 MEMB     141      POPE     DC215    DRUD     -2.23580      0.400000           0   0.00000       0.00000    
     25591 MEMB     141      POPE     H15R     HDA2A    0.780000E-01   1.00800           0   0.00000       0.00000    
     25592 MEMB     141      POPE     H15S     HDA2A    0.780000E-01   1.00800           0   0.00000       0.00000    
     25593 MEMB     141      POPE     C216     CD32A     2.07980       11.6110           0  -1.66000       1.30000    
     25594 MEMB     141      POPE     DC216    DRUD     -2.23580      0.400000           0   0.00000       0.00000    
     25595 MEMB     141      POPE     H16R     HDA2A    0.780000E-01   1.00800           0   0.00000       0.00000    
     25596 MEMB     141      POPE     H16S     HDA2A    0.780000E-01   1.00800           0   0.00000       0.00000    
     25597 MEMB     141      POPE     C217     CD32A     2.07980       11.6110           0  -1.66000       1.30000    
     25598 MEMB     141      POPE     DC217    DRUD     -2.23580      0.400000           0   0.00000       0.00000    
     25599 MEMB     141      POPE     H17R     HDA2A    0.780000E-01   1.00800           0   0.00000       0.00000    
     25600 MEMB     141      POPE     H17S     HDA2A    0.780000E-01   1.00800           0   0.00000       0.00000    
     25601 MEMB     141      POPE     C218     CD33A     2.30820       11.6110           0  -2.05100       1.30000    
     25602 MEMB     141      POPE     DC218    DRUD     -2.48520      0.400000           0   0.00000       0.00000    
     25603 MEMB     141      POPE     H18R     HDA3A    0.590000E-01   1.00800           0   0.00000       0.00000    
     25604 MEMB     141      POPE     H18S     HDA3A    0.590000E-01   1.00800           0   0.00000       0.00000    
     25605 MEMB     141      POPE     H18T     HDA3A    0.590000E-01   1.00800           0   0.00000       0.00000    
     25606 MEMB     141      POPE     C33      CD32A     2.07980       11.6110           0  -1.66000       1.30000    
     25607 MEMB     141      POPE     DC33     DRUD     -2.23580      0.400000           0   0.00000       0.00000    
     25608 MEMB     141      POPE     H3X      HDA2A    0.780000E-01   1.00800           0   0.00000       0.00000    
     25609 MEMB     141      POPE     H3Y      HDA2A    0.780000E-01   1.00800           0   0.00000       0.00000    
     25610 MEMB     141      POPE     C34      CD32A     2.07980       11.6110           0  -1.66000       1.30000    
     25611 MEMB     141      POPE     DC34     DRUD     -2.23580      0.400000           0   0.00000       0.00000    
     25612 MEMB     141      POPE     H4X      HDA2A    0.780000E-01   1.00800           0   0.00000       0.00000    
     25613 MEMB     141      POPE     H4Y      HDA2A    0.780000E-01   1.00800           0   0.00000       0.00000    
     25614 MEMB     141      POPE     C35      CD32A     2.07980       11.6110           0  -1.66000       1.30000    
     25615 MEMB     141      POPE     DC35     DRUD     -2.23580      0.400000           0   0.00000       0.00000    
     25616 MEMB     141      POPE     H5X      HDA2A    0.780000E-01   1.00800           0   0.00000       0.00000    
     25617 MEMB     141      POPE     H5Y      HDA2A    0.780000E-01   1.00800           0   0.00000       0.00000    
     25618 MEMB     141      POPE     C36      CD32A     2.07980       11.6110           0  -1.66000       1.30000    
     25619 MEMB     141      POPE     DC36     DRUD     -2.23580      0.400000           0   0.00000       0.00000    
     25620 MEMB     141      POPE     H6X      HDA2A    0.780000E-01   1.00800           0   0.00000       0.00000    
     25621 MEMB     141      POPE     H6Y      HDA2A    0.780000E-01   1.00800           0   0.00000       0.00000    
     25622 MEMB     141      POPE     C37      CD32A     2.07980       11.6110           0  -1.66000       1.30000    
     25623 MEMB     141      POPE     DC37     DRUD     -2.23580      0.400000           0   0.00000       0.00000    
     25624 MEMB     141      POPE     H7X      HDA2A    0.780000E-01   1.00800           0   0.00000       0.00000    
     25625 MEMB     141      POPE     H7Y      HDA2A    0.780000E-01   1.00800           0   0.00000       0.00000    
     25626 MEMB     141      POPE     C38      CD32A     2.07980       11.6110           0  -1.66000       1.30000    
     25627 MEMB     141      POPE     DC38     DRUD     -2.23580      0.400000           0   0.00000       0.00000    
     25628 MEMB     141      POPE     H8X      HDA2A    0.780000E-01   1.00800           0   0.00000       0.00000    
     25629 MEMB     141      POPE     H8Y      HDA2A    0.780000E-01   1.00800           0   0.00000       0.00000    
     25630 MEMB     141      POPE     C39      CD32A     2.07980       11.6110           0  -1.66000       1.30000    
     25631 MEMB     141      POPE     DC39     DRUD     -2.23580      0.400000           0   0.00000       0.00000    
     25632 MEMB     141      POPE     H9X      HDA2A    0.780000E-01   1.00800           0   0.00000       0.00000    
     25633 MEMB     141      POPE     H9Y      HDA2A    0.780000E-01   1.00800           0   0.00000       0.00000    
     25634 MEMB     141      POPE     C310     CD32A     2.07980       11.6110           0  -1.66000       1.30000    
     25635 MEMB     141      POPE     DC310    DRUD     -2.23580      0.400000           0   0.00000       0.00000    
     25636 MEMB     141      POPE     H10X     HDA2A    0.780000E-01   1.00800           0   0.00000       0.00000    
     25637 MEMB     141      POPE     H10Y     HDA2A    0.780000E-01   1.00800           0   0.00000       0.00000    
     25638 MEMB     141      POPE     C311     CD32A     2.07980       11.6110           0  -1.66000       1.30000    
     25639 MEMB     141      POPE     DC311    DRUD     -2.23580      0.400000           0   0.00000       0.00000    
     25640 MEMB     141      POPE     H11X     HDA2A    0.780000E-01   1.00800           0   0.00000       0.00000    
     25641 MEMB     141      POPE     H11Y     HDA2A    0.780000E-01   1.00800           0   0.00000       0.00000    
     25642 MEMB     141      POPE     C312     CD32A     2.07980       11.6110           0  -1.66000       1.30000    
     25643 MEMB     141      POPE     DC312    DRUD     -2.23580      0.400000           0   0.00000       0.00000    
     25644 MEMB     141      POPE     H12X     HDA2A    0.780000E-01   1.00800           0   0.00000       0.00000    
     25645 MEMB     141      POPE     H12Y     HDA2A    0.780000E-01   1.00800           0   0.00000       0.00000    
     25646 MEMB     141      POPE     C313     CD32A     2.07980       11.6110           0  -1.66000       1.30000    
     25647 MEMB     141      POPE     DC313    DRUD     -2.23580      0.400000           0   0.00000       0.00000    
     25648 MEMB     141      POPE     H13X     HDA2A    0.780000E-01   1.00800           0   0.00000       0.00000    
     25649 MEMB     141      POPE     H13Y     HDA2A    0.780000E-01   1.00800           0   0.00000       0.00000    
     25650 MEMB     141      POPE     C314     CD32A     2.07980       11.6110           0  -1.66000       1.30000    
     25651 MEMB     141      POPE     DC314    DRUD     -2.23580      0.400000           0   0.00000       0.00000    
     25652 MEMB     141      POPE     H14X     HDA2A    0.780000E-01   1.00800           0   0.00000       0.00000    
     25653 MEMB     141      POPE     H14Y     HDA2A    0.780000E-01   1.00800           0   0.00000       0.00000    
     25654 MEMB     141      POPE     C315     CD32A     2.07980       11.6110           0  -1.66000       1.30000    
     25655 MEMB     141      POPE     DC315    DRUD     -2.23580      0.400000           0   0.00000       0.00000    
     25656 MEMB     141      POPE     H15X     HDA2A    0.780000E-01   1.00800           0   0.00000       0.00000    
     25657 MEMB     141      POPE     H15Y     HDA2A    0.780000E-01   1.00800           0   0.00000       0.00000    
     25658 MEMB     141      POPE     C316     CD33A     2.30820       11.6110           0  -2.05100       1.30000    
     25659 MEMB     141      POPE     DC316    DRUD     -2.48520      0.400000           0   0.00000       0.00000    
     25660 MEMB     141      POPE     H16X     HDA3A    0.590000E-01   1.00800           0   0.00000       0.00000    
     25661 MEMB     141      POPE     H16Y     HDA3A    0.590000E-01   1.00800           0   0.00000       0.00000    
     25662 MEMB     141      POPE     H16Z     HDA3A    0.590000E-01   1.00800           0   0.00000       0.00000    
     25663 MEMB     142      POPE     N        ND3P3A    1.62810       13.6070           0  -1.29800      0.895000    
     25664 MEMB     142      POPE     DN       DRUD     -1.97710      0.400000           0   0.00000       0.00000    
     25665 MEMB     142      POPE     HN1      HDP1B    0.340000       1.00800           0   0.00000       0.00000    
     25666 MEMB     142      POPE     HN2      HDP1B    0.340000       1.00800           0   0.00000       0.00000    
     25667 MEMB     142      POPE     HN3      HDP1B    0.340000       1.00800           0   0.00000       0.00000    
     25668 MEMB     142      POPE     C12      CD32A     2.27610       11.6110           0  -1.65600      0.895000    
     25669 MEMB     142      POPE     DC12     DRUD     -2.23310      0.400000           0   0.00000       0.00000    
     25670 MEMB     142      POPE     H12A     HDA2A    0.143000       1.00800           0   0.00000       0.00000    
     25671 MEMB     142      POPE     H12B     HDA2A    0.143000       1.00800           0   0.00000       0.00000    
     25672 MEMB     142      POPE     C11      CD32A     2.42220       11.6110           0  -1.64200      0.862000    
     25673 MEMB     142      POPE     DC11     DRUD     -2.22370      0.400000           0   0.00000       0.00000    
     25674 MEMB     142      POPE     H11A     HDA2A    0.260000E-01   1.00800           0   0.00000       0.00000    
     25675 MEMB     142      POPE     H11B     HDA2A    0.260000E-01   1.00800           0   0.00000       0.00000    
     25676 MEMB     142      POPE     P        PD1A      2.90360       30.5740           0 -0.974000       2.09800    
     25677 MEMB     142      POPE     DP       DRUD     -1.71260      0.400000           0   0.00000       0.00000    
     25678 MEMB     142      POPE     O13      OD2C2B   0.798400       15.5994           0 -0.931000       1.08300    
     25679 MEMB     142      POPE     DO13     DRUD     -1.67440      0.400000           0   0.00000       0.00000    
     25680 MEMB     142      POPE     O14      OD2C2B   0.798400       15.5994           0 -0.931000       1.08300    
     25681 MEMB     142      POPE     DO14     DRUD     -1.67440      0.400000           0   0.00000       0.00000    
     25682 MEMB     142      POPE     O11      OD30B     1.17720       15.5994           0 -0.901000      0.181000    
     25683 MEMB     142      POPE     DO11     DRUD     -1.64720      0.400000           0   0.00000       0.00000    
     25684 MEMB     142      POPE     O12      OD30B     1.17720       15.5994           0 -0.901000      0.181000    
     25685 MEMB     142      POPE     DO12     DRUD     -1.64720      0.400000           0   0.00000       0.00000    
     25686 MEMB     142      POPE     C1       CD32A     2.42220       11.6110           0  -1.64200      0.862000    
     25687 MEMB     142      POPE     DC1      DRUD     -2.22370      0.400000           0   0.00000       0.00000    
     25688 MEMB     142      POPE     HA       HDA2A    0.260000E-01   1.00800           0   0.00000       0.00000    
     25689 MEMB     142      POPE     HB       HDA2A    0.260000E-01   1.00800           0   0.00000       0.00000    
     25690 MEMB     142      POPE     C2       CD31C     2.52830       11.6110           0  -1.79700      0.410000    
     25691 MEMB     142      POPE     DC2      DRUD     -2.32630      0.400000           0   0.00000       0.00000    
     25692 MEMB     142      POPE     HS       HDA1A    0.116000       1.00800           0   0.00000       0.00000    
     25693 MEMB     142      POPE     O21      OD30CL    1.48470       15.5994           0 -0.732000      0.601000    
     25694 MEMB     142      POPE     DO21     DRUD     -1.48470      0.400000           0   0.00000       0.00000    
     25695 MEMB     142      POPE     C21      CD2O3B    2.72820       11.6110           0  -1.37000       1.74700    
     25696 MEMB     142      POPE     DC21     DRUD     -2.03120      0.400000           0   0.00000       0.00000    
     25697 MEMB     142      POPE     O22      OD2C3B    1.64990       15.5994           0 -0.904000      0.565000    
     25698 MEMB     142      POPE     DO22     DRUD     -1.64990      0.400000           0   0.00000       0.00000    
     25699 MEMB     142      POPE     C22      CD32C     2.24380       11.6110           0  -1.99300      0.410000    
     25700 MEMB     142      POPE     DC22     DRUD     -2.44980      0.400000           0   0.00000       0.00000    
     25701 MEMB     142      POPE     H2R      HDA2A    0.690000E-01   1.00800           0   0.00000       0.00000    
     25702 MEMB     142      POPE     H2S      HDA2A    0.690000E-01   1.00800           0   0.00000       0.00000    
     25703 MEMB     142      POPE     LP1A     LPD     -0.349000       0.00000          -1   0.00000       0.00000    
     25704 MEMB     142      POPE     LP1B     LPD     -0.258000       0.00000          -1   0.00000       0.00000    
     25705 MEMB     142      POPE     LPMA     LPD     -0.170000       0.00000          -1   0.00000       0.00000    
     25706 MEMB     142      POPE     LPMB     LPD     -0.170000       0.00000          -1   0.00000       0.00000    
     25707 MEMB     142      POPE     C3       CD32C     2.41230       11.6110           0  -1.79700      0.410000    
     25708 MEMB     142      POPE     DC3      DRUD     -2.32630      0.400000           0   0.00000       0.00000    
     25709 MEMB     142      POPE     HX       HDA2A    0.116000       1.00800           0   0.00000       0.00000    
     25710 MEMB     142      POPE     HY       HDA2A    0.116000       1.00800           0   0.00000       0.00000    
     25711 MEMB     142      POPE     O31      OD30CL    1.48470       15.5994           0 -0.732000      0.601000    
     25712 MEMB     142      POPE     DO31     DRUD     -1.48470      0.400000           0   0.00000       0.00000    
     25713 MEMB     142      POPE     C31      CD2O3B    2.72820       11.6110           0  -1.37000       1.74700    
     25714 MEMB     142      POPE     DC31     DRUD     -2.03120      0.400000           0   0.00000       0.00000    
     25715 MEMB     142      POPE     O32      OD2C3B    1.64990       15.5994           0 -0.904000      0.565000    
     25716 MEMB     142      POPE     DO32     DRUD     -1.64990      0.400000           0   0.00000       0.00000    
     25717 MEMB     142      POPE     C32      CD32C     2.24380       11.6110           0  -1.99300      0.410000    
     25718 MEMB     142      POPE     DC32     DRUD     -2.44980      0.400000           0   0.00000       0.00000    
     25719 MEMB     142      POPE     H2X      HDA2A    0.690000E-01   1.00800           0   0.00000       0.00000    
     25720 MEMB     142      POPE     H2Y      HDA2A    0.690000E-01   1.00800           0   0.00000       0.00000    
     25721 MEMB     142      POPE     LP1C     LPD     -0.349000       0.00000          -1   0.00000       0.00000    
     25722 MEMB     142      POPE     LP1D     LPD     -0.258000       0.00000          -1   0.00000       0.00000    
     25723 MEMB     142      POPE     LPMC     LPD     -0.170000       0.00000          -1   0.00000       0.00000    
     25724 MEMB     142      POPE     LPMD     LPD     -0.170000       0.00000          -1   0.00000       0.00000    
     25725 MEMB     142      POPE     C23      CD32A     2.07980       11.6110           0  -1.66000       1.30000    
     25726 MEMB     142      POPE     DC23     DRUD     -2.23580      0.400000           0   0.00000       0.00000    
     25727 MEMB     142      POPE     H3R      HDA2A    0.780000E-01   1.00800           0   0.00000       0.00000    
     25728 MEMB     142      POPE     H3S      HDA2A    0.780000E-01   1.00800           0   0.00000       0.00000    
     25729 MEMB     142      POPE     C24      CD32A     2.07980       11.6110           0  -1.66000       1.30000    
     25730 MEMB     142      POPE     DC24     DRUD     -2.23580      0.400000           0   0.00000       0.00000    
     25731 MEMB     142      POPE     H4R      HDA2A    0.780000E-01   1.00800           0   0.00000       0.00000    
     25732 MEMB     142      POPE     H4S      HDA2A    0.780000E-01   1.00800           0   0.00000       0.00000    
     25733 MEMB     142      POPE     C25      CD32A     2.07980       11.6110           0  -1.66000       1.30000    
     25734 MEMB     142      POPE     DC25     DRUD     -2.23580      0.400000           0   0.00000       0.00000    
     25735 MEMB     142      POPE     H5R      HDA2A    0.780000E-01   1.00800           0   0.00000       0.00000    
     25736 MEMB     142      POPE     H5S      HDA2A    0.780000E-01   1.00800           0   0.00000       0.00000    
     25737 MEMB     142      POPE     C26      CD32A     2.07980       11.6110           0  -1.66000       1.30000    
     25738 MEMB     142      POPE     DC26     DRUD     -2.23580      0.400000           0   0.00000       0.00000    
     25739 MEMB     142      POPE     H6R      HDA2A    0.780000E-01   1.00800           0   0.00000       0.00000    
     25740 MEMB     142      POPE     H6S      HDA2A    0.780000E-01   1.00800           0   0.00000       0.00000    
     25741 MEMB     142      POPE     C27      CD32A     2.07980       11.6110           0  -1.66000       1.30000    
     25742 MEMB     142      POPE     DC27     DRUD     -2.23580      0.400000           0   0.00000       0.00000    
     25743 MEMB     142      POPE     H7R      HDA2A    0.780000E-01   1.00800           0   0.00000       0.00000    
     25744 MEMB     142      POPE     H7S      HDA2A    0.780000E-01   1.00800           0   0.00000       0.00000    
     25745 MEMB     142      POPE     C28      CD32A     2.07980       11.6110           0  -1.66000       1.30000    
     25746 MEMB     142      POPE     DC28     DRUD     -2.23580      0.400000           0   0.00000       0.00000    
     25747 MEMB     142      POPE     H8R      HDA2A    0.780000E-01   1.00800           0   0.00000       0.00000    
     25748 MEMB     142      POPE     H8S      HDA2A    0.780000E-01   1.00800           0   0.00000       0.00000    
     25749 MEMB     142      POPE     C29      CD2C1A    2.33700       11.6110           0  -1.99000      0.750000    
     25750 MEMB     142      POPE     DC29     DRUD     -2.44800      0.400000           0   0.00000       0.00000    
     25751 MEMB     142      POPE     H91      HD2C1A   0.111000       1.00800           0   0.00000       0.00000    
     25752 MEMB     142      POPE     C210     CD2C1A    2.33700       11.6110           0  -1.99000      0.750000    
     25753 MEMB     142      POPE     DC210    DRUD     -2.44800      0.400000           0   0.00000       0.00000    
     25754 MEMB     142      POPE     H101     HD2C1A   0.111000       1.00800           0   0.00000       0.00000    
     25755 MEMB     142      POPE     C211     CD32A     2.07980       11.6110           0  -1.66000       1.30000    
     25756 MEMB     142      POPE     DC211    DRUD     -2.23580      0.400000           0   0.00000       0.00000    
     25757 MEMB     142      POPE     H11R     HDA2A    0.780000E-01   1.00800           0   0.00000       0.00000    
     25758 MEMB     142      POPE     H11S     HDA2A    0.780000E-01   1.00800           0   0.00000       0.00000    
     25759 MEMB     142      POPE     C212     CD32A     2.07980       11.6110           0  -1.66000       1.30000    
     25760 MEMB     142      POPE     DC212    DRUD     -2.23580      0.400000           0   0.00000       0.00000    
     25761 MEMB     142      POPE     H12R     HDA2A    0.780000E-01   1.00800           0   0.00000       0.00000    
     25762 MEMB     142      POPE     H12S     HDA2A    0.780000E-01   1.00800           0   0.00000       0.00000    
     25763 MEMB     142      POPE     C213     CD32A     2.07980       11.6110           0  -1.66000       1.30000    
     25764 MEMB     142      POPE     DC213    DRUD     -2.23580      0.400000           0   0.00000       0.00000    
     25765 MEMB     142      POPE     H13R     HDA2A    0.780000E-01   1.00800           0   0.00000       0.00000    
     25766 MEMB     142      POPE     H13S     HDA2A    0.780000E-01   1.00800           0   0.00000       0.00000    
     25767 MEMB     142      POPE     C214     CD32A     2.07980       11.6110           0  -1.66000       1.30000    
     25768 MEMB     142      POPE     DC214    DRUD     -2.23580      0.400000           0   0.00000       0.00000    
     25769 MEMB     142      POPE     H14R     HDA2A    0.780000E-01   1.00800           0   0.00000       0.00000    
     25770 MEMB     142      POPE     H14S     HDA2A    0.780000E-01   1.00800           0   0.00000       0.00000    
     25771 MEMB     142      POPE     C215     CD32A     2.07980       11.6110           0  -1.66000       1.30000    
     25772 MEMB     142      POPE     DC215    DRUD     -2.23580      0.400000           0   0.00000       0.00000    
     25773 MEMB     142      POPE     H15R     HDA2A    0.780000E-01   1.00800           0   0.00000       0.00000    
     25774 MEMB     142      POPE     H15S     HDA2A    0.780000E-01   1.00800           0   0.00000       0.00000    
     25775 MEMB     142      POPE     C216     CD32A     2.07980       11.6110           0  -1.66000       1.30000    
     25776 MEMB     142      POPE     DC216    DRUD     -2.23580      0.400000           0   0.00000       0.00000    
     25777 MEMB     142      POPE     H16R     HDA2A    0.780000E-01   1.00800           0   0.00000       0.00000    
     25778 MEMB     142      POPE     H16S     HDA2A    0.780000E-01   1.00800           0   0.00000       0.00000    
     25779 MEMB     142      POPE     C217     CD32A     2.07980       11.6110           0  -1.66000       1.30000    
     25780 MEMB     142      POPE     DC217    DRUD     -2.23580      0.400000           0   0.00000       0.00000    
     25781 MEMB     142      POPE     H17R     HDA2A    0.780000E-01   1.00800           0   0.00000       0.00000    
     25782 MEMB     142      POPE     H17S     HDA2A    0.780000E-01   1.00800           0   0.00000       0.00000    
     25783 MEMB     142      POPE     C218     CD33A     2.30820       11.6110           0  -2.05100       1.30000    
     25784 MEMB     142      POPE     DC218    DRUD     -2.48520      0.400000           0   0.00000       0.00000    
     25785 MEMB     142      POPE     H18R     HDA3A    0.590000E-01   1.00800           0   0.00000       0.00000    
     25786 MEMB     142      POPE     H18S     HDA3A    0.590000E-01   1.00800           0   0.00000       0.00000    
     25787 MEMB     142      POPE     H18T     HDA3A    0.590000E-01   1.00800           0   0.00000       0.00000    
     25788 MEMB     142      POPE     C33      CD32A     2.07980       11.6110           0  -1.66000       1.30000    
     25789 MEMB     142      POPE     DC33     DRUD     -2.23580      0.400000           0   0.00000       0.00000    
     25790 MEMB     142      POPE     H3X      HDA2A    0.780000E-01   1.00800           0   0.00000       0.00000    
     25791 MEMB     142      POPE     H3Y      HDA2A    0.780000E-01   1.00800           0   0.00000       0.00000    
     25792 MEMB     142      POPE     C34      CD32A     2.07980       11.6110           0  -1.66000       1.30000    
     25793 MEMB     142      POPE     DC34     DRUD     -2.23580      0.400000           0   0.00000       0.00000    
     25794 MEMB     142      POPE     H4X      HDA2A    0.780000E-01   1.00800           0   0.00000       0.00000    
     25795 MEMB     142      POPE     H4Y      HDA2A    0.780000E-01   1.00800           0   0.00000       0.00000    
     25796 MEMB     142      POPE     C35      CD32A     2.07980       11.6110           0  -1.66000       1.30000    
     25797 MEMB     142      POPE     DC35     DRUD     -2.23580      0.400000           0   0.00000       0.00000    
     25798 MEMB     142      POPE     H5X      HDA2A    0.780000E-01   1.00800           0   0.00000       0.00000    
     25799 MEMB     142      POPE     H5Y      HDA2A    0.780000E-01   1.00800           0   0.00000       0.00000    
     25800 MEMB     142      POPE     C36      CD32A     2.07980       11.6110           0  -1.66000       1.30000    
     25801 MEMB     142      POPE     DC36     DRUD     -2.23580      0.400000           0   0.00000       0.00000    
     25802 MEMB     142      POPE     H6X      HDA2A    0.780000E-01   1.00800           0   0.00000       0.00000    
     25803 MEMB     142      POPE     H6Y      HDA2A    0.780000E-01   1.00800           0   0.00000       0.00000    
     25804 MEMB     142      POPE     C37      CD32A     2.07980       11.6110           0  -1.66000       1.30000    
     25805 MEMB     142      POPE     DC37     DRUD     -2.23580      0.400000           0   0.00000       0.00000    
     25806 MEMB     142      POPE     H7X      HDA2A    0.780000E-01   1.00800           0   0.00000       0.00000    
     25807 MEMB     142      POPE     H7Y      HDA2A    0.780000E-01   1.00800           0   0.00000       0.00000    
     25808 MEMB     142      POPE     C38      CD32A     2.07980       11.6110           0  -1.66000       1.30000    
     25809 MEMB     142      POPE     DC38     DRUD     -2.23580      0.400000           0   0.00000       0.00000    
     25810 MEMB     142      POPE     H8X      HDA2A    0.780000E-01   1.00800           0   0.00000       0.00000    
     25811 MEMB     142      POPE     H8Y      HDA2A    0.780000E-01   1.00800           0   0.00000       0.00000    
     25812 MEMB     142      POPE     C39      CD32A     2.07980       11.6110           0  -1.66000       1.30000    
     25813 MEMB     142      POPE     DC39     DRUD     -2.23580      0.400000           0   0.00000       0.00000    
     25814 MEMB     142      POPE     H9X      HDA2A    0.780000E-01   1.00800           0   0.00000       0.00000    
     25815 MEMB     142      POPE     H9Y      HDA2A    0.780000E-01   1.00800           0   0.00000       0.00000    
     25816 MEMB     142      POPE     C310     CD32A     2.07980       11.6110           0  -1.66000       1.30000    
     25817 MEMB     142      POPE     DC310    DRUD     -2.23580      0.400000           0   0.00000       0.00000    
     25818 MEMB     142      POPE     H10X     HDA2A    0.780000E-01   1.00800           0   0.00000       0.00000    
     25819 MEMB     142      POPE     H10Y     HDA2A    0.780000E-01   1.00800           0   0.00000       0.00000    
     25820 MEMB     142      POPE     C311     CD32A     2.07980       11.6110           0  -1.66000       1.30000    
     25821 MEMB     142      POPE     DC311    DRUD     -2.23580      0.400000           0   0.00000       0.00000    
     25822 MEMB     142      POPE     H11X     HDA2A    0.780000E-01   1.00800           0   0.00000       0.00000    
     25823 MEMB     142      POPE     H11Y     HDA2A    0.780000E-01   1.00800           0   0.00000       0.00000    
     25824 MEMB     142      POPE     C312     CD32A     2.07980       11.6110           0  -1.66000       1.30000    
     25825 MEMB     142      POPE     DC312    DRUD     -2.23580      0.400000           0   0.00000       0.00000    
     25826 MEMB     142      POPE     H12X     HDA2A    0.780000E-01   1.00800           0   0.00000       0.00000    
     25827 MEMB     142      POPE     H12Y     HDA2A    0.780000E-01   1.00800           0   0.00000       0.00000    
     25828 MEMB     142      POPE     C313     CD32A     2.07980       11.6110           0  -1.66000       1.30000    
     25829 MEMB     142      POPE     DC313    DRUD     -2.23580      0.400000           0   0.00000       0.00000    
     25830 MEMB     142      POPE     H13X     HDA2A    0.780000E-01   1.00800           0   0.00000       0.00000    
     25831 MEMB     142      POPE     H13Y     HDA2A    0.780000E-01   1.00800           0   0.00000       0.00000    
     25832 MEMB     142      POPE     C314     CD32A     2.07980       11.6110           0  -1.66000       1.30000    
     25833 MEMB     142      POPE     DC314    DRUD     -2.23580      0.400000           0   0.00000       0.00000    
     25834 MEMB     142      POPE     H14X     HDA2A    0.780000E-01   1.00800           0   0.00000       0.00000    
     25835 MEMB     142      POPE     H14Y     HDA2A    0.780000E-01   1.00800           0   0.00000       0.00000    
     25836 MEMB     142      POPE     C315     CD32A     2.07980       11.6110           0  -1.66000       1.30000    
     25837 MEMB     142      POPE     DC315    DRUD     -2.23580      0.400000           0   0.00000       0.00000    
     25838 MEMB     142      POPE     H15X     HDA2A    0.780000E-01   1.00800           0   0.00000       0.00000    
     25839 MEMB     142      POPE     H15Y     HDA2A    0.780000E-01   1.00800           0   0.00000       0.00000    
     25840 MEMB     142      POPE     C316     CD33A     2.30820       11.6110           0  -2.05100       1.30000    
     25841 MEMB     142      POPE     DC316    DRUD     -2.48520      0.400000           0   0.00000       0.00000    
     25842 MEMB     142      POPE     H16X     HDA3A    0.590000E-01   1.00800           0   0.00000       0.00000    
     25843 MEMB     142      POPE     H16Y     HDA3A    0.590000E-01   1.00800           0   0.00000       0.00000    
     25844 MEMB     142      POPE     H16Z     HDA3A    0.590000E-01   1.00800           0   0.00000       0.00000    
     25845 MEMB     143      POPE     N        ND3P3A    1.62810       13.6070           0  -1.29800      0.895000    
     25846 MEMB     143      POPE     DN       DRUD     -1.97710      0.400000           0   0.00000       0.00000    
     25847 MEMB     143      POPE     HN1      HDP1B    0.340000       1.00800           0   0.00000       0.00000    
     25848 MEMB     143      POPE     HN2      HDP1B    0.340000       1.00800           0   0.00000       0.00000    
     25849 MEMB     143      POPE     HN3      HDP1B    0.340000       1.00800           0   0.00000       0.00000    
     25850 MEMB     143      POPE     C12      CD32A     2.27610       11.6110           0  -1.65600      0.895000    
     25851 MEMB     143      POPE     DC12     DRUD     -2.23310      0.400000           0   0.00000       0.00000    
     25852 MEMB     143      POPE     H12A     HDA2A    0.143000       1.00800           0   0.00000       0.00000    
     25853 MEMB     143      POPE     H12B     HDA2A    0.143000       1.00800           0   0.00000       0.00000    
     25854 MEMB     143      POPE     C11      CD32A     2.42220       11.6110           0  -1.64200      0.862000    
     25855 MEMB     143      POPE     DC11     DRUD     -2.22370      0.400000           0   0.00000       0.00000    
     25856 MEMB     143      POPE     H11A     HDA2A    0.260000E-01   1.00800           0   0.00000       0.00000    
     25857 MEMB     143      POPE     H11B     HDA2A    0.260000E-01   1.00800           0   0.00000       0.00000    
     25858 MEMB     143      POPE     P        PD1A      2.90360       30.5740           0 -0.974000       2.09800    
     25859 MEMB     143      POPE     DP       DRUD     -1.71260      0.400000           0   0.00000       0.00000    
     25860 MEMB     143      POPE     O13      OD2C2B   0.798400       15.5994           0 -0.931000       1.08300    
     25861 MEMB     143      POPE     DO13     DRUD     -1.67440      0.400000           0   0.00000       0.00000    
     25862 MEMB     143      POPE     O14      OD2C2B   0.798400       15.5994           0 -0.931000       1.08300    
     25863 MEMB     143      POPE     DO14     DRUD     -1.67440      0.400000           0   0.00000       0.00000    
     25864 MEMB     143      POPE     O11      OD30B     1.17720       15.5994           0 -0.901000      0.181000    
     25865 MEMB     143      POPE     DO11     DRUD     -1.64720      0.400000           0   0.00000       0.00000    
     25866 MEMB     143      POPE     O12      OD30B     1.17720       15.5994           0 -0.901000      0.181000    
     25867 MEMB     143      POPE     DO12     DRUD     -1.64720      0.400000           0   0.00000       0.00000    
     25868 MEMB     143      POPE     C1       CD32A     2.42220       11.6110           0  -1.64200      0.862000    
     25869 MEMB     143      POPE     DC1      DRUD     -2.22370      0.400000           0   0.00000       0.00000    
     25870 MEMB     143      POPE     HA       HDA2A    0.260000E-01   1.00800           0   0.00000       0.00000    
     25871 MEMB     143      POPE     HB       HDA2A    0.260000E-01   1.00800           0   0.00000       0.00000    
     25872 MEMB     143      POPE     C2       CD31C     2.52830       11.6110           0  -1.79700      0.410000    
     25873 MEMB     143      POPE     DC2      DRUD     -2.32630      0.400000           0   0.00000       0.00000    
     25874 MEMB     143      POPE     HS       HDA1A    0.116000       1.00800           0   0.00000       0.00000    
     25875 MEMB     143      POPE     O21      OD30CL    1.48470       15.5994           0 -0.732000      0.601000    
     25876 MEMB     143      POPE     DO21     DRUD     -1.48470      0.400000           0   0.00000       0.00000    
     25877 MEMB     143      POPE     C21      CD2O3B    2.72820       11.6110           0  -1.37000       1.74700    
     25878 MEMB     143      POPE     DC21     DRUD     -2.03120      0.400000           0   0.00000       0.00000    
     25879 MEMB     143      POPE     O22      OD2C3B    1.64990       15.5994           0 -0.904000      0.565000    
     25880 MEMB     143      POPE     DO22     DRUD     -1.64990      0.400000           0   0.00000       0.00000    
     25881 MEMB     143      POPE     C22      CD32C     2.24380       11.6110           0  -1.99300      0.410000    
     25882 MEMB     143      POPE     DC22     DRUD     -2.44980      0.400000           0   0.00000       0.00000    
     25883 MEMB     143      POPE     H2R      HDA2A    0.690000E-01   1.00800           0   0.00000       0.00000    
     25884 MEMB     143      POPE     H2S      HDA2A    0.690000E-01   1.00800           0   0.00000       0.00000    
     25885 MEMB     143      POPE     LP1A     LPD     -0.349000       0.00000          -1   0.00000       0.00000    
     25886 MEMB     143      POPE     LP1B     LPD     -0.258000       0.00000          -1   0.00000       0.00000    
     25887 MEMB     143      POPE     LPMA     LPD     -0.170000       0.00000          -1   0.00000       0.00000    
     25888 MEMB     143      POPE     LPMB     LPD     -0.170000       0.00000          -1   0.00000       0.00000    
     25889 MEMB     143      POPE     C3       CD32C     2.41230       11.6110           0  -1.79700      0.410000    
     25890 MEMB     143      POPE     DC3      DRUD     -2.32630      0.400000           0   0.00000       0.00000    
     25891 MEMB     143      POPE     HX       HDA2A    0.116000       1.00800           0   0.00000       0.00000    
     25892 MEMB     143      POPE     HY       HDA2A    0.116000       1.00800           0   0.00000       0.00000    
     25893 MEMB     143      POPE     O31      OD30CL    1.48470       15.5994           0 -0.732000      0.601000    
     25894 MEMB     143      POPE     DO31     DRUD     -1.48470      0.400000           0   0.00000       0.00000    
     25895 MEMB     143      POPE     C31      CD2O3B    2.72820       11.6110           0  -1.37000       1.74700    
     25896 MEMB     143      POPE     DC31     DRUD     -2.03120      0.400000           0   0.00000       0.00000    
     25897 MEMB     143      POPE     O32      OD2C3B    1.64990       15.5994           0 -0.904000      0.565000    
     25898 MEMB     143      POPE     DO32     DRUD     -1.64990      0.400000           0   0.00000       0.00000    
     25899 MEMB     143      POPE     C32      CD32C     2.24380       11.6110           0  -1.99300      0.410000    
     25900 MEMB     143      POPE     DC32     DRUD     -2.44980      0.400000           0   0.00000       0.00000    
     25901 MEMB     143      POPE     H2X      HDA2A    0.690000E-01   1.00800           0   0.00000       0.00000    
     25902 MEMB     143      POPE     H2Y      HDA2A    0.690000E-01   1.00800           0   0.00000       0.00000    
     25903 MEMB     143      POPE     LP1C     LPD     -0.349000       0.00000          -1   0.00000       0.00000    
     25904 MEMB     143      POPE     LP1D     LPD     -0.258000       0.00000          -1   0.00000       0.00000    
     25905 MEMB     143      POPE     LPMC     LPD     -0.170000       0.00000          -1   0.00000       0.00000    
     25906 MEMB     143      POPE     LPMD     LPD     -0.170000       0.00000          -1   0.00000       0.00000    
     25907 MEMB     143      POPE     C23      CD32A     2.07980       11.6110           0  -1.66000       1.30000    
     25908 MEMB     143      POPE     DC23     DRUD     -2.23580      0.400000           0   0.00000       0.00000    
     25909 MEMB     143      POPE     H3R      HDA2A    0.780000E-01   1.00800           0   0.00000       0.00000    
     25910 MEMB     143      POPE     H3S      HDA2A    0.780000E-01   1.00800           0   0.00000       0.00000    
     25911 MEMB     143      POPE     C24      CD32A     2.07980       11.6110           0  -1.66000       1.30000    
     25912 MEMB     143      POPE     DC24     DRUD     -2.23580      0.400000           0   0.00000       0.00000    
     25913 MEMB     143      POPE     H4R      HDA2A    0.780000E-01   1.00800           0   0.00000       0.00000    
     25914 MEMB     143      POPE     H4S      HDA2A    0.780000E-01   1.00800           0   0.00000       0.00000    
     25915 MEMB     143      POPE     C25      CD32A     2.07980       11.6110           0  -1.66000       1.30000    
     25916 MEMB     143      POPE     DC25     DRUD     -2.23580      0.400000           0   0.00000       0.00000    
     25917 MEMB     143      POPE     H5R      HDA2A    0.780000E-01   1.00800           0   0.00000       0.00000    
     25918 MEMB     143      POPE     H5S      HDA2A    0.780000E-01   1.00800           0   0.00000       0.00000    
     25919 MEMB     143      POPE     C26      CD32A     2.07980       11.6110           0  -1.66000       1.30000    
     25920 MEMB     143      POPE     DC26     DRUD     -2.23580      0.400000           0   0.00000       0.00000    
     25921 MEMB     143      POPE     H6R      HDA2A    0.780000E-01   1.00800           0   0.00000       0.00000    
     25922 MEMB     143      POPE     H6S      HDA2A    0.780000E-01   1.00800           0   0.00000       0.00000    
     25923 MEMB     143      POPE     C27      CD32A     2.07980       11.6110           0  -1.66000       1.30000    
     25924 MEMB     143      POPE     DC27     DRUD     -2.23580      0.400000           0   0.00000       0.00000    
     25925 MEMB     143      POPE     H7R      HDA2A    0.780000E-01   1.00800           0   0.00000       0.00000    
     25926 MEMB     143      POPE     H7S      HDA2A    0.780000E-01   1.00800           0   0.00000       0.00000    
     25927 MEMB     143      POPE     C28      CD32A     2.07980       11.6110           0  -1.66000       1.30000    
     25928 MEMB     143      POPE     DC28     DRUD     -2.23580      0.400000           0   0.00000       0.00000    
     25929 MEMB     143      POPE     H8R      HDA2A    0.780000E-01   1.00800           0   0.00000       0.00000    
     25930 MEMB     143      POPE     H8S      HDA2A    0.780000E-01   1.00800           0   0.00000       0.00000    
     25931 MEMB     143      POPE     C29      CD2C1A    2.33700       11.6110           0  -1.99000      0.750000    
     25932 MEMB     143      POPE     DC29     DRUD     -2.44800      0.400000           0   0.00000       0.00000    
     25933 MEMB     143      POPE     H91      HD2C1A   0.111000       1.00800           0   0.00000       0.00000    
     25934 MEMB     143      POPE     C210     CD2C1A    2.33700       11.6110           0  -1.99000      0.750000    
     25935 MEMB     143      POPE     DC210    DRUD     -2.44800      0.400000           0   0.00000       0.00000    
     25936 MEMB     143      POPE     H101     HD2C1A   0.111000       1.00800           0   0.00000       0.00000    
     25937 MEMB     143      POPE     C211     CD32A     2.07980       11.6110           0  -1.66000       1.30000    
     25938 MEMB     143      POPE     DC211    DRUD     -2.23580      0.400000           0   0.00000       0.00000    
     25939 MEMB     143      POPE     H11R     HDA2A    0.780000E-01   1.00800           0   0.00000       0.00000    
     25940 MEMB     143      POPE     H11S     HDA2A    0.780000E-01   1.00800           0   0.00000       0.00000    
     25941 MEMB     143      POPE     C212     CD32A     2.07980       11.6110           0  -1.66000       1.30000    
     25942 MEMB     143      POPE     DC212    DRUD     -2.23580      0.400000           0   0.00000       0.00000    
     25943 MEMB     143      POPE     H12R     HDA2A    0.780000E-01   1.00800           0   0.00000       0.00000    
     25944 MEMB     143      POPE     H12S     HDA2A    0.780000E-01   1.00800           0   0.00000       0.00000    
     25945 MEMB     143      POPE     C213     CD32A     2.07980       11.6110           0  -1.66000       1.30000    
     25946 MEMB     143      POPE     DC213    DRUD     -2.23580      0.400000           0   0.00000       0.00000    
     25947 MEMB     143      POPE     H13R     HDA2A    0.780000E-01   1.00800           0   0.00000       0.00000    
     25948 MEMB     143      POPE     H13S     HDA2A    0.780000E-01   1.00800           0   0.00000       0.00000    
     25949 MEMB     143      POPE     C214     CD32A     2.07980       11.6110           0  -1.66000       1.30000    
     25950 MEMB     143      POPE     DC214    DRUD     -2.23580      0.400000           0   0.00000       0.00000    
     25951 MEMB     143      POPE     H14R     HDA2A    0.780000E-01   1.00800           0   0.00000       0.00000    
     25952 MEMB     143      POPE     H14S     HDA2A    0.780000E-01   1.00800           0   0.00000       0.00000    
     25953 MEMB     143      POPE     C215     CD32A     2.07980       11.6110           0  -1.66000       1.30000    
     25954 MEMB     143      POPE     DC215    DRUD     -2.23580      0.400000           0   0.00000       0.00000    
     25955 MEMB     143      POPE     H15R     HDA2A    0.780000E-01   1.00800           0   0.00000       0.00000    
     25956 MEMB     143      POPE     H15S     HDA2A    0.780000E-01   1.00800           0   0.00000       0.00000    
     25957 MEMB     143      POPE     C216     CD32A     2.07980       11.6110           0  -1.66000       1.30000    
     25958 MEMB     143      POPE     DC216    DRUD     -2.23580      0.400000           0   0.00000       0.00000    
     25959 MEMB     143      POPE     H16R     HDA2A    0.780000E-01   1.00800           0   0.00000       0.00000    
     25960 MEMB     143      POPE     H16S     HDA2A    0.780000E-01   1.00800           0   0.00000       0.00000    
     25961 MEMB     143      POPE     C217     CD32A     2.07980       11.6110           0  -1.66000       1.30000    
     25962 MEMB     143      POPE     DC217    DRUD     -2.23580      0.400000           0   0.00000       0.00000    
     25963 MEMB     143      POPE     H17R     HDA2A    0.780000E-01   1.00800           0   0.00000       0.00000    
     25964 MEMB     143      POPE     H17S     HDA2A    0.780000E-01   1.00800           0   0.00000       0.00000    
     25965 MEMB     143      POPE     C218     CD33A     2.30820       11.6110           0  -2.05100       1.30000    
     25966 MEMB     143      POPE     DC218    DRUD     -2.48520      0.400000           0   0.00000       0.00000    
     25967 MEMB     143      POPE     H18R     HDA3A    0.590000E-01   1.00800           0   0.00000       0.00000    
     25968 MEMB     143      POPE     H18S     HDA3A    0.590000E-01   1.00800           0   0.00000       0.00000    
     25969 MEMB     143      POPE     H18T     HDA3A    0.590000E-01   1.00800           0   0.00000       0.00000    
     25970 MEMB     143      POPE     C33      CD32A     2.07980       11.6110           0  -1.66000       1.30000    
     25971 MEMB     143      POPE     DC33     DRUD     -2.23580      0.400000           0   0.00000       0.00000    
     25972 MEMB     143      POPE     H3X      HDA2A    0.780000E-01   1.00800           0   0.00000       0.00000    
     25973 MEMB     143      POPE     H3Y      HDA2A    0.780000E-01   1.00800           0   0.00000       0.00000    
     25974 MEMB     143      POPE     C34      CD32A     2.07980       11.6110           0  -1.66000       1.30000    
     25975 MEMB     143      POPE     DC34     DRUD     -2.23580      0.400000           0   0.00000       0.00000    
     25976 MEMB     143      POPE     H4X      HDA2A    0.780000E-01   1.00800           0   0.00000       0.00000    
     25977 MEMB     143      POPE     H4Y      HDA2A    0.780000E-01   1.00800           0   0.00000       0.00000    
     25978 MEMB     143      POPE     C35      CD32A     2.07980       11.6110           0  -1.66000       1.30000    
     25979 MEMB     143      POPE     DC35     DRUD     -2.23580      0.400000           0   0.00000       0.00000    
     25980 MEMB     143      POPE     H5X      HDA2A    0.780000E-01   1.00800           0   0.00000       0.00000    
     25981 MEMB     143      POPE     H5Y      HDA2A    0.780000E-01   1.00800           0   0.00000       0.00000    
     25982 MEMB     143      POPE     C36      CD32A     2.07980       11.6110           0  -1.66000       1.30000    
     25983 MEMB     143      POPE     DC36     DRUD     -2.23580      0.400000           0   0.00000       0.00000    
     25984 MEMB     143      POPE     H6X      HDA2A    0.780000E-01   1.00800           0   0.00000       0.00000    
     25985 MEMB     143      POPE     H6Y      HDA2A    0.780000E-01   1.00800           0   0.00000       0.00000    
     25986 MEMB     143      POPE     C37      CD32A     2.07980       11.6110           0  -1.66000       1.30000    
     25987 MEMB     143      POPE     DC37     DRUD     -2.23580      0.400000           0   0.00000       0.00000    
     25988 MEMB     143      POPE     H7X      HDA2A    0.780000E-01   1.00800           0   0.00000       0.00000    
     25989 MEMB     143      POPE     H7Y      HDA2A    0.780000E-01   1.00800           0   0.00000       0.00000    
     25990 MEMB     143      POPE     C38      CD32A     2.07980       11.6110           0  -1.66000       1.30000    
     25991 MEMB     143      POPE     DC38     DRUD     -2.23580      0.400000           0   0.00000       0.00000    
     25992 MEMB     143      POPE     H8X      HDA2A    0.780000E-01   1.00800           0   0.00000       0.00000    
     25993 MEMB     143      POPE     H8Y      HDA2A    0.780000E-01   1.00800           0   0.00000       0.00000    
     25994 MEMB     143      POPE     C39      CD32A     2.07980       11.6110           0  -1.66000       1.30000    
     25995 MEMB     143      POPE     DC39     DRUD     -2.23580      0.400000           0   0.00000       0.00000    
     25996 MEMB     143      POPE     H9X      HDA2A    0.780000E-01   1.00800           0   0.00000       0.00000    
     25997 MEMB     143      POPE     H9Y      HDA2A    0.780000E-01   1.00800           0   0.00000       0.00000    
     25998 MEMB     143      POPE     C310     CD32A     2.07980       11.6110           0  -1.66000       1.30000    
     25999 MEMB     143      POPE     DC310    DRUD     -2.23580      0.400000           0   0.00000       0.00000    
     26000 MEMB     143      POPE     H10X     HDA2A    0.780000E-01   1.00800           0   0.00000       0.00000    
     26001 MEMB     143      POPE     H10Y     HDA2A    0.780000E-01   1.00800           0   0.00000       0.00000    
     26002 MEMB     143      POPE     C311     CD32A     2.07980       11.6110           0  -1.66000       1.30000    
     26003 MEMB     143      POPE     DC311    DRUD     -2.23580      0.400000           0   0.00000       0.00000    
     26004 MEMB     143      POPE     H11X     HDA2A    0.780000E-01   1.00800           0   0.00000       0.00000    
     26005 MEMB     143      POPE     H11Y     HDA2A    0.780000E-01   1.00800           0   0.00000       0.00000    
     26006 MEMB     143      POPE     C312     CD32A     2.07980       11.6110           0  -1.66000       1.30000    
     26007 MEMB     143      POPE     DC312    DRUD     -2.23580      0.400000           0   0.00000       0.00000    
     26008 MEMB     143      POPE     H12X     HDA2A    0.780000E-01   1.00800           0   0.00000       0.00000    
     26009 MEMB     143      POPE     H12Y     HDA2A    0.780000E-01   1.00800           0   0.00000       0.00000    
     26010 MEMB     143      POPE     C313     CD32A     2.07980       11.6110           0  -1.66000       1.30000    
     26011 MEMB     143      POPE     DC313    DRUD     -2.23580      0.400000           0   0.00000       0.00000    
     26012 MEMB     143      POPE     H13X     HDA2A    0.780000E-01   1.00800           0   0.00000       0.00000    
     26013 MEMB     143      POPE     H13Y     HDA2A    0.780000E-01   1.00800           0   0.00000       0.00000    
     26014 MEMB     143      POPE     C314     CD32A     2.07980       11.6110           0  -1.66000       1.30000    
     26015 MEMB     143      POPE     DC314    DRUD     -2.23580      0.400000           0   0.00000       0.00000    
     26016 MEMB     143      POPE     H14X     HDA2A    0.780000E-01   1.00800           0   0.00000       0.00000    
     26017 MEMB     143      POPE     H14Y     HDA2A    0.780000E-01   1.00800           0   0.00000       0.00000    
     26018 MEMB     143      POPE     C315     CD32A     2.07980       11.6110           0  -1.66000       1.30000    
     26019 MEMB     143      POPE     DC315    DRUD     -2.23580      0.400000           0   0.00000       0.00000    
     26020 MEMB     143      POPE     H15X     HDA2A    0.780000E-01   1.00800           0   0.00000       0.00000    
     26021 MEMB     143      POPE     H15Y     HDA2A    0.780000E-01   1.00800           0   0.00000       0.00000    
     26022 MEMB     143      POPE     C316     CD33A     2.30820       11.6110           0  -2.05100       1.30000    
     26023 MEMB     143      POPE     DC316    DRUD     -2.48520      0.400000           0   0.00000       0.00000    
     26024 MEMB     143      POPE     H16X     HDA3A    0.590000E-01   1.00800           0   0.00000       0.00000    
     26025 MEMB     143      POPE     H16Y     HDA3A    0.590000E-01   1.00800           0   0.00000       0.00000    
     26026 MEMB     143      POPE     H16Z     HDA3A    0.590000E-01   1.00800           0   0.00000       0.00000    
     26027 MEMB     144      POPE     N        ND3P3A    1.62810       13.6070           0  -1.29800      0.895000    
     26028 MEMB     144      POPE     DN       DRUD     -1.97710      0.400000           0   0.00000       0.00000    
     26029 MEMB     144      POPE     HN1      HDP1B    0.340000       1.00800           0   0.00000       0.00000    
     26030 MEMB     144      POPE     HN2      HDP1B    0.340000       1.00800           0   0.00000       0.00000    
     26031 MEMB     144      POPE     HN3      HDP1B    0.340000       1.00800           0   0.00000       0.00000    
     26032 MEMB     144      POPE     C12      CD32A     2.27610       11.6110           0  -1.65600      0.895000    
     26033 MEMB     144      POPE     DC12     DRUD     -2.23310      0.400000           0   0.00000       0.00000    
     26034 MEMB     144      POPE     H12A     HDA2A    0.143000       1.00800           0   0.00000       0.00000    
     26035 MEMB     144      POPE     H12B     HDA2A    0.143000       1.00800           0   0.00000       0.00000    
     26036 MEMB     144      POPE     C11      CD32A     2.42220       11.6110           0  -1.64200      0.862000    
     26037 MEMB     144      POPE     DC11     DRUD     -2.22370      0.400000           0   0.00000       0.00000    
     26038 MEMB     144      POPE     H11A     HDA2A    0.260000E-01   1.00800           0   0.00000       0.00000    
     26039 MEMB     144      POPE     H11B     HDA2A    0.260000E-01   1.00800           0   0.00000       0.00000    
     26040 MEMB     144      POPE     P        PD1A      2.90360       30.5740           0 -0.974000       2.09800    
     26041 MEMB     144      POPE     DP       DRUD     -1.71260      0.400000           0   0.00000       0.00000    
     26042 MEMB     144      POPE     O13      OD2C2B   0.798400       15.5994           0 -0.931000       1.08300    
     26043 MEMB     144      POPE     DO13     DRUD     -1.67440      0.400000           0   0.00000       0.00000    
     26044 MEMB     144      POPE     O14      OD2C2B   0.798400       15.5994           0 -0.931000       1.08300    
     26045 MEMB     144      POPE     DO14     DRUD     -1.67440      0.400000           0   0.00000       0.00000    
     26046 MEMB     144      POPE     O11      OD30B     1.17720       15.5994           0 -0.901000      0.181000    
     26047 MEMB     144      POPE     DO11     DRUD     -1.64720      0.400000           0   0.00000       0.00000    
     26048 MEMB     144      POPE     O12      OD30B     1.17720       15.5994           0 -0.901000      0.181000    
     26049 MEMB     144      POPE     DO12     DRUD     -1.64720      0.400000           0   0.00000       0.00000    
     26050 MEMB     144      POPE     C1       CD32A     2.42220       11.6110           0  -1.64200      0.862000    
     26051 MEMB     144      POPE     DC1      DRUD     -2.22370      0.400000           0   0.00000       0.00000    
     26052 MEMB     144      POPE     HA       HDA2A    0.260000E-01   1.00800           0   0.00000       0.00000    
     26053 MEMB     144      POPE     HB       HDA2A    0.260000E-01   1.00800           0   0.00000       0.00000    
     26054 MEMB     144      POPE     C2       CD31C     2.52830       11.6110           0  -1.79700      0.410000    
     26055 MEMB     144      POPE     DC2      DRUD     -2.32630      0.400000           0   0.00000       0.00000    
     26056 MEMB     144      POPE     HS       HDA1A    0.116000       1.00800           0   0.00000       0.00000    
     26057 MEMB     144      POPE     O21      OD30CL    1.48470       15.5994           0 -0.732000      0.601000    
     26058 MEMB     144      POPE     DO21     DRUD     -1.48470      0.400000           0   0.00000       0.00000    
     26059 MEMB     144      POPE     C21      CD2O3B    2.72820       11.6110           0  -1.37000       1.74700    
     26060 MEMB     144      POPE     DC21     DRUD     -2.03120      0.400000           0   0.00000       0.00000    
     26061 MEMB     144      POPE     O22      OD2C3B    1.64990       15.5994           0 -0.904000      0.565000    
     26062 MEMB     144      POPE     DO22     DRUD     -1.64990      0.400000           0   0.00000       0.00000    
     26063 MEMB     144      POPE     C22      CD32C     2.24380       11.6110           0  -1.99300      0.410000    
     26064 MEMB     144      POPE     DC22     DRUD     -2.44980      0.400000           0   0.00000       0.00000    
     26065 MEMB     144      POPE     H2R      HDA2A    0.690000E-01   1.00800           0   0.00000       0.00000    
     26066 MEMB     144      POPE     H2S      HDA2A    0.690000E-01   1.00800           0   0.00000       0.00000    
     26067 MEMB     144      POPE     LP1A     LPD     -0.349000       0.00000          -1   0.00000       0.00000    
     26068 MEMB     144      POPE     LP1B     LPD     -0.258000       0.00000          -1   0.00000       0.00000    
     26069 MEMB     144      POPE     LPMA     LPD     -0.170000       0.00000          -1   0.00000       0.00000    
     26070 MEMB     144      POPE     LPMB     LPD     -0.170000       0.00000          -1   0.00000       0.00000    
     26071 MEMB     144      POPE     C3       CD32C     2.41230       11.6110           0  -1.79700      0.410000    
     26072 MEMB     144      POPE     DC3      DRUD     -2.32630      0.400000           0   0.00000       0.00000    
     26073 MEMB     144      POPE     HX       HDA2A    0.116000       1.00800           0   0.00000       0.00000    
     26074 MEMB     144      POPE     HY       HDA2A    0.116000       1.00800           0   0.00000       0.00000    
     26075 MEMB     144      POPE     O31      OD30CL    1.48470       15.5994           0 -0.732000      0.601000    
     26076 MEMB     144      POPE     DO31     DRUD     -1.48470      0.400000           0   0.00000       0.00000    
     26077 MEMB     144      POPE     C31      CD2O3B    2.72820       11.6110           0  -1.37000       1.74700    
     26078 MEMB     144      POPE     DC31     DRUD     -2.03120      0.400000           0   0.00000       0.00000    
     26079 MEMB     144      POPE     O32      OD2C3B    1.64990       15.5994           0 -0.904000      0.565000    
     26080 MEMB     144      POPE     DO32     DRUD     -1.64990      0.400000           0   0.00000       0.00000    
     26081 MEMB     144      POPE     C32      CD32C     2.24380       11.6110           0  -1.99300      0.410000    
     26082 MEMB     144      POPE     DC32     DRUD     -2.44980      0.400000           0   0.00000       0.00000    
     26083 MEMB     144      POPE     H2X      HDA2A    0.690000E-01   1.00800           0   0.00000       0.00000    
     26084 MEMB     144      POPE     H2Y      HDA2A    0.690000E-01   1.00800           0   0.00000       0.00000    
     26085 MEMB     144      POPE     LP1C     LPD     -0.349000       0.00000          -1   0.00000       0.00000    
     26086 MEMB     144      POPE     LP1D     LPD     -0.258000       0.00000          -1   0.00000       0.00000    
     26087 MEMB     144      POPE     LPMC     LPD     -0.170000       0.00000          -1   0.00000       0.00000    
     26088 MEMB     144      POPE     LPMD     LPD     -0.170000       0.00000          -1   0.00000       0.00000    
     26089 MEMB     144      POPE     C23      CD32A     2.07980       11.6110           0  -1.66000       1.30000    
     26090 MEMB     144      POPE     DC23     DRUD     -2.23580      0.400000           0   0.00000       0.00000    
     26091 MEMB     144      POPE     H3R      HDA2A    0.780000E-01   1.00800           0   0.00000       0.00000    
     26092 MEMB     144      POPE     H3S      HDA2A    0.780000E-01   1.00800           0   0.00000       0.00000    
     26093 MEMB     144      POPE     C24      CD32A     2.07980       11.6110           0  -1.66000       1.30000    
     26094 MEMB     144      POPE     DC24     DRUD     -2.23580      0.400000           0   0.00000       0.00000    
     26095 MEMB     144      POPE     H4R      HDA2A    0.780000E-01   1.00800           0   0.00000       0.00000    
     26096 MEMB     144      POPE     H4S      HDA2A    0.780000E-01   1.00800           0   0.00000       0.00000    
     26097 MEMB     144      POPE     C25      CD32A     2.07980       11.6110           0  -1.66000       1.30000    
     26098 MEMB     144      POPE     DC25     DRUD     -2.23580      0.400000           0   0.00000       0.00000    
     26099 MEMB     144      POPE     H5R      HDA2A    0.780000E-01   1.00800           0   0.00000       0.00000    
     26100 MEMB     144      POPE     H5S      HDA2A    0.780000E-01   1.00800           0   0.00000       0.00000    
     26101 MEMB     144      POPE     C26      CD32A     2.07980       11.6110           0  -1.66000       1.30000    
     26102 MEMB     144      POPE     DC26     DRUD     -2.23580      0.400000           0   0.00000       0.00000    
     26103 MEMB     144      POPE     H6R      HDA2A    0.780000E-01   1.00800           0   0.00000       0.00000    
     26104 MEMB     144      POPE     H6S      HDA2A    0.780000E-01   1.00800           0   0.00000       0.00000    
     26105 MEMB     144      POPE     C27      CD32A     2.07980       11.6110           0  -1.66000       1.30000    
     26106 MEMB     144      POPE     DC27     DRUD     -2.23580      0.400000           0   0.00000       0.00000    
     26107 MEMB     144      POPE     H7R      HDA2A    0.780000E-01   1.00800           0   0.00000       0.00000    
     26108 MEMB     144      POPE     H7S      HDA2A    0.780000E-01   1.00800           0   0.00000       0.00000    
     26109 MEMB     144      POPE     C28      CD32A     2.07980       11.6110           0  -1.66000       1.30000    
     26110 MEMB     144      POPE     DC28     DRUD     -2.23580      0.400000           0   0.00000       0.00000    
     26111 MEMB     144      POPE     H8R      HDA2A    0.780000E-01   1.00800           0   0.00000       0.00000    
     26112 MEMB     144      POPE     H8S      HDA2A    0.780000E-01   1.00800           0   0.00000       0.00000    
     26113 MEMB     144      POPE     C29      CD2C1A    2.33700       11.6110           0  -1.99000      0.750000    
     26114 MEMB     144      POPE     DC29     DRUD     -2.44800      0.400000           0   0.00000       0.00000    
     26115 MEMB     144      POPE     H91      HD2C1A   0.111000       1.00800           0   0.00000       0.00000    
     26116 MEMB     144      POPE     C210     CD2C1A    2.33700       11.6110           0  -1.99000      0.750000    
     26117 MEMB     144      POPE     DC210    DRUD     -2.44800      0.400000           0   0.00000       0.00000    
     26118 MEMB     144      POPE     H101     HD2C1A   0.111000       1.00800           0   0.00000       0.00000    
     26119 MEMB     144      POPE     C211     CD32A     2.07980       11.6110           0  -1.66000       1.30000    
     26120 MEMB     144      POPE     DC211    DRUD     -2.23580      0.400000           0   0.00000       0.00000    
     26121 MEMB     144      POPE     H11R     HDA2A    0.780000E-01   1.00800           0   0.00000       0.00000    
     26122 MEMB     144      POPE     H11S     HDA2A    0.780000E-01   1.00800           0   0.00000       0.00000    
     26123 MEMB     144      POPE     C212     CD32A     2.07980       11.6110           0  -1.66000       1.30000    
     26124 MEMB     144      POPE     DC212    DRUD     -2.23580      0.400000           0   0.00000       0.00000    
     26125 MEMB     144      POPE     H12R     HDA2A    0.780000E-01   1.00800           0   0.00000       0.00000    
     26126 MEMB     144      POPE     H12S     HDA2A    0.780000E-01   1.00800           0   0.00000       0.00000    
     26127 MEMB     144      POPE     C213     CD32A     2.07980       11.6110           0  -1.66000       1.30000    
     26128 MEMB     144      POPE     DC213    DRUD     -2.23580      0.400000           0   0.00000       0.00000    
     26129 MEMB     144      POPE     H13R     HDA2A    0.780000E-01   1.00800           0   0.00000       0.00000    
     26130 MEMB     144      POPE     H13S     HDA2A    0.780000E-01   1.00800           0   0.00000       0.00000    
     26131 MEMB     144      POPE     C214     CD32A     2.07980       11.6110           0  -1.66000       1.30000    
     26132 MEMB     144      POPE     DC214    DRUD     -2.23580      0.400000           0   0.00000       0.00000    
     26133 MEMB     144      POPE     H14R     HDA2A    0.780000E-01   1.00800           0   0.00000       0.00000    
     26134 MEMB     144      POPE     H14S     HDA2A    0.780000E-01   1.00800           0   0.00000       0.00000    
     26135 MEMB     144      POPE     C215     CD32A     2.07980       11.6110           0  -1.66000       1.30000    
     26136 MEMB     144      POPE     DC215    DRUD     -2.23580      0.400000           0   0.00000       0.00000    
     26137 MEMB     144      POPE     H15R     HDA2A    0.780000E-01   1.00800           0   0.00000       0.00000    
     26138 MEMB     144      POPE     H15S     HDA2A    0.780000E-01   1.00800           0   0.00000       0.00000    
     26139 MEMB     144      POPE     C216     CD32A     2.07980       11.6110           0  -1.66000       1.30000    
     26140 MEMB     144      POPE     DC216    DRUD     -2.23580      0.400000           0   0.00000       0.00000    
     26141 MEMB     144      POPE     H16R     HDA2A    0.780000E-01   1.00800           0   0.00000       0.00000    
     26142 MEMB     144      POPE     H16S     HDA2A    0.780000E-01   1.00800           0   0.00000       0.00000    
     26143 MEMB     144      POPE     C217     CD32A     2.07980       11.6110           0  -1.66000       1.30000    
     26144 MEMB     144      POPE     DC217    DRUD     -2.23580      0.400000           0   0.00000       0.00000    
     26145 MEMB     144      POPE     H17R     HDA2A    0.780000E-01   1.00800           0   0.00000       0.00000    
     26146 MEMB     144      POPE     H17S     HDA2A    0.780000E-01   1.00800           0   0.00000       0.00000    
     26147 MEMB     144      POPE     C218     CD33A     2.30820       11.6110           0  -2.05100       1.30000    
     26148 MEMB     144      POPE     DC218    DRUD     -2.48520      0.400000           0   0.00000       0.00000    
     26149 MEMB     144      POPE     H18R     HDA3A    0.590000E-01   1.00800           0   0.00000       0.00000    
     26150 MEMB     144      POPE     H18S     HDA3A    0.590000E-01   1.00800           0   0.00000       0.00000    
     26151 MEMB     144      POPE     H18T     HDA3A    0.590000E-01   1.00800           0   0.00000       0.00000    
     26152 MEMB     144      POPE     C33      CD32A     2.07980       11.6110           0  -1.66000       1.30000    
     26153 MEMB     144      POPE     DC33     DRUD     -2.23580      0.400000           0   0.00000       0.00000    
     26154 MEMB     144      POPE     H3X      HDA2A    0.780000E-01   1.00800           0   0.00000       0.00000    
     26155 MEMB     144      POPE     H3Y      HDA2A    0.780000E-01   1.00800           0   0.00000       0.00000    
     26156 MEMB     144      POPE     C34      CD32A     2.07980       11.6110           0  -1.66000       1.30000    
     26157 MEMB     144      POPE     DC34     DRUD     -2.23580      0.400000           0   0.00000       0.00000    
     26158 MEMB     144      POPE     H4X      HDA2A    0.780000E-01   1.00800           0   0.00000       0.00000    
     26159 MEMB     144      POPE     H4Y      HDA2A    0.780000E-01   1.00800           0   0.00000       0.00000    
     26160 MEMB     144      POPE     C35      CD32A     2.07980       11.6110           0  -1.66000       1.30000    
     26161 MEMB     144      POPE     DC35     DRUD     -2.23580      0.400000           0   0.00000       0.00000    
     26162 MEMB     144      POPE     H5X      HDA2A    0.780000E-01   1.00800           0   0.00000       0.00000    
     26163 MEMB     144      POPE     H5Y      HDA2A    0.780000E-01   1.00800           0   0.00000       0.00000    
     26164 MEMB     144      POPE     C36      CD32A     2.07980       11.6110           0  -1.66000       1.30000    
     26165 MEMB     144      POPE     DC36     DRUD     -2.23580      0.400000           0   0.00000       0.00000    
     26166 MEMB     144      POPE     H6X      HDA2A    0.780000E-01   1.00800           0   0.00000       0.00000    
     26167 MEMB     144      POPE     H6Y      HDA2A    0.780000E-01   1.00800           0   0.00000       0.00000    
     26168 MEMB     144      POPE     C37      CD32A     2.07980       11.6110           0  -1.66000       1.30000    
     26169 MEMB     144      POPE     DC37     DRUD     -2.23580      0.400000           0   0.00000       0.00000    
     26170 MEMB     144      POPE     H7X      HDA2A    0.780000E-01   1.00800           0   0.00000       0.00000    
     26171 MEMB     144      POPE     H7Y      HDA2A    0.780000E-01   1.00800           0   0.00000       0.00000    
     26172 MEMB     144      POPE     C38      CD32A     2.07980       11.6110           0  -1.66000       1.30000    
     26173 MEMB     144      POPE     DC38     DRUD     -2.23580      0.400000           0   0.00000       0.00000    
     26174 MEMB     144      POPE     H8X      HDA2A    0.780000E-01   1.00800           0   0.00000       0.00000    
     26175 MEMB     144      POPE     H8Y      HDA2A    0.780000E-01   1.00800           0   0.00000       0.00000    
     26176 MEMB     144      POPE     C39      CD32A     2.07980       11.6110           0  -1.66000       1.30000    
     26177 MEMB     144      POPE     DC39     DRUD     -2.23580      0.400000           0   0.00000       0.00000    
     26178 MEMB     144      POPE     H9X      HDA2A    0.780000E-01   1.00800           0   0.00000       0.00000    
     26179 MEMB     144      POPE     H9Y      HDA2A    0.780000E-01   1.00800           0   0.00000       0.00000    
     26180 MEMB     144      POPE     C310     CD32A     2.07980       11.6110           0  -1.66000       1.30000    
     26181 MEMB     144      POPE     DC310    DRUD     -2.23580      0.400000           0   0.00000       0.00000    
     26182 MEMB     144      POPE     H10X     HDA2A    0.780000E-01   1.00800           0   0.00000       0.00000    
     26183 MEMB     144      POPE     H10Y     HDA2A    0.780000E-01   1.00800           0   0.00000       0.00000    
     26184 MEMB     144      POPE     C311     CD32A     2.07980       11.6110           0  -1.66000       1.30000    
     26185 MEMB     144      POPE     DC311    DRUD     -2.23580      0.400000           0   0.00000       0.00000    
     26186 MEMB     144      POPE     H11X     HDA2A    0.780000E-01   1.00800           0   0.00000       0.00000    
     26187 MEMB     144      POPE     H11Y     HDA2A    0.780000E-01   1.00800           0   0.00000       0.00000    
     26188 MEMB     144      POPE     C312     CD32A     2.07980       11.6110           0  -1.66000       1.30000    
     26189 MEMB     144      POPE     DC312    DRUD     -2.23580      0.400000           0   0.00000       0.00000    
     26190 MEMB     144      POPE     H12X     HDA2A    0.780000E-01   1.00800           0   0.00000       0.00000    
     26191 MEMB     144      POPE     H12Y     HDA2A    0.780000E-01   1.00800           0   0.00000       0.00000    
     26192 MEMB     144      POPE     C313     CD32A     2.07980       11.6110           0  -1.66000       1.30000    
     26193 MEMB     144      POPE     DC313    DRUD     -2.23580      0.400000           0   0.00000       0.00000    
     26194 MEMB     144      POPE     H13X     HDA2A    0.780000E-01   1.00800           0   0.00000       0.00000    
     26195 MEMB     144      POPE     H13Y     HDA2A    0.780000E-01   1.00800           0   0.00000       0.00000    
     26196 MEMB     144      POPE     C314     CD32A     2.07980       11.6110           0  -1.66000       1.30000    
     26197 MEMB     144      POPE     DC314    DRUD     -2.23580      0.400000           0   0.00000       0.00000    
     26198 MEMB     144      POPE     H14X     HDA2A    0.780000E-01   1.00800           0   0.00000       0.00000    
     26199 MEMB     144      POPE     H14Y     HDA2A    0.780000E-01   1.00800           0   0.00000       0.00000    
     26200 MEMB     144      POPE     C315     CD32A     2.07980       11.6110           0  -1.66000       1.30000    
     26201 MEMB     144      POPE     DC315    DRUD     -2.23580      0.400000           0   0.00000       0.00000    
     26202 MEMB     144      POPE     H15X     HDA2A    0.780000E-01   1.00800           0   0.00000       0.00000    
     26203 MEMB     144      POPE     H15Y     HDA2A    0.780000E-01   1.00800           0   0.00000       0.00000    
     26204 MEMB     144      POPE     C316     CD33A     2.30820       11.6110           0  -2.05100       1.30000    
     26205 MEMB     144      POPE     DC316    DRUD     -2.48520      0.400000           0   0.00000       0.00000    
     26206 MEMB     144      POPE     H16X     HDA3A    0.590000E-01   1.00800           0   0.00000       0.00000    
     26207 MEMB     144      POPE     H16Y     HDA3A    0.590000E-01   1.00800           0   0.00000       0.00000    
     26208 MEMB     144      POPE     H16Z     HDA3A    0.590000E-01   1.00800           0   0.00000       0.00000    
     26209 TIP3     1        SWM4     OH2      ODW       1.71640       15.5994           0 -0.978253       1.30000    
     26210 TIP3     1        SWM4     DOH2     DOH2     -1.71640      0.400000           0   0.00000       0.00000    
     26211 TIP3     1        SWM4     OM       LPDW     -1.11466       0.00000          -1   0.00000       0.00000    
     26212 TIP3     1        SWM4     H1       HDW      0.557330       1.00800           0   0.00000       0.00000    
     26213 TIP3     1        SWM4     H2       HDW      0.557330       1.00800           0   0.00000       0.00000    
     26214 TIP3     2        SWM4     OH2      ODW       1.71640       15.5994           0 -0.978253       1.30000    
     26215 TIP3     2        SWM4     DOH2     DOH2     -1.71640      0.400000           0   0.00000       0.00000    
     26216 TIP3     2        SWM4     OM       LPDW     -1.11466       0.00000          -1   0.00000       0.00000    
     26217 TIP3     2        SWM4     H1       HDW      0.557330       1.00800           0   0.00000       0.00000    
     26218 TIP3     2        SWM4     H2       HDW      0.557330       1.00800           0   0.00000       0.00000    
     26219 TIP3     3        SWM4     OH2      ODW       1.71640       15.5994           0 -0.978253       1.30000    
     26220 TIP3     3        SWM4     DOH2     DOH2     -1.71640      0.400000           0   0.00000       0.00000    
     26221 TIP3     3        SWM4     OM       LPDW     -1.11466       0.00000          -1   0.00000       0.00000    
     26222 TIP3     3        SWM4     H1       HDW      0.557330       1.00800           0   0.00000       0.00000    
     26223 TIP3     3        SWM4     H2       HDW      0.557330       1.00800           0   0.00000       0.00000    
     26224 TIP3     4        SWM4     OH2      ODW       1.71640       15.5994           0 -0.978253       1.30000    
     26225 TIP3     4        SWM4     DOH2     DOH2     -1.71640      0.400000           0   0.00000       0.00000    
     26226 TIP3     4        SWM4     OM       LPDW     -1.11466       0.00000          -1   0.00000       0.00000    
     26227 TIP3     4        SWM4     H1       HDW      0.557330       1.00800           0   0.00000       0.00000    
     26228 TIP3     4        SWM4     H2       HDW      0.557330       1.00800           0   0.00000       0.00000    
     26229 TIP3     5        SWM4     OH2      ODW       1.71640       15.5994           0 -0.978253       1.30000    
     26230 TIP3     5        SWM4     DOH2     DOH2     -1.71640      0.400000           0   0.00000       0.00000    
     26231 TIP3     5        SWM4     OM       LPDW     -1.11466       0.00000          -1   0.00000       0.00000    
     26232 TIP3     5        SWM4     H1       HDW      0.557330       1.00800           0   0.00000       0.00000    
     26233 TIP3     5        SWM4     H2       HDW      0.557330       1.00800           0   0.00000       0.00000    
     26234 TIP3     6        SWM4     OH2      ODW       1.71640       15.5994           0 -0.978253       1.30000    
     26235 TIP3     6        SWM4     DOH2     DOH2     -1.71640      0.400000           0   0.00000       0.00000    
     26236 TIP3     6        SWM4     OM       LPDW     -1.11466       0.00000          -1   0.00000       0.00000    
     26237 TIP3     6        SWM4     H1       HDW      0.557330       1.00800           0   0.00000       0.00000    
     26238 TIP3     6        SWM4     H2       HDW      0.557330       1.00800           0   0.00000       0.00000    
     26239 TIP3     7        SWM4     OH2      ODW       1.71640       15.5994           0 -0.978253       1.30000    
     26240 TIP3     7        SWM4     DOH2     DOH2     -1.71640      0.400000           0   0.00000       0.00000    
     26241 TIP3     7        SWM4     OM       LPDW     -1.11466       0.00000          -1   0.00000       0.00000    
     26242 TIP3     7        SWM4     H1       HDW      0.557330       1.00800           0   0.00000       0.00000    
     26243 TIP3     7        SWM4     H2       HDW      0.557330       1.00800           0   0.00000       0.00000    
     26244 TIP3     8        SWM4     OH2      ODW       1.71640       15.5994           0 -0.978253       1.30000    
     26245 TIP3     8        SWM4     DOH2     DOH2     -1.71640      0.400000           0   0.00000       0.00000    
     26246 TIP3     8        SWM4     OM       LPDW     -1.11466       0.00000          -1   0.00000       0.00000    
     26247 TIP3     8        SWM4     H1       HDW      0.557330       1.00800           0   0.00000       0.00000    
     26248 TIP3     8        SWM4     H2       HDW      0.557330       1.00800           0   0.00000       0.00000    
     26249 TIP3     9        SWM4     OH2      ODW       1.71640       15.5994           0 -0.978253       1.30000    
     26250 TIP3     9        SWM4     DOH2     DOH2     -1.71640      0.400000           0   0.00000       0.00000    
     26251 TIP3     9        SWM4     OM       LPDW     -1.11466       0.00000          -1   0.00000       0.00000    
     26252 TIP3     9        SWM4     H1       HDW      0.557330       1.00800           0   0.00000       0.00000    
     26253 TIP3     9        SWM4     H2       HDW      0.557330       1.00800           0   0.00000       0.00000    
     26254 TIP3     10       SWM4     OH2      ODW       1.71640       15.5994           0 -0.978253       1.30000    
     26255 TIP3     10       SWM4     DOH2     DOH2     -1.71640      0.400000           0   0.00000       0.00000    
     26256 TIP3     10       SWM4     OM       LPDW     -1.11466       0.00000          -1   0.00000       0.00000    
     26257 TIP3     10       SWM4     H1       HDW      0.557330       1.00800           0   0.00000       0.00000    
     26258 TIP3     10       SWM4     H2       HDW      0.557330       1.00800           0   0.00000       0.00000    
     26259 TIP3     11       SWM4     OH2      ODW       1.71640       15.5994           0 -0.978253       1.30000    
     26260 TIP3     11       SWM4     DOH2     DOH2     -1.71640      0.400000           0   0.00000       0.00000    
     26261 TIP3     11       SWM4     OM       LPDW     -1.11466       0.00000          -1   0.00000       0.00000    
     26262 TIP3     11       SWM4     H1       HDW      0.557330       1.00800           0   0.00000       0.00000    
     26263 TIP3     11       SWM4     H2       HDW      0.557330       1.00800           0   0.00000       0.00000    
     26264 TIP3     12       SWM4     OH2      ODW       1.71640       15.5994           0 -0.978253       1.30000    
     26265 TIP3     12       SWM4     DOH2     DOH2     -1.71640      0.400000           0   0.00000       0.00000    
     26266 TIP3     12       SWM4     OM       LPDW     -1.11466       0.00000          -1   0.00000       0.00000    
     26267 TIP3     12       SWM4     H1       HDW      0.557330       1.00800           0   0.00000       0.00000    
     26268 TIP3     12       SWM4     H2       HDW      0.557330       1.00800           0   0.00000       0.00000    
     26269 TIP3     13       SWM4     OH2      ODW       1.71640       15.5994           0 -0.978253       1.30000    
     26270 TIP3     13       SWM4     DOH2     DOH2     -1.71640      0.400000           0   0.00000       0.00000    
     26271 TIP3     13       SWM4     OM       LPDW     -1.11466       0.00000          -1   0.00000       0.00000    
     26272 TIP3     13       SWM4     H1       HDW      0.557330       1.00800           0   0.00000       0.00000    
     26273 TIP3     13       SWM4     H2       HDW      0.557330       1.00800           0   0.00000       0.00000    
     26274 TIP3     14       SWM4     OH2      ODW       1.71640       15.5994           0 -0.978253       1.30000    
     26275 TIP3     14       SWM4     DOH2     DOH2     -1.71640      0.400000           0   0.00000       0.00000    
     26276 TIP3     14       SWM4     OM       LPDW     -1.11466       0.00000          -1   0.00000       0.00000    
     26277 TIP3     14       SWM4     H1       HDW      0.557330       1.00800           0   0.00000       0.00000    
     26278 TIP3     14       SWM4     H2       HDW      0.557330       1.00800           0   0.00000       0.00000    
     26279 TIP3     15       SWM4     OH2      ODW       1.71640       15.5994           0 -0.978253       1.30000    
     26280 TIP3     15       SWM4     DOH2     DOH2     -1.71640      0.400000           0   0.00000       0.00000    
     26281 TIP3     15       SWM4     OM       LPDW     -1.11466       0.00000          -1   0.00000       0.00000    
     26282 TIP3     15       SWM4     H1       HDW      0.557330       1.00800           0   0.00000       0.00000    
     26283 TIP3     15       SWM4     H2       HDW      0.557330       1.00800           0   0.00000       0.00000    
     26284 TIP3     16       SWM4     OH2      ODW       1.71640       15.5994           0 -0.978253       1.30000    
     26285 TIP3     16       SWM4     DOH2     DOH2     -1.71640      0.400000           0   0.00000       0.00000    
     26286 TIP3     16       SWM4     OM       LPDW     -1.11466       0.00000          -1   0.00000       0.00000    
     26287 TIP3     16       SWM4     H1       HDW      0.557330       1.00800           0   0.00000       0.00000    
     26288 TIP3     16       SWM4     H2       HDW      0.557330       1.00800           0   0.00000       0.00000    
     26289 TIP3     17       SWM4     OH2      ODW       1.71640       15.5994           0 -0.978253       1.30000    
     26290 TIP3     17       SWM4     DOH2     DOH2     -1.71640      0.400000           0   0.00000       0.00000    
     26291 TIP3     17       SWM4     OM       LPDW     -1.11466       0.00000          -1   0.00000       0.00000    
     26292 TIP3     17       SWM4     H1       HDW      0.557330       1.00800           0   0.00000       0.00000    
     26293 TIP3     17       SWM4     H2       HDW      0.557330       1.00800           0   0.00000       0.00000    
     26294 TIP3     18       SWM4     OH2      ODW       1.71640       15.5994           0 -0.978253       1.30000    
     26295 TIP3     18       SWM4     DOH2     DOH2     -1.71640      0.400000           0   0.00000       0.00000    
     26296 TIP3     18       SWM4     OM       LPDW     -1.11466       0.00000          -1   0.00000       0.00000    
     26297 TIP3     18       SWM4     H1       HDW      0.557330       1.00800           0   0.00000       0.00000    
     26298 TIP3     18       SWM4     H2       HDW      0.557330       1.00800           0   0.00000       0.00000    
     26299 TIP3     19       SWM4     OH2      ODW       1.71640       15.5994           0 -0.978253       1.30000    
     26300 TIP3     19       SWM4     DOH2     DOH2     -1.71640      0.400000           0   0.00000       0.00000    
     26301 TIP3     19       SWM4     OM       LPDW     -1.11466       0.00000          -1   0.00000       0.00000    
     26302 TIP3     19       SWM4     H1       HDW      0.557330       1.00800           0   0.00000       0.00000    
     26303 TIP3     19       SWM4     H2       HDW      0.557330       1.00800           0   0.00000       0.00000    
     26304 TIP3     20       SWM4     OH2      ODW       1.71640       15.5994           0 -0.978253       1.30000    
     26305 TIP3     20       SWM4     DOH2     DOH2     -1.71640      0.400000           0   0.00000       0.00000    
     26306 TIP3     20       SWM4     OM       LPDW     -1.11466       0.00000          -1   0.00000       0.00000    
     26307 TIP3     20       SWM4     H1       HDW      0.557330       1.00800           0   0.00000       0.00000    
     26308 TIP3     20       SWM4     H2       HDW      0.557330       1.00800           0   0.00000       0.00000    
     26309 TIP3     21       SWM4     OH2      ODW       1.71640       15.5994           0 -0.978253       1.30000    
     26310 TIP3     21       SWM4     DOH2     DOH2     -1.71640      0.400000           0   0.00000       0.00000    
     26311 TIP3     21       SWM4     OM       LPDW     -1.11466       0.00000          -1   0.00000       0.00000    
     26312 TIP3     21       SWM4     H1       HDW      0.557330       1.00800           0   0.00000       0.00000    
     26313 TIP3     21       SWM4     H2       HDW      0.557330       1.00800           0   0.00000       0.00000    
     26314 TIP3     22       SWM4     OH2      ODW       1.71640       15.5994           0 -0.978253       1.30000    
     26315 TIP3     22       SWM4     DOH2     DOH2     -1.71640      0.400000           0   0.00000       0.00000    
     26316 TIP3     22       SWM4     OM       LPDW     -1.11466       0.00000          -1   0.00000       0.00000    
     26317 TIP3     22       SWM4     H1       HDW      0.557330       1.00800           0   0.00000       0.00000    
     26318 TIP3     22       SWM4     H2       HDW      0.557330       1.00800           0   0.00000       0.00000    
     26319 TIP3     23       SWM4     OH2      ODW       1.71640       15.5994           0 -0.978253       1.30000    
     26320 TIP3     23       SWM4     DOH2     DOH2     -1.71640      0.400000           0   0.00000       0.00000    
     26321 TIP3     23       SWM4     OM       LPDW     -1.11466       0.00000          -1   0.00000       0.00000    
     26322 TIP3     23       SWM4     H1       HDW      0.557330       1.00800           0   0.00000       0.00000    
     26323 TIP3     23       SWM4     H2       HDW      0.557330       1.00800           0   0.00000       0.00000    
     26324 TIP3     24       SWM4     OH2      ODW       1.71640       15.5994           0 -0.978253       1.30000    
     26325 TIP3     24       SWM4     DOH2     DOH2     -1.71640      0.400000           0   0.00000       0.00000    
     26326 TIP3     24       SWM4     OM       LPDW     -1.11466       0.00000          -1   0.00000       0.00000    
     26327 TIP3     24       SWM4     H1       HDW      0.557330       1.00800           0   0.00000       0.00000    
     26328 TIP3     24       SWM4     H2       HDW      0.557330       1.00800           0   0.00000       0.00000    
     26329 TIP3     25       SWM4     OH2      ODW       1.71640       15.5994           0 -0.978253       1.30000    
     26330 TIP3     25       SWM4     DOH2     DOH2     -1.71640      0.400000           0   0.00000       0.00000    
     26331 TIP3     25       SWM4     OM       LPDW     -1.11466       0.00000          -1   0.00000       0.00000    
     26332 TIP3     25       SWM4     H1       HDW      0.557330       1.00800           0   0.00000       0.00000    
     26333 TIP3     25       SWM4     H2       HDW      0.557330       1.00800           0   0.00000       0.00000    
     26334 TIP3     26       SWM4     OH2      ODW       1.71640       15.5994           0 -0.978253       1.30000    
     26335 TIP3     26       SWM4     DOH2     DOH2     -1.71640      0.400000           0   0.00000       0.00000    
     26336 TIP3     26       SWM4     OM       LPDW     -1.11466       0.00000          -1   0.00000       0.00000    
     26337 TIP3     26       SWM4     H1       HDW      0.557330       1.00800           0   0.00000       0.00000    
     26338 TIP3     26       SWM4     H2       HDW      0.557330       1.00800           0   0.00000       0.00000    
     26339 TIP3     27       SWM4     OH2      ODW       1.71640       15.5994           0 -0.978253       1.30000    
     26340 TIP3     27       SWM4     DOH2     DOH2     -1.71640      0.400000           0   0.00000       0.00000    
     26341 TIP3     27       SWM4     OM       LPDW     -1.11466       0.00000          -1   0.00000       0.00000    
     26342 TIP3     27       SWM4     H1       HDW      0.557330       1.00800           0   0.00000       0.00000    
     26343 TIP3     27       SWM4     H2       HDW      0.557330       1.00800           0   0.00000       0.00000    
     26344 TIP3     28       SWM4     OH2      ODW       1.71640       15.5994           0 -0.978253       1.30000    
     26345 TIP3     28       SWM4     DOH2     DOH2     -1.71640      0.400000           0   0.00000       0.00000    
     26346 TIP3     28       SWM4     OM       LPDW     -1.11466       0.00000          -1   0.00000       0.00000    
     26347 TIP3     28       SWM4     H1       HDW      0.557330       1.00800           0   0.00000       0.00000    
     26348 TIP3     28       SWM4     H2       HDW      0.557330       1.00800           0   0.00000       0.00000    
     26349 TIP3     29       SWM4     OH2      ODW       1.71640       15.5994           0 -0.978253       1.30000    
     26350 TIP3     29       SWM4     DOH2     DOH2     -1.71640      0.400000           0   0.00000       0.00000    
     26351 TIP3     29       SWM4     OM       LPDW     -1.11466       0.00000          -1   0.00000       0.00000    
     26352 TIP3     29       SWM4     H1       HDW      0.557330       1.00800           0   0.00000       0.00000    
     26353 TIP3     29       SWM4     H2       HDW      0.557330       1.00800           0   0.00000       0.00000    
     26354 TIP3     30       SWM4     OH2      ODW       1.71640       15.5994           0 -0.978253       1.30000    
     26355 TIP3     30       SWM4     DOH2     DOH2     -1.71640      0.400000           0   0.00000       0.00000    
     26356 TIP3     30       SWM4     OM       LPDW     -1.11466       0.00000          -1   0.00000       0.00000    
     26357 TIP3     30       SWM4     H1       HDW      0.557330       1.00800           0   0.00000       0.00000    
     26358 TIP3     30       SWM4     H2       HDW      0.557330       1.00800           0   0.00000       0.00000    
     26359 TIP3     31       SWM4     OH2      ODW       1.71640       15.5994           0 -0.978253       1.30000    
     26360 TIP3     31       SWM4     DOH2     DOH2     -1.71640      0.400000           0   0.00000       0.00000    
     26361 TIP3     31       SWM4     OM       LPDW     -1.11466       0.00000          -1   0.00000       0.00000    
     26362 TIP3     31       SWM4     H1       HDW      0.557330       1.00800           0   0.00000       0.00000    
     26363 TIP3     31       SWM4     H2       HDW      0.557330       1.00800           0   0.00000       0.00000    
     26364 TIP3     32       SWM4     OH2      ODW       1.71640       15.5994           0 -0.978253       1.30000    
     26365 TIP3     32       SWM4     DOH2     DOH2     -1.71640      0.400000           0   0.00000       0.00000    
     26366 TIP3     32       SWM4     OM       LPDW     -1.11466       0.00000          -1   0.00000       0.00000    
     26367 TIP3     32       SWM4     H1       HDW      0.557330       1.00800           0   0.00000       0.00000    
     26368 TIP3     32       SWM4     H2       HDW      0.557330       1.00800           0   0.00000       0.00000    
     26369 TIP3     33       SWM4     OH2      ODW       1.71640       15.5994           0 -0.978253       1.30000    
     26370 TIP3     33       SWM4     DOH2     DOH2     -1.71640      0.400000           0   0.00000       0.00000    
     26371 TIP3     33       SWM4     OM       LPDW     -1.11466       0.00000          -1   0.00000       0.00000    
     26372 TIP3     33       SWM4     H1       HDW      0.557330       1.00800           0   0.00000       0.00000    
     26373 TIP3     33       SWM4     H2       HDW      0.557330       1.00800           0   0.00000       0.00000    
     26374 TIP3     34       SWM4     OH2      ODW       1.71640       15.5994           0 -0.978253       1.30000    
     26375 TIP3     34       SWM4     DOH2     DOH2     -1.71640      0.400000           0   0.00000       0.00000    
     26376 TIP3     34       SWM4     OM       LPDW     -1.11466       0.00000          -1   0.00000       0.00000    
     26377 TIP3     34       SWM4     H1       HDW      0.557330       1.00800           0   0.00000       0.00000    
     26378 TIP3     34       SWM4     H2       HDW      0.557330       1.00800           0   0.00000       0.00000    
     26379 TIP3     35       SWM4     OH2      ODW       1.71640       15.5994           0 -0.978253       1.30000    
     26380 TIP3     35       SWM4     DOH2     DOH2     -1.71640      0.400000           0   0.00000       0.00000    
     26381 TIP3     35       SWM4     OM       LPDW     -1.11466       0.00000          -1   0.00000       0.00000    
     26382 TIP3     35       SWM4     H1       HDW      0.557330       1.00800           0   0.00000       0.00000    
     26383 TIP3     35       SWM4     H2       HDW      0.557330       1.00800           0   0.00000       0.00000    
     26384 TIP3     36       SWM4     OH2      ODW       1.71640       15.5994           0 -0.978253       1.30000    
     26385 TIP3     36       SWM4     DOH2     DOH2     -1.71640      0.400000           0   0.00000       0.00000    
     26386 TIP3     36       SWM4     OM       LPDW     -1.11466       0.00000          -1   0.00000       0.00000    
     26387 TIP3     36       SWM4     H1       HDW      0.557330       1.00800           0   0.00000       0.00000    
     26388 TIP3     36       SWM4     H2       HDW      0.557330       1.00800           0   0.00000       0.00000    
     26389 TIP3     37       SWM4     OH2      ODW       1.71640       15.5994           0 -0.978253       1.30000    
     26390 TIP3     37       SWM4     DOH2     DOH2     -1.71640      0.400000           0   0.00000       0.00000    
     26391 TIP3     37       SWM4     OM       LPDW     -1.11466       0.00000          -1   0.00000       0.00000    
     26392 TIP3     37       SWM4     H1       HDW      0.557330       1.00800           0   0.00000       0.00000    
     26393 TIP3     37       SWM4     H2       HDW      0.557330       1.00800           0   0.00000       0.00000    
     26394 TIP3     38       SWM4     OH2      ODW       1.71640       15.5994           0 -0.978253       1.30000    
     26395 TIP3     38       SWM4     DOH2     DOH2     -1.71640      0.400000           0   0.00000       0.00000    
     26396 TIP3     38       SWM4     OM       LPDW     -1.11466       0.00000          -1   0.00000       0.00000    
     26397 TIP3     38       SWM4     H1       HDW      0.557330       1.00800           0   0.00000       0.00000    
     26398 TIP3     38       SWM4     H2       HDW      0.557330       1.00800           0   0.00000       0.00000    
     26399 TIP3     39       SWM4     OH2      ODW       1.71640       15.5994           0 -0.978253       1.30000    
     26400 TIP3     39       SWM4     DOH2     DOH2     -1.71640      0.400000           0   0.00000       0.00000    
     26401 TIP3     39       SWM4     OM       LPDW     -1.11466       0.00000          -1   0.00000       0.00000    
     26402 TIP3     39       SWM4     H1       HDW      0.557330       1.00800           0   0.00000       0.00000    
     26403 TIP3     39       SWM4     H2       HDW      0.557330       1.00800           0   0.00000       0.00000    
     26404 TIP3     40       SWM4     OH2      ODW       1.71640       15.5994           0 -0.978253       1.30000    
     26405 TIP3     40       SWM4     DOH2     DOH2     -1.71640      0.400000           0   0.00000       0.00000    
     26406 TIP3     40       SWM4     OM       LPDW     -1.11466       0.00000          -1   0.00000       0.00000    
     26407 TIP3     40       SWM4     H1       HDW      0.557330       1.00800           0   0.00000       0.00000    
     26408 TIP3     40       SWM4     H2       HDW      0.557330       1.00800           0   0.00000       0.00000    
     26409 TIP3     41       SWM4     OH2      ODW       1.71640       15.5994           0 -0.978253       1.30000    
     26410 TIP3     41       SWM4     DOH2     DOH2     -1.71640      0.400000           0   0.00000       0.00000    
     26411 TIP3     41       SWM4     OM       LPDW     -1.11466       0.00000          -1   0.00000       0.00000    
     26412 TIP3     41       SWM4     H1       HDW      0.557330       1.00800           0   0.00000       0.00000    
     26413 TIP3     41       SWM4     H2       HDW      0.557330       1.00800           0   0.00000       0.00000    
     26414 TIP3     42       SWM4     OH2      ODW       1.71640       15.5994           0 -0.978253       1.30000    
     26415 TIP3     42       SWM4     DOH2     DOH2     -1.71640      0.400000           0   0.00000       0.00000    
     26416 TIP3     42       SWM4     OM       LPDW     -1.11466       0.00000          -1   0.00000       0.00000    
     26417 TIP3     42       SWM4     H1       HDW      0.557330       1.00800           0   0.00000       0.00000    
     26418 TIP3     42       SWM4     H2       HDW      0.557330       1.00800           0   0.00000       0.00000    
     26419 TIP3     43       SWM4     OH2      ODW       1.71640       15.5994           0 -0.978253       1.30000    
     26420 TIP3     43       SWM4     DOH2     DOH2     -1.71640      0.400000           0   0.00000       0.00000    
     26421 TIP3     43       SWM4     OM       LPDW     -1.11466       0.00000          -1   0.00000       0.00000    
     26422 TIP3     43       SWM4     H1       HDW      0.557330       1.00800           0   0.00000       0.00000    
     26423 TIP3     43       SWM4     H2       HDW      0.557330       1.00800           0   0.00000       0.00000    
     26424 TIP3     44       SWM4     OH2      ODW       1.71640       15.5994           0 -0.978253       1.30000    
     26425 TIP3     44       SWM4     DOH2     DOH2     -1.71640      0.400000           0   0.00000       0.00000    
     26426 TIP3     44       SWM4     OM       LPDW     -1.11466       0.00000          -1   0.00000       0.00000    
     26427 TIP3     44       SWM4     H1       HDW      0.557330       1.00800           0   0.00000       0.00000    
     26428 TIP3     44       SWM4     H2       HDW      0.557330       1.00800           0   0.00000       0.00000    
     26429 TIP3     45       SWM4     OH2      ODW       1.71640       15.5994           0 -0.978253       1.30000    
     26430 TIP3     45       SWM4     DOH2     DOH2     -1.71640      0.400000           0   0.00000       0.00000    
     26431 TIP3     45       SWM4     OM       LPDW     -1.11466       0.00000          -1   0.00000       0.00000    
     26432 TIP3     45       SWM4     H1       HDW      0.557330       1.00800           0   0.00000       0.00000    
     26433 TIP3     45       SWM4     H2       HDW      0.557330       1.00800           0   0.00000       0.00000    
     26434 TIP3     46       SWM4     OH2      ODW       1.71640       15.5994           0 -0.978253       1.30000    
     26435 TIP3     46       SWM4     DOH2     DOH2     -1.71640      0.400000           0   0.00000       0.00000    
     26436 TIP3     46       SWM4     OM       LPDW     -1.11466       0.00000          -1   0.00000       0.00000    
     26437 TIP3     46       SWM4     H1       HDW      0.557330       1.00800           0   0.00000       0.00000    
     26438 TIP3     46       SWM4     H2       HDW      0.557330       1.00800           0   0.00000       0.00000    
     26439 TIP3     47       SWM4     OH2      ODW       1.71640       15.5994           0 -0.978253       1.30000    
     26440 TIP3     47       SWM4     DOH2     DOH2     -1.71640      0.400000           0   0.00000       0.00000    
     26441 TIP3     47       SWM4     OM       LPDW     -1.11466       0.00000          -1   0.00000       0.00000    
     26442 TIP3     47       SWM4     H1       HDW      0.557330       1.00800           0   0.00000       0.00000    
     26443 TIP3     47       SWM4     H2       HDW      0.557330       1.00800           0   0.00000       0.00000    
     26444 TIP3     48       SWM4     OH2      ODW       1.71640       15.5994           0 -0.978253       1.30000    
     26445 TIP3     48       SWM4     DOH2     DOH2     -1.71640      0.400000           0   0.00000       0.00000    
     26446 TIP3     48       SWM4     OM       LPDW     -1.11466       0.00000          -1   0.00000       0.00000    
     26447 TIP3     48       SWM4     H1       HDW      0.557330       1.00800           0   0.00000       0.00000    
     26448 TIP3     48       SWM4     H2       HDW      0.557330       1.00800           0   0.00000       0.00000    
     26449 TIP3     49       SWM4     OH2      ODW       1.71640       15.5994           0 -0.978253       1.30000    
     26450 TIP3     49       SWM4     DOH2     DOH2     -1.71640      0.400000           0   0.00000       0.00000    
     26451 TIP3     49       SWM4     OM       LPDW     -1.11466       0.00000          -1   0.00000       0.00000    
     26452 TIP3     49       SWM4     H1       HDW      0.557330       1.00800           0   0.00000       0.00000    
     26453 TIP3     49       SWM4     H2       HDW      0.557330       1.00800           0   0.00000       0.00000    
     26454 TIP3     50       SWM4     OH2      ODW       1.71640       15.5994           0 -0.978253       1.30000    
     26455 TIP3     50       SWM4     DOH2     DOH2     -1.71640      0.400000           0   0.00000       0.00000    
     26456 TIP3     50       SWM4     OM       LPDW     -1.11466       0.00000          -1   0.00000       0.00000    
     26457 TIP3     50       SWM4     H1       HDW      0.557330       1.00800           0   0.00000       0.00000    
     26458 TIP3     50       SWM4     H2       HDW      0.557330       1.00800           0   0.00000       0.00000    
     26459 TIP3     51       SWM4     OH2      ODW       1.71640       15.5994           0 -0.978253       1.30000    
     26460 TIP3     51       SWM4     DOH2     DOH2     -1.71640      0.400000           0   0.00000       0.00000    
     26461 TIP3     51       SWM4     OM       LPDW     -1.11466       0.00000          -1   0.00000       0.00000    
     26462 TIP3     51       SWM4     H1       HDW      0.557330       1.00800           0   0.00000       0.00000    
     26463 TIP3     51       SWM4     H2       HDW      0.557330       1.00800           0   0.00000       0.00000    
     26464 TIP3     52       SWM4     OH2      ODW       1.71640       15.5994           0 -0.978253       1.30000    
     26465 TIP3     52       SWM4     DOH2     DOH2     -1.71640      0.400000           0   0.00000       0.00000    
     26466 TIP3     52       SWM4     OM       LPDW     -1.11466       0.00000          -1   0.00000       0.00000    
     26467 TIP3     52       SWM4     H1       HDW      0.557330       1.00800           0   0.00000       0.00000    
     26468 TIP3     52       SWM4     H2       HDW      0.557330       1.00800           0   0.00000       0.00000    
     26469 TIP3     53       SWM4     OH2      ODW       1.71640       15.5994           0 -0.978253       1.30000    
     26470 TIP3     53       SWM4     DOH2     DOH2     -1.71640      0.400000           0   0.00000       0.00000    
     26471 TIP3     53       SWM4     OM       LPDW     -1.11466       0.00000          -1   0.00000       0.00000    
     26472 TIP3     53       SWM4     H1       HDW      0.557330       1.00800           0   0.00000       0.00000    
     26473 TIP3     53       SWM4     H2       HDW      0.557330       1.00800           0   0.00000       0.00000    
     26474 TIP3     54       SWM4     OH2      ODW       1.71640       15.5994           0 -0.978253       1.30000    
     26475 TIP3     54       SWM4     DOH2     DOH2     -1.71640      0.400000           0   0.00000       0.00000    
     26476 TIP3     54       SWM4     OM       LPDW     -1.11466       0.00000          -1   0.00000       0.00000    
     26477 TIP3     54       SWM4     H1       HDW      0.557330       1.00800           0   0.00000       0.00000    
     26478 TIP3     54       SWM4     H2       HDW      0.557330       1.00800           0   0.00000       0.00000    
     26479 TIP3     55       SWM4     OH2      ODW       1.71640       15.5994           0 -0.978253       1.30000    
     26480 TIP3     55       SWM4     DOH2     DOH2     -1.71640      0.400000           0   0.00000       0.00000    
     26481 TIP3     55       SWM4     OM       LPDW     -1.11466       0.00000          -1   0.00000       0.00000    
     26482 TIP3     55       SWM4     H1       HDW      0.557330       1.00800           0   0.00000       0.00000    
     26483 TIP3     55       SWM4     H2       HDW      0.557330       1.00800           0   0.00000       0.00000    
     26484 TIP3     56       SWM4     OH2      ODW       1.71640       15.5994           0 -0.978253       1.30000    
     26485 TIP3     56       SWM4     DOH2     DOH2     -1.71640      0.400000           0   0.00000       0.00000    
     26486 TIP3     56       SWM4     OM       LPDW     -1.11466       0.00000          -1   0.00000       0.00000    
     26487 TIP3     56       SWM4     H1       HDW      0.557330       1.00800           0   0.00000       0.00000    
     26488 TIP3     56       SWM4     H2       HDW      0.557330       1.00800           0   0.00000       0.00000    
     26489 TIP3     57       SWM4     OH2      ODW       1.71640       15.5994           0 -0.978253       1.30000    
     26490 TIP3     57       SWM4     DOH2     DOH2     -1.71640      0.400000           0   0.00000       0.00000    
     26491 TIP3     57       SWM4     OM       LPDW     -1.11466       0.00000          -1   0.00000       0.00000    
     26492 TIP3     57       SWM4     H1       HDW      0.557330       1.00800           0   0.00000       0.00000    
     26493 TIP3     57       SWM4     H2       HDW      0.557330       1.00800           0   0.00000       0.00000    
     26494 TIP3     58       SWM4     OH2      ODW       1.71640       15.5994           0 -0.978253       1.30000    
     26495 TIP3     58       SWM4     DOH2     DOH2     -1.71640      0.400000           0   0.00000       0.00000    
     26496 TIP3     58       SWM4     OM       LPDW     -1.11466       0.00000          -1   0.00000       0.00000    
     26497 TIP3     58       SWM4     H1       HDW      0.557330       1.00800           0   0.00000       0.00000    
     26498 TIP3     58       SWM4     H2       HDW      0.557330       1.00800           0   0.00000       0.00000    
     26499 TIP3     59       SWM4     OH2      ODW       1.71640       15.5994           0 -0.978253       1.30000    
     26500 TIP3     59       SWM4     DOH2     DOH2     -1.71640      0.400000           0   0.00000       0.00000    
     26501 TIP3     59       SWM4     OM       LPDW     -1.11466       0.00000          -1   0.00000       0.00000    
     26502 TIP3     59       SWM4     H1       HDW      0.557330       1.00800           0   0.00000       0.00000    
     26503 TIP3     59       SWM4     H2       HDW      0.557330       1.00800           0   0.00000       0.00000    
     26504 TIP3     60       SWM4     OH2      ODW       1.71640       15.5994           0 -0.978253       1.30000    
     26505 TIP3     60       SWM4     DOH2     DOH2     -1.71640      0.400000           0   0.00000       0.00000    
     26506 TIP3     60       SWM4     OM       LPDW     -1.11466       0.00000          -1   0.00000       0.00000    
     26507 TIP3     60       SWM4     H1       HDW      0.557330       1.00800           0   0.00000       0.00000    
     26508 TIP3     60       SWM4     H2       HDW      0.557330       1.00800           0   0.00000       0.00000    
     26509 TIP3     61       SWM4     OH2      ODW       1.71640       15.5994           0 -0.978253       1.30000    
     26510 TIP3     61       SWM4     DOH2     DOH2     -1.71640      0.400000           0   0.00000       0.00000    
     26511 TIP3     61       SWM4     OM       LPDW     -1.11466       0.00000          -1   0.00000       0.00000    
     26512 TIP3     61       SWM4     H1       HDW      0.557330       1.00800           0   0.00000       0.00000    
     26513 TIP3     61       SWM4     H2       HDW      0.557330       1.00800           0   0.00000       0.00000    
     26514 TIP3     62       SWM4     OH2      ODW       1.71640       15.5994           0 -0.978253       1.30000    
     26515 TIP3     62       SWM4     DOH2     DOH2     -1.71640      0.400000           0   0.00000       0.00000    
     26516 TIP3     62       SWM4     OM       LPDW     -1.11466       0.00000          -1   0.00000       0.00000    
     26517 TIP3     62       SWM4     H1       HDW      0.557330       1.00800           0   0.00000       0.00000    
     26518 TIP3     62       SWM4     H2       HDW      0.557330       1.00800           0   0.00000       0.00000    
     26519 TIP3     63       SWM4     OH2      ODW       1.71640       15.5994           0 -0.978253       1.30000    
     26520 TIP3     63       SWM4     DOH2     DOH2     -1.71640      0.400000           0   0.00000       0.00000    
     26521 TIP3     63       SWM4     OM       LPDW     -1.11466       0.00000          -1   0.00000       0.00000    
     26522 TIP3     63       SWM4     H1       HDW      0.557330       1.00800           0   0.00000       0.00000    
     26523 TIP3     63       SWM4     H2       HDW      0.557330       1.00800           0   0.00000       0.00000    
     26524 TIP3     64       SWM4     OH2      ODW       1.71640       15.5994           0 -0.978253       1.30000    
     26525 TIP3     64       SWM4     DOH2     DOH2     -1.71640      0.400000           0   0.00000       0.00000    
     26526 TIP3     64       SWM4     OM       LPDW     -1.11466       0.00000          -1   0.00000       0.00000    
     26527 TIP3     64       SWM4     H1       HDW      0.557330       1.00800           0   0.00000       0.00000    
     26528 TIP3     64       SWM4     H2       HDW      0.557330       1.00800           0   0.00000       0.00000    
     26529 TIP3     65       SWM4     OH2      ODW       1.71640       15.5994           0 -0.978253       1.30000    
     26530 TIP3     65       SWM4     DOH2     DOH2     -1.71640      0.400000           0   0.00000       0.00000    
     26531 TIP3     65       SWM4     OM       LPDW     -1.11466       0.00000          -1   0.00000       0.00000    
     26532 TIP3     65       SWM4     H1       HDW      0.557330       1.00800           0   0.00000       0.00000    
     26533 TIP3     65       SWM4     H2       HDW      0.557330       1.00800           0   0.00000       0.00000    
     26534 TIP3     66       SWM4     OH2      ODW       1.71640       15.5994           0 -0.978253       1.30000    
     26535 TIP3     66       SWM4     DOH2     DOH2     -1.71640      0.400000           0   0.00000       0.00000    
     26536 TIP3     66       SWM4     OM       LPDW     -1.11466       0.00000          -1   0.00000       0.00000    
     26537 TIP3     66       SWM4     H1       HDW      0.557330       1.00800           0   0.00000       0.00000    
     26538 TIP3     66       SWM4     H2       HDW      0.557330       1.00800           0   0.00000       0.00000    
     26539 TIP3     67       SWM4     OH2      ODW       1.71640       15.5994           0 -0.978253       1.30000    
     26540 TIP3     67       SWM4     DOH2     DOH2     -1.71640      0.400000           0   0.00000       0.00000    
     26541 TIP3     67       SWM4     OM       LPDW     -1.11466       0.00000          -1   0.00000       0.00000    
     26542 TIP3     67       SWM4     H1       HDW      0.557330       1.00800           0   0.00000       0.00000    
     26543 TIP3     67       SWM4     H2       HDW      0.557330       1.00800           0   0.00000       0.00000    
     26544 TIP3     68       SWM4     OH2      ODW       1.71640       15.5994           0 -0.978253       1.30000    
     26545 TIP3     68       SWM4     DOH2     DOH2     -1.71640      0.400000           0   0.00000       0.00000    
     26546 TIP3     68       SWM4     OM       LPDW     -1.11466       0.00000          -1   0.00000       0.00000    
     26547 TIP3     68       SWM4     H1       HDW      0.557330       1.00800           0   0.00000       0.00000    
     26548 TIP3     68       SWM4     H2       HDW      0.557330       1.00800           0   0.00000       0.00000    
     26549 TIP3     69       SWM4     OH2      ODW       1.71640       15.5994           0 -0.978253       1.30000    
     26550 TIP3     69       SWM4     DOH2     DOH2     -1.71640      0.400000           0   0.00000       0.00000    
     26551 TIP3     69       SWM4     OM       LPDW     -1.11466       0.00000          -1   0.00000       0.00000    
     26552 TIP3     69       SWM4     H1       HDW      0.557330       1.00800           0   0.00000       0.00000    
     26553 TIP3     69       SWM4     H2       HDW      0.557330       1.00800           0   0.00000       0.00000    
     26554 TIP3     70       SWM4     OH2      ODW       1.71640       15.5994           0 -0.978253       1.30000    
     26555 TIP3     70       SWM4     DOH2     DOH2     -1.71640      0.400000           0   0.00000       0.00000    
     26556 TIP3     70       SWM4     OM       LPDW     -1.11466       0.00000          -1   0.00000       0.00000    
     26557 TIP3     70       SWM4     H1       HDW      0.557330       1.00800           0   0.00000       0.00000    
     26558 TIP3     70       SWM4     H2       HDW      0.557330       1.00800           0   0.00000       0.00000    
     26559 TIP3     71       SWM4     OH2      ODW       1.71640       15.5994           0 -0.978253       1.30000    
     26560 TIP3     71       SWM4     DOH2     DOH2     -1.71640      0.400000           0   0.00000       0.00000    
     26561 TIP3     71       SWM4     OM       LPDW     -1.11466       0.00000          -1   0.00000       0.00000    
     26562 TIP3     71       SWM4     H1       HDW      0.557330       1.00800           0   0.00000       0.00000    
     26563 TIP3     71       SWM4     H2       HDW      0.557330       1.00800           0   0.00000       0.00000    
     26564 TIP3     72       SWM4     OH2      ODW       1.71640       15.5994           0 -0.978253       1.30000    
     26565 TIP3     72       SWM4     DOH2     DOH2     -1.71640      0.400000           0   0.00000       0.00000    
     26566 TIP3     72       SWM4     OM       LPDW     -1.11466       0.00000          -1   0.00000       0.00000    
     26567 TIP3     72       SWM4     H1       HDW      0.557330       1.00800           0   0.00000       0.00000    
     26568 TIP3     72       SWM4     H2       HDW      0.557330       1.00800           0   0.00000       0.00000    
     26569 TIP3     73       SWM4     OH2      ODW       1.71640       15.5994           0 -0.978253       1.30000    
     26570 TIP3     73       SWM4     DOH2     DOH2     -1.71640      0.400000           0   0.00000       0.00000    
     26571 TIP3     73       SWM4     OM       LPDW     -1.11466       0.00000          -1   0.00000       0.00000    
     26572 TIP3     73       SWM4     H1       HDW      0.557330       1.00800           0   0.00000       0.00000    
     26573 TIP3     73       SWM4     H2       HDW      0.557330       1.00800           0   0.00000       0.00000    
     26574 TIP3     74       SWM4     OH2      ODW       1.71640       15.5994           0 -0.978253       1.30000    
     26575 TIP3     74       SWM4     DOH2     DOH2     -1.71640      0.400000           0   0.00000       0.00000    
     26576 TIP3     74       SWM4     OM       LPDW     -1.11466       0.00000          -1   0.00000       0.00000    
     26577 TIP3     74       SWM4     H1       HDW      0.557330       1.00800           0   0.00000       0.00000    
     26578 TIP3     74       SWM4     H2       HDW      0.557330       1.00800           0   0.00000       0.00000    
     26579 TIP3     75       SWM4     OH2      ODW       1.71640       15.5994           0 -0.978253       1.30000    
     26580 TIP3     75       SWM4     DOH2     DOH2     -1.71640      0.400000           0   0.00000       0.00000    
     26581 TIP3     75       SWM4     OM       LPDW     -1.11466       0.00000          -1   0.00000       0.00000    
     26582 TIP3     75       SWM4     H1       HDW      0.557330       1.00800           0   0.00000       0.00000    
     26583 TIP3     75       SWM4     H2       HDW      0.557330       1.00800           0   0.00000       0.00000    
     26584 TIP3     76       SWM4     OH2      ODW       1.71640       15.5994           0 -0.978253       1.30000    
     26585 TIP3     76       SWM4     DOH2     DOH2     -1.71640      0.400000           0   0.00000       0.00000    
     26586 TIP3     76       SWM4     OM       LPDW     -1.11466       0.00000          -1   0.00000       0.00000    
     26587 TIP3     76       SWM4     H1       HDW      0.557330       1.00800           0   0.00000       0.00000    
     26588 TIP3     76       SWM4     H2       HDW      0.557330       1.00800           0   0.00000       0.00000    
     26589 TIP3     77       SWM4     OH2      ODW       1.71640       15.5994           0 -0.978253       1.30000    
     26590 TIP3     77       SWM4     DOH2     DOH2     -1.71640      0.400000           0   0.00000       0.00000    
     26591 TIP3     77       SWM4     OM       LPDW     -1.11466       0.00000          -1   0.00000       0.00000    
     26592 TIP3     77       SWM4     H1       HDW      0.557330       1.00800           0   0.00000       0.00000    
     26593 TIP3     77       SWM4     H2       HDW      0.557330       1.00800           0   0.00000       0.00000    
     26594 TIP3     78       SWM4     OH2      ODW       1.71640       15.5994           0 -0.978253       1.30000    
     26595 TIP3     78       SWM4     DOH2     DOH2     -1.71640      0.400000           0   0.00000       0.00000    
     26596 TIP3     78       SWM4     OM       LPDW     -1.11466       0.00000          -1   0.00000       0.00000    
     26597 TIP3     78       SWM4     H1       HDW      0.557330       1.00800           0   0.00000       0.00000    
     26598 TIP3     78       SWM4     H2       HDW      0.557330       1.00800           0   0.00000       0.00000    
     26599 TIP3     79       SWM4     OH2      ODW       1.71640       15.5994           0 -0.978253       1.30000    
     26600 TIP3     79       SWM4     DOH2     DOH2     -1.71640      0.400000           0   0.00000       0.00000    
     26601 TIP3     79       SWM4     OM       LPDW     -1.11466       0.00000          -1   0.00000       0.00000    
     26602 TIP3     79       SWM4     H1       HDW      0.557330       1.00800           0   0.00000       0.00000    
     26603 TIP3     79       SWM4     H2       HDW      0.557330       1.00800           0   0.00000       0.00000    
     26604 TIP3     80       SWM4     OH2      ODW       1.71640       15.5994           0 -0.978253       1.30000    
     26605 TIP3     80       SWM4     DOH2     DOH2     -1.71640      0.400000           0   0.00000       0.00000    
     26606 TIP3     80       SWM4     OM       LPDW     -1.11466       0.00000          -1   0.00000       0.00000    
     26607 TIP3     80       SWM4     H1       HDW      0.557330       1.00800           0   0.00000       0.00000    
     26608 TIP3     80       SWM4     H2       HDW      0.557330       1.00800           0   0.00000       0.00000    
     26609 TIP3     81       SWM4     OH2      ODW       1.71640       15.5994           0 -0.978253       1.30000    
     26610 TIP3     81       SWM4     DOH2     DOH2     -1.71640      0.400000           0   0.00000       0.00000    
     26611 TIP3     81       SWM4     OM       LPDW     -1.11466       0.00000          -1   0.00000       0.00000    
     26612 TIP3     81       SWM4     H1       HDW      0.557330       1.00800           0   0.00000       0.00000    
     26613 TIP3     81       SWM4     H2       HDW      0.557330       1.00800           0   0.00000       0.00000    
     26614 TIP3     82       SWM4     OH2      ODW       1.71640       15.5994           0 -0.978253       1.30000    
     26615 TIP3     82       SWM4     DOH2     DOH2     -1.71640      0.400000           0   0.00000       0.00000    
     26616 TIP3     82       SWM4     OM       LPDW     -1.11466       0.00000          -1   0.00000       0.00000    
     26617 TIP3     82       SWM4     H1       HDW      0.557330       1.00800           0   0.00000       0.00000    
     26618 TIP3     82       SWM4     H2       HDW      0.557330       1.00800           0   0.00000       0.00000    
     26619 TIP3     83       SWM4     OH2      ODW       1.71640       15.5994           0 -0.978253       1.30000    
     26620 TIP3     83       SWM4     DOH2     DOH2     -1.71640      0.400000           0   0.00000       0.00000    
     26621 TIP3     83       SWM4     OM       LPDW     -1.11466       0.00000          -1   0.00000       0.00000    
     26622 TIP3     83       SWM4     H1       HDW      0.557330       1.00800           0   0.00000       0.00000    
     26623 TIP3     83       SWM4     H2       HDW      0.557330       1.00800           0   0.00000       0.00000    
     26624 TIP3     84       SWM4     OH2      ODW       1.71640       15.5994           0 -0.978253       1.30000    
     26625 TIP3     84       SWM4     DOH2     DOH2     -1.71640      0.400000           0   0.00000       0.00000    
     26626 TIP3     84       SWM4     OM       LPDW     -1.11466       0.00000          -1   0.00000       0.00000    
     26627 TIP3     84       SWM4     H1       HDW      0.557330       1.00800           0   0.00000       0.00000    
     26628 TIP3     84       SWM4     H2       HDW      0.557330       1.00800           0   0.00000       0.00000    
     26629 TIP3     85       SWM4     OH2      ODW       1.71640       15.5994           0 -0.978253       1.30000    
     26630 TIP3     85       SWM4     DOH2     DOH2     -1.71640      0.400000           0   0.00000       0.00000    
     26631 TIP3     85       SWM4     OM       LPDW     -1.11466       0.00000          -1   0.00000       0.00000    
     26632 TIP3     85       SWM4     H1       HDW      0.557330       1.00800           0   0.00000       0.00000    
     26633 TIP3     85       SWM4     H2       HDW      0.557330       1.00800           0   0.00000       0.00000    
     26634 TIP3     86       SWM4     OH2      ODW       1.71640       15.5994           0 -0.978253       1.30000    
     26635 TIP3     86       SWM4     DOH2     DOH2     -1.71640      0.400000           0   0.00000       0.00000    
     26636 TIP3     86       SWM4     OM       LPDW     -1.11466       0.00000          -1   0.00000       0.00000    
     26637 TIP3     86       SWM4     H1       HDW      0.557330       1.00800           0   0.00000       0.00000    
     26638 TIP3     86       SWM4     H2       HDW      0.557330       1.00800           0   0.00000       0.00000    
     26639 TIP3     87       SWM4     OH2      ODW       1.71640       15.5994           0 -0.978253       1.30000    
     26640 TIP3     87       SWM4     DOH2     DOH2     -1.71640      0.400000           0   0.00000       0.00000    
     26641 TIP3     87       SWM4     OM       LPDW     -1.11466       0.00000          -1   0.00000       0.00000    
     26642 TIP3     87       SWM4     H1       HDW      0.557330       1.00800           0   0.00000       0.00000    
     26643 TIP3     87       SWM4     H2       HDW      0.557330       1.00800           0   0.00000       0.00000    
     26644 TIP3     88       SWM4     OH2      ODW       1.71640       15.5994           0 -0.978253       1.30000    
     26645 TIP3     88       SWM4     DOH2     DOH2     -1.71640      0.400000           0   0.00000       0.00000    
     26646 TIP3     88       SWM4     OM       LPDW     -1.11466       0.00000          -1   0.00000       0.00000    
     26647 TIP3     88       SWM4     H1       HDW      0.557330       1.00800           0   0.00000       0.00000    
     26648 TIP3     88       SWM4     H2       HDW      0.557330       1.00800           0   0.00000       0.00000    
     26649 TIP3     89       SWM4     OH2      ODW       1.71640       15.5994           0 -0.978253       1.30000    
     26650 TIP3     89       SWM4     DOH2     DOH2     -1.71640      0.400000           0   0.00000       0.00000    
     26651 TIP3     89       SWM4     OM       LPDW     -1.11466       0.00000          -1   0.00000       0.00000    
     26652 TIP3     89       SWM4     H1       HDW      0.557330       1.00800           0   0.00000       0.00000    
     26653 TIP3     89       SWM4     H2       HDW      0.557330       1.00800           0   0.00000       0.00000    
     26654 TIP3     90       SWM4     OH2      ODW       1.71640       15.5994           0 -0.978253       1.30000    
     26655 TIP3     90       SWM4     DOH2     DOH2     -1.71640      0.400000           0   0.00000       0.00000    
     26656 TIP3     90       SWM4     OM       LPDW     -1.11466       0.00000          -1   0.00000       0.00000    
     26657 TIP3     90       SWM4     H1       HDW      0.557330       1.00800           0   0.00000       0.00000    
     26658 TIP3     90       SWM4     H2       HDW      0.557330       1.00800           0   0.00000       0.00000    
     26659 TIP3     91       SWM4     OH2      ODW       1.71640       15.5994           0 -0.978253       1.30000    
     26660 TIP3     91       SWM4     DOH2     DOH2     -1.71640      0.400000           0   0.00000       0.00000    
     26661 TIP3     91       SWM4     OM       LPDW     -1.11466       0.00000          -1   0.00000       0.00000    
     26662 TIP3     91       SWM4     H1       HDW      0.557330       1.00800           0   0.00000       0.00000    
     26663 TIP3     91       SWM4     H2       HDW      0.557330       1.00800           0   0.00000       0.00000    
     26664 TIP3     92       SWM4     OH2      ODW       1.71640       15.5994           0 -0.978253       1.30000    
     26665 TIP3     92       SWM4     DOH2     DOH2     -1.71640      0.400000           0   0.00000       0.00000    
     26666 TIP3     92       SWM4     OM       LPDW     -1.11466       0.00000          -1   0.00000       0.00000    
     26667 TIP3     92       SWM4     H1       HDW      0.557330       1.00800           0   0.00000       0.00000    
     26668 TIP3     92       SWM4     H2       HDW      0.557330       1.00800           0   0.00000       0.00000    
     26669 TIP3     93       SWM4     OH2      ODW       1.71640       15.5994           0 -0.978253       1.30000    
     26670 TIP3     93       SWM4     DOH2     DOH2     -1.71640      0.400000           0   0.00000       0.00000    
     26671 TIP3     93       SWM4     OM       LPDW     -1.11466       0.00000          -1   0.00000       0.00000    
     26672 TIP3     93       SWM4     H1       HDW      0.557330       1.00800           0   0.00000       0.00000    
     26673 TIP3     93       SWM4     H2       HDW      0.557330       1.00800           0   0.00000       0.00000    
     26674 TIP3     94       SWM4     OH2      ODW       1.71640       15.5994           0 -0.978253       1.30000    
     26675 TIP3     94       SWM4     DOH2     DOH2     -1.71640      0.400000           0   0.00000       0.00000    
     26676 TIP3     94       SWM4     OM       LPDW     -1.11466       0.00000          -1   0.00000       0.00000    
     26677 TIP3     94       SWM4     H1       HDW      0.557330       1.00800           0   0.00000       0.00000    
     26678 TIP3     94       SWM4     H2       HDW      0.557330       1.00800           0   0.00000       0.00000    
     26679 TIP3     95       SWM4     OH2      ODW       1.71640       15.5994           0 -0.978253       1.30000    
     26680 TIP3     95       SWM4     DOH2     DOH2     -1.71640      0.400000           0   0.00000       0.00000    
     26681 TIP3     95       SWM4     OM       LPDW     -1.11466       0.00000          -1   0.00000       0.00000    
     26682 TIP3     95       SWM4     H1       HDW      0.557330       1.00800           0   0.00000       0.00000    
     26683 TIP3     95       SWM4     H2       HDW      0.557330       1.00800           0   0.00000       0.00000    
     26684 TIP3     96       SWM4     OH2      ODW       1.71640       15.5994           0 -0.978253       1.30000    
     26685 TIP3     96       SWM4     DOH2     DOH2     -1.71640      0.400000           0   0.00000       0.00000    
     26686 TIP3     96       SWM4     OM       LPDW     -1.11466       0.00000          -1   0.00000       0.00000    
     26687 TIP3     96       SWM4     H1       HDW      0.557330       1.00800           0   0.00000       0.00000    
     26688 TIP3     96       SWM4     H2       HDW      0.557330       1.00800           0   0.00000       0.00000    
     26689 TIP3     97       SWM4     OH2      ODW       1.71640       15.5994           0 -0.978253       1.30000    
     26690 TIP3     97       SWM4     DOH2     DOH2     -1.71640      0.400000           0   0.00000       0.00000    
     26691 TIP3     97       SWM4     OM       LPDW     -1.11466       0.00000          -1   0.00000       0.00000    
     26692 TIP3     97       SWM4     H1       HDW      0.557330       1.00800           0   0.00000       0.00000    
     26693 TIP3     97       SWM4     H2       HDW      0.557330       1.00800           0   0.00000       0.00000    
     26694 TIP3     98       SWM4     OH2      ODW       1.71640       15.5994           0 -0.978253       1.30000    
     26695 TIP3     98       SWM4     DOH2     DOH2     -1.71640      0.400000           0   0.00000       0.00000    
     26696 TIP3     98       SWM4     OM       LPDW     -1.11466       0.00000          -1   0.00000       0.00000    
     26697 TIP3     98       SWM4     H1       HDW      0.557330       1.00800           0   0.00000       0.00000    
     26698 TIP3     98       SWM4     H2       HDW      0.557330       1.00800           0   0.00000       0.00000    
     26699 TIP3     99       SWM4     OH2      ODW       1.71640       15.5994           0 -0.978253       1.30000    
     26700 TIP3     99       SWM4     DOH2     DOH2     -1.71640      0.400000           0   0.00000       0.00000    
     26701 TIP3     99       SWM4     OM       LPDW     -1.11466       0.00000          -1   0.00000       0.00000    
     26702 TIP3     99       SWM4     H1       HDW      0.557330       1.00800           0   0.00000       0.00000    
     26703 TIP3     99       SWM4     H2       HDW      0.557330       1.00800           0   0.00000       0.00000    
     26704 TIP3     100      SWM4     OH2      ODW       1.71640       15.5994           0 -0.978253       1.30000    
     26705 TIP3     100      SWM4     DOH2     DOH2     -1.71640      0.400000           0   0.00000       0.00000    
     26706 TIP3     100      SWM4     OM       LPDW     -1.11466       0.00000          -1   0.00000       0.00000    
     26707 TIP3     100      SWM4     H1       HDW      0.557330       1.00800           0   0.00000       0.00000    
     26708 TIP3     100      SWM4     H2       HDW      0.557330       1.00800           0   0.00000       0.00000    
     26709 TIP3     101      SWM4     OH2      ODW       1.71640       15.5994           0 -0.978253       1.30000    
     26710 TIP3     101      SWM4     DOH2     DOH2     -1.71640      0.400000           0   0.00000       0.00000    
     26711 TIP3     101      SWM4     OM       LPDW     -1.11466       0.00000          -1   0.00000       0.00000    
     26712 TIP3     101      SWM4     H1       HDW      0.557330       1.00800           0   0.00000       0.00000    
     26713 TIP3     101      SWM4     H2       HDW      0.557330       1.00800           0   0.00000       0.00000    
     26714 TIP3     102      SWM4     OH2      ODW       1.71640       15.5994           0 -0.978253       1.30000    
     26715 TIP3     102      SWM4     DOH2     DOH2     -1.71640      0.400000           0   0.00000       0.00000    
     26716 TIP3     102      SWM4     OM       LPDW     -1.11466       0.00000          -1   0.00000       0.00000    
     26717 TIP3     102      SWM4     H1       HDW      0.557330       1.00800           0   0.00000       0.00000    
     26718 TIP3     102      SWM4     H2       HDW      0.557330       1.00800           0   0.00000       0.00000    
     26719 TIP3     103      SWM4     OH2      ODW       1.71640       15.5994           0 -0.978253       1.30000    
     26720 TIP3     103      SWM4     DOH2     DOH2     -1.71640      0.400000           0   0.00000       0.00000    
     26721 TIP3     103      SWM4     OM       LPDW     -1.11466       0.00000          -1   0.00000       0.00000    
     26722 TIP3     103      SWM4     H1       HDW      0.557330       1.00800           0   0.00000       0.00000    
     26723 TIP3     103      SWM4     H2       HDW      0.557330       1.00800           0   0.00000       0.00000    
     26724 TIP3     104      SWM4     OH2      ODW       1.71640       15.5994           0 -0.978253       1.30000    
     26725 TIP3     104      SWM4     DOH2     DOH2     -1.71640      0.400000           0   0.00000       0.00000    
     26726 TIP3     104      SWM4     OM       LPDW     -1.11466       0.00000          -1   0.00000       0.00000    
     26727 TIP3     104      SWM4     H1       HDW      0.557330       1.00800           0   0.00000       0.00000    
     26728 TIP3     104      SWM4     H2       HDW      0.557330       1.00800           0   0.00000       0.00000    
     26729 TIP3     105      SWM4     OH2      ODW       1.71640       15.5994           0 -0.978253       1.30000    
     26730 TIP3     105      SWM4     DOH2     DOH2     -1.71640      0.400000           0   0.00000       0.00000    
     26731 TIP3     105      SWM4     OM       LPDW     -1.11466       0.00000          -1   0.00000       0.00000    
     26732 TIP3     105      SWM4     H1       HDW      0.557330       1.00800           0   0.00000       0.00000    
     26733 TIP3     105      SWM4     H2       HDW      0.557330       1.00800           0   0.00000       0.00000    
     26734 TIP3     106      SWM4     OH2      ODW       1.71640       15.5994           0 -0.978253       1.30000    
     26735 TIP3     106      SWM4     DOH2     DOH2     -1.71640      0.400000           0   0.00000       0.00000    
     26736 TIP3     106      SWM4     OM       LPDW     -1.11466       0.00000          -1   0.00000       0.00000    
     26737 TIP3     106      SWM4     H1       HDW      0.557330       1.00800           0   0.00000       0.00000    
     26738 TIP3     106      SWM4     H2       HDW      0.557330       1.00800           0   0.00000       0.00000    
     26739 TIP3     107      SWM4     OH2      ODW       1.71640       15.5994           0 -0.978253       1.30000    
     26740 TIP3     107      SWM4     DOH2     DOH2     -1.71640      0.400000           0   0.00000       0.00000    
     26741 TIP3     107      SWM4     OM       LPDW     -1.11466       0.00000          -1   0.00000       0.00000    
     26742 TIP3     107      SWM4     H1       HDW      0.557330       1.00800           0   0.00000       0.00000    
     26743 TIP3     107      SWM4     H2       HDW      0.557330       1.00800           0   0.00000       0.00000    
     26744 TIP3     108      SWM4     OH2      ODW       1.71640       15.5994           0 -0.978253       1.30000    
     26745 TIP3     108      SWM4     DOH2     DOH2     -1.71640      0.400000           0   0.00000       0.00000    
     26746 TIP3     108      SWM4     OM       LPDW     -1.11466       0.00000          -1   0.00000       0.00000    
     26747 TIP3     108      SWM4     H1       HDW      0.557330       1.00800           0   0.00000       0.00000    
     26748 TIP3     108      SWM4     H2       HDW      0.557330       1.00800           0   0.00000       0.00000    
     26749 TIP3     109      SWM4     OH2      ODW       1.71640       15.5994           0 -0.978253       1.30000    
     26750 TIP3     109      SWM4     DOH2     DOH2     -1.71640      0.400000           0   0.00000       0.00000    
     26751 TIP3     109      SWM4     OM       LPDW     -1.11466       0.00000          -1   0.00000       0.00000    
     26752 TIP3     109      SWM4     H1       HDW      0.557330       1.00800           0   0.00000       0.00000    
     26753 TIP3     109      SWM4     H2       HDW      0.557330       1.00800           0   0.00000       0.00000    
     26754 TIP3     110      SWM4     OH2      ODW       1.71640       15.5994           0 -0.978253       1.30000    
     26755 TIP3     110      SWM4     DOH2     DOH2     -1.71640      0.400000           0   0.00000       0.00000    
     26756 TIP3     110      SWM4     OM       LPDW     -1.11466       0.00000          -1   0.00000       0.00000    
     26757 TIP3     110      SWM4     H1       HDW      0.557330       1.00800           0   0.00000       0.00000    
     26758 TIP3     110      SWM4     H2       HDW      0.557330       1.00800           0   0.00000       0.00000    
     26759 TIP3     111      SWM4     OH2      ODW       1.71640       15.5994           0 -0.978253       1.30000    
     26760 TIP3     111      SWM4     DOH2     DOH2     -1.71640      0.400000           0   0.00000       0.00000    
     26761 TIP3     111      SWM4     OM       LPDW     -1.11466       0.00000          -1   0.00000       0.00000    
     26762 TIP3     111      SWM4     H1       HDW      0.557330       1.00800           0   0.00000       0.00000    
     26763 TIP3     111      SWM4     H2       HDW      0.557330       1.00800           0   0.00000       0.00000    
     26764 TIP3     112      SWM4     OH2      ODW       1.71640       15.5994           0 -0.978253       1.30000    
     26765 TIP3     112      SWM4     DOH2     DOH2     -1.71640      0.400000           0   0.00000       0.00000    
     26766 TIP3     112      SWM4     OM       LPDW     -1.11466       0.00000          -1   0.00000       0.00000    
     26767 TIP3     112      SWM4     H1       HDW      0.557330       1.00800           0   0.00000       0.00000    
     26768 TIP3     112      SWM4     H2       HDW      0.557330       1.00800           0   0.00000       0.00000    
     26769 TIP3     113      SWM4     OH2      ODW       1.71640       15.5994           0 -0.978253       1.30000    
     26770 TIP3     113      SWM4     DOH2     DOH2     -1.71640      0.400000           0   0.00000       0.00000    
     26771 TIP3     113      SWM4     OM       LPDW     -1.11466       0.00000          -1   0.00000       0.00000    
     26772 TIP3     113      SWM4     H1       HDW      0.557330       1.00800           0   0.00000       0.00000    
     26773 TIP3     113      SWM4     H2       HDW      0.557330       1.00800           0   0.00000       0.00000    
     26774 TIP3     114      SWM4     OH2      ODW       1.71640       15.5994           0 -0.978253       1.30000    
     26775 TIP3     114      SWM4     DOH2     DOH2     -1.71640      0.400000           0   0.00000       0.00000    
     26776 TIP3     114      SWM4     OM       LPDW     -1.11466       0.00000          -1   0.00000       0.00000    
     26777 TIP3     114      SWM4     H1       HDW      0.557330       1.00800           0   0.00000       0.00000    
     26778 TIP3     114      SWM4     H2       HDW      0.557330       1.00800           0   0.00000       0.00000    
     26779 TIP3     115      SWM4     OH2      ODW       1.71640       15.5994           0 -0.978253       1.30000    
     26780 TIP3     115      SWM4     DOH2     DOH2     -1.71640      0.400000           0   0.00000       0.00000    
     26781 TIP3     115      SWM4     OM       LPDW     -1.11466       0.00000          -1   0.00000       0.00000    
     26782 TIP3     115      SWM4     H1       HDW      0.557330       1.00800           0   0.00000       0.00000    
     26783 TIP3     115      SWM4     H2       HDW      0.557330       1.00800           0   0.00000       0.00000    
     26784 TIP3     116      SWM4     OH2      ODW       1.71640       15.5994           0 -0.978253       1.30000    
     26785 TIP3     116      SWM4     DOH2     DOH2     -1.71640      0.400000           0   0.00000       0.00000    
     26786 TIP3     116      SWM4     OM       LPDW     -1.11466       0.00000          -1   0.00000       0.00000    
     26787 TIP3     116      SWM4     H1       HDW      0.557330       1.00800           0   0.00000       0.00000    
     26788 TIP3     116      SWM4     H2       HDW      0.557330       1.00800           0   0.00000       0.00000    
     26789 TIP3     117      SWM4     OH2      ODW       1.71640       15.5994           0 -0.978253       1.30000    
     26790 TIP3     117      SWM4     DOH2     DOH2     -1.71640      0.400000           0   0.00000       0.00000    
     26791 TIP3     117      SWM4     OM       LPDW     -1.11466       0.00000          -1   0.00000       0.00000    
     26792 TIP3     117      SWM4     H1       HDW      0.557330       1.00800           0   0.00000       0.00000    
     26793 TIP3     117      SWM4     H2       HDW      0.557330       1.00800           0   0.00000       0.00000    
     26794 TIP3     118      SWM4     OH2      ODW       1.71640       15.5994           0 -0.978253       1.30000    
     26795 TIP3     118      SWM4     DOH2     DOH2     -1.71640      0.400000           0   0.00000       0.00000    
     26796 TIP3     118      SWM4     OM       LPDW     -1.11466       0.00000          -1   0.00000       0.00000    
     26797 TIP3     118      SWM4     H1       HDW      0.557330       1.00800           0   0.00000       0.00000    
     26798 TIP3     118      SWM4     H2       HDW      0.557330       1.00800           0   0.00000       0.00000    
     26799 TIP3     119      SWM4     OH2      ODW       1.71640       15.5994           0 -0.978253       1.30000    
     26800 TIP3     119      SWM4     DOH2     DOH2     -1.71640      0.400000           0   0.00000       0.00000    
     26801 TIP3     119      SWM4     OM       LPDW     -1.11466       0.00000          -1   0.00000       0.00000    
     26802 TIP3     119      SWM4     H1       HDW      0.557330       1.00800           0   0.00000       0.00000    
     26803 TIP3     119      SWM4     H2       HDW      0.557330       1.00800           0   0.00000       0.00000    
     26804 TIP3     120      SWM4     OH2      ODW       1.71640       15.5994           0 -0.978253       1.30000    
     26805 TIP3     120      SWM4     DOH2     DOH2     -1.71640      0.400000           0   0.00000       0.00000    
     26806 TIP3     120      SWM4     OM       LPDW     -1.11466       0.00000          -1   0.00000       0.00000    
     26807 TIP3     120      SWM4     H1       HDW      0.557330       1.00800           0   0.00000       0.00000    
     26808 TIP3     120      SWM4     H2       HDW      0.557330       1.00800           0   0.00000       0.00000    
     26809 TIP3     121      SWM4     OH2      ODW       1.71640       15.5994           0 -0.978253       1.30000    
     26810 TIP3     121      SWM4     DOH2     DOH2     -1.71640      0.400000           0   0.00000       0.00000    
     26811 TIP3     121      SWM4     OM       LPDW     -1.11466       0.00000          -1   0.00000       0.00000    
     26812 TIP3     121      SWM4     H1       HDW      0.557330       1.00800           0   0.00000       0.00000    
     26813 TIP3     121      SWM4     H2       HDW      0.557330       1.00800           0   0.00000       0.00000    
     26814 TIP3     122      SWM4     OH2      ODW       1.71640       15.5994           0 -0.978253       1.30000    
     26815 TIP3     122      SWM4     DOH2     DOH2     -1.71640      0.400000           0   0.00000       0.00000    
     26816 TIP3     122      SWM4     OM       LPDW     -1.11466       0.00000          -1   0.00000       0.00000    
     26817 TIP3     122      SWM4     H1       HDW      0.557330       1.00800           0   0.00000       0.00000    
     26818 TIP3     122      SWM4     H2       HDW      0.557330       1.00800           0   0.00000       0.00000    
     26819 TIP3     123      SWM4     OH2      ODW       1.71640       15.5994           0 -0.978253       1.30000    
     26820 TIP3     123      SWM4     DOH2     DOH2     -1.71640      0.400000           0   0.00000       0.00000    
     26821 TIP3     123      SWM4     OM       LPDW     -1.11466       0.00000          -1   0.00000       0.00000    
     26822 TIP3     123      SWM4     H1       HDW      0.557330       1.00800           0   0.00000       0.00000    
     26823 TIP3     123      SWM4     H2       HDW      0.557330       1.00800           0   0.00000       0.00000    
     26824 TIP3     124      SWM4     OH2      ODW       1.71640       15.5994           0 -0.978253       1.30000    
     26825 TIP3     124      SWM4     DOH2     DOH2     -1.71640      0.400000           0   0.00000       0.00000    
     26826 TIP3     124      SWM4     OM       LPDW     -1.11466       0.00000          -1   0.00000       0.00000    
     26827 TIP3     124      SWM4     H1       HDW      0.557330       1.00800           0   0.00000       0.00000    
     26828 TIP3     124      SWM4     H2       HDW      0.557330       1.00800           0   0.00000       0.00000    
     26829 TIP3     125      SWM4     OH2      ODW       1.71640       15.5994           0 -0.978253       1.30000    
     26830 TIP3     125      SWM4     DOH2     DOH2     -1.71640      0.400000           0   0.00000       0.00000    
     26831 TIP3     125      SWM4     OM       LPDW     -1.11466       0.00000          -1   0.00000       0.00000    
     26832 TIP3     125      SWM4     H1       HDW      0.557330       1.00800           0   0.00000       0.00000    
     26833 TIP3     125      SWM4     H2       HDW      0.557330       1.00800           0   0.00000       0.00000    
     26834 TIP3     126      SWM4     OH2      ODW       1.71640       15.5994           0 -0.978253       1.30000    
     26835 TIP3     126      SWM4     DOH2     DOH2     -1.71640      0.400000           0   0.00000       0.00000    
     26836 TIP3     126      SWM4     OM       LPDW     -1.11466       0.00000          -1   0.00000       0.00000    
     26837 TIP3     126      SWM4     H1       HDW      0.557330       1.00800           0   0.00000       0.00000    
     26838 TIP3     126      SWM4     H2       HDW      0.557330       1.00800           0   0.00000       0.00000    
     26839 TIP3     127      SWM4     OH2      ODW       1.71640       15.5994           0 -0.978253       1.30000    
     26840 TIP3     127      SWM4     DOH2     DOH2     -1.71640      0.400000           0   0.00000       0.00000    
     26841 TIP3     127      SWM4     OM       LPDW     -1.11466       0.00000          -1   0.00000       0.00000    
     26842 TIP3     127      SWM4     H1       HDW      0.557330       1.00800           0   0.00000       0.00000    
     26843 TIP3     127      SWM4     H2       HDW      0.557330       1.00800           0   0.00000       0.00000    
     26844 TIP3     128      SWM4     OH2      ODW       1.71640       15.5994           0 -0.978253       1.30000    
     26845 TIP3     128      SWM4     DOH2     DOH2     -1.71640      0.400000           0   0.00000       0.00000    
     26846 TIP3     128      SWM4     OM       LPDW     -1.11466       0.00000          -1   0.00000       0.00000    
     26847 TIP3     128      SWM4     H1       HDW      0.557330       1.00800           0   0.00000       0.00000    
     26848 TIP3     128      SWM4     H2       HDW      0.557330       1.00800           0   0.00000       0.00000    
     26849 TIP3     129      SWM4     OH2      ODW       1.71640       15.5994           0 -0.978253       1.30000    
     26850 TIP3     129      SWM4     DOH2     DOH2     -1.71640      0.400000           0   0.00000       0.00000    
     26851 TIP3     129      SWM4     OM       LPDW     -1.11466       0.00000          -1   0.00000       0.00000    
     26852 TIP3     129      SWM4     H1       HDW      0.557330       1.00800           0   0.00000       0.00000    
     26853 TIP3     129      SWM4     H2       HDW      0.557330       1.00800           0   0.00000       0.00000    
     26854 TIP3     130      SWM4     OH2      ODW       1.71640       15.5994           0 -0.978253       1.30000    
     26855 TIP3     130      SWM4     DOH2     DOH2     -1.71640      0.400000           0   0.00000       0.00000    
     26856 TIP3     130      SWM4     OM       LPDW     -1.11466       0.00000          -1   0.00000       0.00000    
     26857 TIP3     130      SWM4     H1       HDW      0.557330       1.00800           0   0.00000       0.00000    
     26858 TIP3     130      SWM4     H2       HDW      0.557330       1.00800           0   0.00000       0.00000    
     26859 TIP3     131      SWM4     OH2      ODW       1.71640       15.5994           0 -0.978253       1.30000    
     26860 TIP3     131      SWM4     DOH2     DOH2     -1.71640      0.400000           0   0.00000       0.00000    
     26861 TIP3     131      SWM4     OM       LPDW     -1.11466       0.00000          -1   0.00000       0.00000    
     26862 TIP3     131      SWM4     H1       HDW      0.557330       1.00800           0   0.00000       0.00000    
     26863 TIP3     131      SWM4     H2       HDW      0.557330       1.00800           0   0.00000       0.00000    
     26864 TIP3     132      SWM4     OH2      ODW       1.71640       15.5994           0 -0.978253       1.30000    
     26865 TIP3     132      SWM4     DOH2     DOH2     -1.71640      0.400000           0   0.00000       0.00000    
     26866 TIP3     132      SWM4     OM       LPDW     -1.11466       0.00000          -1   0.00000       0.00000    
     26867 TIP3     132      SWM4     H1       HDW      0.557330       1.00800           0   0.00000       0.00000    
     26868 TIP3     132      SWM4     H2       HDW      0.557330       1.00800           0   0.00000       0.00000    
     26869 TIP3     133      SWM4     OH2      ODW       1.71640       15.5994           0 -0.978253       1.30000    
     26870 TIP3     133      SWM4     DOH2     DOH2     -1.71640      0.400000           0   0.00000       0.00000    
     26871 TIP3     133      SWM4     OM       LPDW     -1.11466       0.00000          -1   0.00000       0.00000    
     26872 TIP3     133      SWM4     H1       HDW      0.557330       1.00800           0   0.00000       0.00000    
     26873 TIP3     133      SWM4     H2       HDW      0.557330       1.00800           0   0.00000       0.00000    
     26874 TIP3     134      SWM4     OH2      ODW       1.71640       15.5994           0 -0.978253       1.30000    
     26875 TIP3     134      SWM4     DOH2     DOH2     -1.71640      0.400000           0   0.00000       0.00000    
     26876 TIP3     134      SWM4     OM       LPDW     -1.11466       0.00000          -1   0.00000       0.00000    
     26877 TIP3     134      SWM4     H1       HDW      0.557330       1.00800           0   0.00000       0.00000    
     26878 TIP3     134      SWM4     H2       HDW      0.557330       1.00800           0   0.00000       0.00000    
     26879 TIP3     135      SWM4     OH2      ODW       1.71640       15.5994           0 -0.978253       1.30000    
     26880 TIP3     135      SWM4     DOH2     DOH2     -1.71640      0.400000           0   0.00000       0.00000    
     26881 TIP3     135      SWM4     OM       LPDW     -1.11466       0.00000          -1   0.00000       0.00000    
     26882 TIP3     135      SWM4     H1       HDW      0.557330       1.00800           0   0.00000       0.00000    
     26883 TIP3     135      SWM4     H2       HDW      0.557330       1.00800           0   0.00000       0.00000    
     26884 TIP3     136      SWM4     OH2      ODW       1.71640       15.5994           0 -0.978253       1.30000    
     26885 TIP3     136      SWM4     DOH2     DOH2     -1.71640      0.400000           0   0.00000       0.00000    
     26886 TIP3     136      SWM4     OM       LPDW     -1.11466       0.00000          -1   0.00000       0.00000    
     26887 TIP3     136      SWM4     H1       HDW      0.557330       1.00800           0   0.00000       0.00000    
     26888 TIP3     136      SWM4     H2       HDW      0.557330       1.00800           0   0.00000       0.00000    
     26889 TIP3     137      SWM4     OH2      ODW       1.71640       15.5994           0 -0.978253       1.30000    
     26890 TIP3     137      SWM4     DOH2     DOH2     -1.71640      0.400000           0   0.00000       0.00000    
     26891 TIP3     137      SWM4     OM       LPDW     -1.11466       0.00000          -1   0.00000       0.00000    
     26892 TIP3     137      SWM4     H1       HDW      0.557330       1.00800           0   0.00000       0.00000    
     26893 TIP3     137      SWM4     H2       HDW      0.557330       1.00800           0   0.00000       0.00000    
     26894 TIP3     138      SWM4     OH2      ODW       1.71640       15.5994           0 -0.978253       1.30000    
     26895 TIP3     138      SWM4     DOH2     DOH2     -1.71640      0.400000           0   0.00000       0.00000    
     26896 TIP3     138      SWM4     OM       LPDW     -1.11466       0.00000          -1   0.00000       0.00000    
     26897 TIP3     138      SWM4     H1       HDW      0.557330       1.00800           0   0.00000       0.00000    
     26898 TIP3     138      SWM4     H2       HDW      0.557330       1.00800           0   0.00000       0.00000    
     26899 TIP3     139      SWM4     OH2      ODW       1.71640       15.5994           0 -0.978253       1.30000    
     26900 TIP3     139      SWM4     DOH2     DOH2     -1.71640      0.400000           0   0.00000       0.00000    
     26901 TIP3     139      SWM4     OM       LPDW     -1.11466       0.00000          -1   0.00000       0.00000    
     26902 TIP3     139      SWM4     H1       HDW      0.557330       1.00800           0   0.00000       0.00000    
     26903 TIP3     139      SWM4     H2       HDW      0.557330       1.00800           0   0.00000       0.00000    
     26904 TIP3     140      SWM4     OH2      ODW       1.71640       15.5994           0 -0.978253       1.30000    
     26905 TIP3     140      SWM4     DOH2     DOH2     -1.71640      0.400000           0   0.00000       0.00000    
     26906 TIP3     140      SWM4     OM       LPDW     -1.11466       0.00000          -1   0.00000       0.00000    
     26907 TIP3     140      SWM4     H1       HDW      0.557330       1.00800           0   0.00000       0.00000    
     26908 TIP3     140      SWM4     H2       HDW      0.557330       1.00800           0   0.00000       0.00000    
     26909 TIP3     141      SWM4     OH2      ODW       1.71640       15.5994           0 -0.978253       1.30000    
     26910 TIP3     141      SWM4     DOH2     DOH2     -1.71640      0.400000           0   0.00000       0.00000    
     26911 TIP3     141      SWM4     OM       LPDW     -1.11466       0.00000          -1   0.00000       0.00000    
     26912 TIP3     141      SWM4     H1       HDW      0.557330       1.00800           0   0.00000       0.00000    
     26913 TIP3     141      SWM4     H2       HDW      0.557330       1.00800           0   0.00000       0.00000    
     26914 TIP3     142      SWM4     OH2      ODW       1.71640       15.5994           0 -0.978253       1.30000    
     26915 TIP3     142      SWM4     DOH2     DOH2     -1.71640      0.400000           0   0.00000       0.00000    
     26916 TIP3     142      SWM4     OM       LPDW     -1.11466       0.00000          -1   0.00000       0.00000    
     26917 TIP3     142      SWM4     H1       HDW      0.557330       1.00800           0   0.00000       0.00000    
     26918 TIP3     142      SWM4     H2       HDW      0.557330       1.00800           0   0.00000       0.00000    
     26919 TIP3     143      SWM4     OH2      ODW       1.71640       15.5994           0 -0.978253       1.30000    
     26920 TIP3     143      SWM4     DOH2     DOH2     -1.71640      0.400000           0   0.00000       0.00000    
     26921 TIP3     143      SWM4     OM       LPDW     -1.11466       0.00000          -1   0.00000       0.00000    
     26922 TIP3     143      SWM4     H1       HDW      0.557330       1.00800           0   0.00000       0.00000    
     26923 TIP3     143      SWM4     H2       HDW      0.557330       1.00800           0   0.00000       0.00000    
     26924 TIP3     144      SWM4     OH2      ODW       1.71640       15.5994           0 -0.978253       1.30000    
     26925 TIP3     144      SWM4     DOH2     DOH2     -1.71640      0.400000           0   0.00000       0.00000    
     26926 TIP3     144      SWM4     OM       LPDW     -1.11466       0.00000          -1   0.00000       0.00000    
     26927 TIP3     144      SWM4     H1       HDW      0.557330       1.00800           0   0.00000       0.00000    
     26928 TIP3     144      SWM4     H2       HDW      0.557330       1.00800           0   0.00000       0.00000    
     26929 TIP3     145      SWM4     OH2      ODW       1.71640       15.5994           0 -0.978253       1.30000    
     26930 TIP3     145      SWM4     DOH2     DOH2     -1.71640      0.400000           0   0.00000       0.00000    
     26931 TIP3     145      SWM4     OM       LPDW     -1.11466       0.00000          -1   0.00000       0.00000    
     26932 TIP3     145      SWM4     H1       HDW      0.557330       1.00800           0   0.00000       0.00000    
     26933 TIP3     145      SWM4     H2       HDW      0.557330       1.00800           0   0.00000       0.00000    
     26934 TIP3     146      SWM4     OH2      ODW       1.71640       15.5994           0 -0.978253       1.30000    
     26935 TIP3     146      SWM4     DOH2     DOH2     -1.71640      0.400000           0   0.00000       0.00000    
     26936 TIP3     146      SWM4     OM       LPDW     -1.11466       0.00000          -1   0.00000       0.00000    
     26937 TIP3     146      SWM4     H1       HDW      0.557330       1.00800           0   0.00000       0.00000    
     26938 TIP3     146      SWM4     H2       HDW      0.557330       1.00800           0   0.00000       0.00000    
     26939 TIP3     147      SWM4     OH2      ODW       1.71640       15.5994           0 -0.978253       1.30000    
     26940 TIP3     147      SWM4     DOH2     DOH2     -1.71640      0.400000           0   0.00000       0.00000    
     26941 TIP3     147      SWM4     OM       LPDW     -1.11466       0.00000          -1   0.00000       0.00000    
     26942 TIP3     147      SWM4     H1       HDW      0.557330       1.00800           0   0.00000       0.00000    
     26943 TIP3     147      SWM4     H2       HDW      0.557330       1.00800           0   0.00000       0.00000    
     26944 TIP3     148      SWM4     OH2      ODW       1.71640       15.5994           0 -0.978253       1.30000    
     26945 TIP3     148      SWM4     DOH2     DOH2     -1.71640      0.400000           0   0.00000       0.00000    
     26946 TIP3     148      SWM4     OM       LPDW     -1.11466       0.00000          -1   0.00000       0.00000    
     26947 TIP3     148      SWM4     H1       HDW      0.557330       1.00800           0   0.00000       0.00000    
     26948 TIP3     148      SWM4     H2       HDW      0.557330       1.00800           0   0.00000       0.00000    
     26949 TIP3     149      SWM4     OH2      ODW       1.71640       15.5994           0 -0.978253       1.30000    
     26950 TIP3     149      SWM4     DOH2     DOH2     -1.71640      0.400000           0   0.00000       0.00000    
     26951 TIP3     149      SWM4     OM       LPDW     -1.11466       0.00000          -1   0.00000       0.00000    
     26952 TIP3     149      SWM4     H1       HDW      0.557330       1.00800           0   0.00000       0.00000    
     26953 TIP3     149      SWM4     H2       HDW      0.557330       1.00800           0   0.00000       0.00000    
     26954 TIP3     150      SWM4     OH2      ODW       1.71640       15.5994           0 -0.978253       1.30000    
     26955 TIP3     150      SWM4     DOH2     DOH2     -1.71640      0.400000           0   0.00000       0.00000    
     26956 TIP3     150      SWM4     OM       LPDW     -1.11466       0.00000          -1   0.00000       0.00000    
     26957 TIP3     150      SWM4     H1       HDW      0.557330       1.00800           0   0.00000       0.00000    
     26958 TIP3     150      SWM4     H2       HDW      0.557330       1.00800           0   0.00000       0.00000    
     26959 TIP3     151      SWM4     OH2      ODW       1.71640       15.5994           0 -0.978253       1.30000    
     26960 TIP3     151      SWM4     DOH2     DOH2     -1.71640      0.400000           0   0.00000       0.00000    
     26961 TIP3     151      SWM4     OM       LPDW     -1.11466       0.00000          -1   0.00000       0.00000    
     26962 TIP3     151      SWM4     H1       HDW      0.557330       1.00800           0   0.00000       0.00000    
     26963 TIP3     151      SWM4     H2       HDW      0.557330       1.00800           0   0.00000       0.00000    
     26964 TIP3     152      SWM4     OH2      ODW       1.71640       15.5994           0 -0.978253       1.30000    
     26965 TIP3     152      SWM4     DOH2     DOH2     -1.71640      0.400000           0   0.00000       0.00000    
     26966 TIP3     152      SWM4     OM       LPDW     -1.11466       0.00000          -1   0.00000       0.00000    
     26967 TIP3     152      SWM4     H1       HDW      0.557330       1.00800           0   0.00000       0.00000    
     26968 TIP3     152      SWM4     H2       HDW      0.557330       1.00800           0   0.00000       0.00000    
     26969 TIP3     153      SWM4     OH2      ODW       1.71640       15.5994           0 -0.978253       1.30000    
     26970 TIP3     153      SWM4     DOH2     DOH2     -1.71640      0.400000           0   0.00000       0.00000    
     26971 TIP3     153      SWM4     OM       LPDW     -1.11466       0.00000          -1   0.00000       0.00000    
     26972 TIP3     153      SWM4     H1       HDW      0.557330       1.00800           0   0.00000       0.00000    
     26973 TIP3     153      SWM4     H2       HDW      0.557330       1.00800           0   0.00000       0.00000    
     26974 TIP3     154      SWM4     OH2      ODW       1.71640       15.5994           0 -0.978253       1.30000    
     26975 TIP3     154      SWM4     DOH2     DOH2     -1.71640      0.400000           0   0.00000       0.00000    
     26976 TIP3     154      SWM4     OM       LPDW     -1.11466       0.00000          -1   0.00000       0.00000    
     26977 TIP3     154      SWM4     H1       HDW      0.557330       1.00800           0   0.00000       0.00000    
     26978 TIP3     154      SWM4     H2       HDW      0.557330       1.00800           0   0.00000       0.00000    
     26979 TIP3     155      SWM4     OH2      ODW       1.71640       15.5994           0 -0.978253       1.30000    
     26980 TIP3     155      SWM4     DOH2     DOH2     -1.71640      0.400000           0   0.00000       0.00000    
     26981 TIP3     155      SWM4     OM       LPDW     -1.11466       0.00000          -1   0.00000       0.00000    
     26982 TIP3     155      SWM4     H1       HDW      0.557330       1.00800           0   0.00000       0.00000    
     26983 TIP3     155      SWM4     H2       HDW      0.557330       1.00800           0   0.00000       0.00000    
     26984 TIP3     156      SWM4     OH2      ODW       1.71640       15.5994           0 -0.978253       1.30000    
     26985 TIP3     156      SWM4     DOH2     DOH2     -1.71640      0.400000           0   0.00000       0.00000    
     26986 TIP3     156      SWM4     OM       LPDW     -1.11466       0.00000          -1   0.00000       0.00000    
     26987 TIP3     156      SWM4     H1       HDW      0.557330       1.00800           0   0.00000       0.00000    
     26988 TIP3     156      SWM4     H2       HDW      0.557330       1.00800           0   0.00000       0.00000    
     26989 TIP3     157      SWM4     OH2      ODW       1.71640       15.5994           0 -0.978253       1.30000    
     26990 TIP3     157      SWM4     DOH2     DOH2     -1.71640      0.400000           0   0.00000       0.00000    
     26991 TIP3     157      SWM4     OM       LPDW     -1.11466       0.00000          -1   0.00000       0.00000    
     26992 TIP3     157      SWM4     H1       HDW      0.557330       1.00800           0   0.00000       0.00000    
     26993 TIP3     157      SWM4     H2       HDW      0.557330       1.00800           0   0.00000       0.00000    
     26994 TIP3     158      SWM4     OH2      ODW       1.71640       15.5994           0 -0.978253       1.30000    
     26995 TIP3     158      SWM4     DOH2     DOH2     -1.71640      0.400000           0   0.00000       0.00000    
     26996 TIP3     158      SWM4     OM       LPDW     -1.11466       0.00000          -1   0.00000       0.00000    
     26997 TIP3     158      SWM4     H1       HDW      0.557330       1.00800           0   0.00000       0.00000    
     26998 TIP3     158      SWM4     H2       HDW      0.557330       1.00800           0   0.00000       0.00000    
     26999 TIP3     159      SWM4     OH2      ODW       1.71640       15.5994           0 -0.978253       1.30000    
     27000 TIP3     159      SWM4     DOH2     DOH2     -1.71640      0.400000           0   0.00000       0.00000    
     27001 TIP3     159      SWM4     OM       LPDW     -1.11466       0.00000          -1   0.00000       0.00000    
     27002 TIP3     159      SWM4     H1       HDW      0.557330       1.00800           0   0.00000       0.00000    
     27003 TIP3     159      SWM4     H2       HDW      0.557330       1.00800           0   0.00000       0.00000    
     27004 TIP3     160      SWM4     OH2      ODW       1.71640       15.5994           0 -0.978253       1.30000    
     27005 TIP3     160      SWM4     DOH2     DOH2     -1.71640      0.400000           0   0.00000       0.00000    
     27006 TIP3     160      SWM4     OM       LPDW     -1.11466       0.00000          -1   0.00000       0.00000    
     27007 TIP3     160      SWM4     H1       HDW      0.557330       1.00800           0   0.00000       0.00000    
     27008 TIP3     160      SWM4     H2       HDW      0.557330       1.00800           0   0.00000       0.00000    
     27009 TIP3     161      SWM4     OH2      ODW       1.71640       15.5994           0 -0.978253       1.30000    
     27010 TIP3     161      SWM4     DOH2     DOH2     -1.71640      0.400000           0   0.00000       0.00000    
     27011 TIP3     161      SWM4     OM       LPDW     -1.11466       0.00000          -1   0.00000       0.00000    
     27012 TIP3     161      SWM4     H1       HDW      0.557330       1.00800           0   0.00000       0.00000    
     27013 TIP3     161      SWM4     H2       HDW      0.557330       1.00800           0   0.00000       0.00000    
     27014 TIP3     162      SWM4     OH2      ODW       1.71640       15.5994           0 -0.978253       1.30000    
     27015 TIP3     162      SWM4     DOH2     DOH2     -1.71640      0.400000           0   0.00000       0.00000    
     27016 TIP3     162      SWM4     OM       LPDW     -1.11466       0.00000          -1   0.00000       0.00000    
     27017 TIP3     162      SWM4     H1       HDW      0.557330       1.00800           0   0.00000       0.00000    
     27018 TIP3     162      SWM4     H2       HDW      0.557330       1.00800           0   0.00000       0.00000    
     27019 TIP3     163      SWM4     OH2      ODW       1.71640       15.5994           0 -0.978253       1.30000    
     27020 TIP3     163      SWM4     DOH2     DOH2     -1.71640      0.400000           0   0.00000       0.00000    
     27021 TIP3     163      SWM4     OM       LPDW     -1.11466       0.00000          -1   0.00000       0.00000    
     27022 TIP3     163      SWM4     H1       HDW      0.557330       1.00800           0   0.00000       0.00000    
     27023 TIP3     163      SWM4     H2       HDW      0.557330       1.00800           0   0.00000       0.00000    
     27024 TIP3     164      SWM4     OH2      ODW       1.71640       15.5994           0 -0.978253       1.30000    
     27025 TIP3     164      SWM4     DOH2     DOH2     -1.71640      0.400000           0   0.00000       0.00000    
     27026 TIP3     164      SWM4     OM       LPDW     -1.11466       0.00000          -1   0.00000       0.00000    
     27027 TIP3     164      SWM4     H1       HDW      0.557330       1.00800           0   0.00000       0.00000    
     27028 TIP3     164      SWM4     H2       HDW      0.557330       1.00800           0   0.00000       0.00000    
     27029 TIP3     165      SWM4     OH2      ODW       1.71640       15.5994           0 -0.978253       1.30000    
     27030 TIP3     165      SWM4     DOH2     DOH2     -1.71640      0.400000           0   0.00000       0.00000    
     27031 TIP3     165      SWM4     OM       LPDW     -1.11466       0.00000          -1   0.00000       0.00000    
     27032 TIP3     165      SWM4     H1       HDW      0.557330       1.00800           0   0.00000       0.00000    
     27033 TIP3     165      SWM4     H2       HDW      0.557330       1.00800           0   0.00000       0.00000    
     27034 TIP3     166      SWM4     OH2      ODW       1.71640       15.5994           0 -0.978253       1.30000    
     27035 TIP3     166      SWM4     DOH2     DOH2     -1.71640      0.400000           0   0.00000       0.00000    
     27036 TIP3     166      SWM4     OM       LPDW     -1.11466       0.00000          -1   0.00000       0.00000    
     27037 TIP3     166      SWM4     H1       HDW      0.557330       1.00800           0   0.00000       0.00000    
     27038 TIP3     166      SWM4     H2       HDW      0.557330       1.00800           0   0.00000       0.00000    
     27039 TIP3     167      SWM4     OH2      ODW       1.71640       15.5994           0 -0.978253       1.30000    
     27040 TIP3     167      SWM4     DOH2     DOH2     -1.71640      0.400000           0   0.00000       0.00000    
     27041 TIP3     167      SWM4     OM       LPDW     -1.11466       0.00000          -1   0.00000       0.00000    
     27042 TIP3     167      SWM4     H1       HDW      0.557330       1.00800           0   0.00000       0.00000    
     27043 TIP3     167      SWM4     H2       HDW      0.557330       1.00800           0   0.00000       0.00000    
     27044 TIP3     168      SWM4     OH2      ODW       1.71640       15.5994           0 -0.978253       1.30000    
     27045 TIP3     168      SWM4     DOH2     DOH2     -1.71640      0.400000           0   0.00000       0.00000    
     27046 TIP3     168      SWM4     OM       LPDW     -1.11466       0.00000          -1   0.00000       0.00000    
     27047 TIP3     168      SWM4     H1       HDW      0.557330       1.00800           0   0.00000       0.00000    
     27048 TIP3     168      SWM4     H2       HDW      0.557330       1.00800           0   0.00000       0.00000    
     27049 TIP3     169      SWM4     OH2      ODW       1.71640       15.5994           0 -0.978253       1.30000    
     27050 TIP3     169      SWM4     DOH2     DOH2     -1.71640      0.400000           0   0.00000       0.00000    
     27051 TIP3     169      SWM4     OM       LPDW     -1.11466       0.00000          -1   0.00000       0.00000    
     27052 TIP3     169      SWM4     H1       HDW      0.557330       1.00800           0   0.00000       0.00000    
     27053 TIP3     169      SWM4     H2       HDW      0.557330       1.00800           0   0.00000       0.00000    
     27054 TIP3     170      SWM4     OH2      ODW       1.71640       15.5994           0 -0.978253       1.30000    
     27055 TIP3     170      SWM4     DOH2     DOH2     -1.71640      0.400000           0   0.00000       0.00000    
     27056 TIP3     170      SWM4     OM       LPDW     -1.11466       0.00000          -1   0.00000       0.00000    
     27057 TIP3     170      SWM4     H1       HDW      0.557330       1.00800           0   0.00000       0.00000    
     27058 TIP3     170      SWM4     H2       HDW      0.557330       1.00800           0   0.00000       0.00000    
     27059 TIP3     171      SWM4     OH2      ODW       1.71640       15.5994           0 -0.978253       1.30000    
     27060 TIP3     171      SWM4     DOH2     DOH2     -1.71640      0.400000           0   0.00000       0.00000    
     27061 TIP3     171      SWM4     OM       LPDW     -1.11466       0.00000          -1   0.00000       0.00000    
     27062 TIP3     171      SWM4     H1       HDW      0.557330       1.00800           0   0.00000       0.00000    
     27063 TIP3     171      SWM4     H2       HDW      0.557330       1.00800           0   0.00000       0.00000    
     27064 TIP3     172      SWM4     OH2      ODW       1.71640       15.5994           0 -0.978253       1.30000    
     27065 TIP3     172      SWM4     DOH2     DOH2     -1.71640      0.400000           0   0.00000       0.00000    
     27066 TIP3     172      SWM4     OM       LPDW     -1.11466       0.00000          -1   0.00000       0.00000    
     27067 TIP3     172      SWM4     H1       HDW      0.557330       1.00800           0   0.00000       0.00000    
     27068 TIP3     172      SWM4     H2       HDW      0.557330       1.00800           0   0.00000       0.00000    
     27069 TIP3     173      SWM4     OH2      ODW       1.71640       15.5994           0 -0.978253       1.30000    
     27070 TIP3     173      SWM4     DOH2     DOH2     -1.71640      0.400000           0   0.00000       0.00000    
     27071 TIP3     173      SWM4     OM       LPDW     -1.11466       0.00000          -1   0.00000       0.00000    
     27072 TIP3     173      SWM4     H1       HDW      0.557330       1.00800           0   0.00000       0.00000    
     27073 TIP3     173      SWM4     H2       HDW      0.557330       1.00800           0   0.00000       0.00000    
     27074 TIP3     174      SWM4     OH2      ODW       1.71640       15.5994           0 -0.978253       1.30000    
     27075 TIP3     174      SWM4     DOH2     DOH2     -1.71640      0.400000           0   0.00000       0.00000    
     27076 TIP3     174      SWM4     OM       LPDW     -1.11466       0.00000          -1   0.00000       0.00000    
     27077 TIP3     174      SWM4     H1       HDW      0.557330       1.00800           0   0.00000       0.00000    
     27078 TIP3     174      SWM4     H2       HDW      0.557330       1.00800           0   0.00000       0.00000    
     27079 TIP3     175      SWM4     OH2      ODW       1.71640       15.5994           0 -0.978253       1.30000    
     27080 TIP3     175      SWM4     DOH2     DOH2     -1.71640      0.400000           0   0.00000       0.00000    
     27081 TIP3     175      SWM4     OM       LPDW     -1.11466       0.00000          -1   0.00000       0.00000    
     27082 TIP3     175      SWM4     H1       HDW      0.557330       1.00800           0   0.00000       0.00000    
     27083 TIP3     175      SWM4     H2       HDW      0.557330       1.00800           0   0.00000       0.00000    
     27084 TIP3     176      SWM4     OH2      ODW       1.71640       15.5994           0 -0.978253       1.30000    
     27085 TIP3     176      SWM4     DOH2     DOH2     -1.71640      0.400000           0   0.00000       0.00000    
     27086 TIP3     176      SWM4     OM       LPDW     -1.11466       0.00000          -1   0.00000       0.00000    
     27087 TIP3     176      SWM4     H1       HDW      0.557330       1.00800           0   0.00000       0.00000    
     27088 TIP3     176      SWM4     H2       HDW      0.557330       1.00800           0   0.00000       0.00000    
     27089 TIP3     177      SWM4     OH2      ODW       1.71640       15.5994           0 -0.978253       1.30000    
     27090 TIP3     177      SWM4     DOH2     DOH2     -1.71640      0.400000           0   0.00000       0.00000    
     27091 TIP3     177      SWM4     OM       LPDW     -1.11466       0.00000          -1   0.00000       0.00000    
     27092 TIP3     177      SWM4     H1       HDW      0.557330       1.00800           0   0.00000       0.00000    
     27093 TIP3     177      SWM4     H2       HDW      0.557330       1.00800           0   0.00000       0.00000    
     27094 TIP3     178      SWM4     OH2      ODW       1.71640       15.5994           0 -0.978253       1.30000    
     27095 TIP3     178      SWM4     DOH2     DOH2     -1.71640      0.400000           0   0.00000       0.00000    
     27096 TIP3     178      SWM4     OM       LPDW     -1.11466       0.00000          -1   0.00000       0.00000    
     27097 TIP3     178      SWM4     H1       HDW      0.557330       1.00800           0   0.00000       0.00000    
     27098 TIP3     178      SWM4     H2       HDW      0.557330       1.00800           0   0.00000       0.00000    
     27099 TIP3     179      SWM4     OH2      ODW       1.71640       15.5994           0 -0.978253       1.30000    
     27100 TIP3     179      SWM4     DOH2     DOH2     -1.71640      0.400000           0   0.00000       0.00000    
     27101 TIP3     179      SWM4     OM       LPDW     -1.11466       0.00000          -1   0.00000       0.00000    
     27102 TIP3     179      SWM4     H1       HDW      0.557330       1.00800           0   0.00000       0.00000    
     27103 TIP3     179      SWM4     H2       HDW      0.557330       1.00800           0   0.00000       0.00000    
     27104 TIP3     180      SWM4     OH2      ODW       1.71640       15.5994           0 -0.978253       1.30000    
     27105 TIP3     180      SWM4     DOH2     DOH2     -1.71640      0.400000           0   0.00000       0.00000    
     27106 TIP3     180      SWM4     OM       LPDW     -1.11466       0.00000          -1   0.00000       0.00000    
     27107 TIP3     180      SWM4     H1       HDW      0.557330       1.00800           0   0.00000       0.00000    
     27108 TIP3     180      SWM4     H2       HDW      0.557330       1.00800           0   0.00000       0.00000    
     27109 TIP3     181      SWM4     OH2      ODW       1.71640       15.5994           0 -0.978253       1.30000    
     27110 TIP3     181      SWM4     DOH2     DOH2     -1.71640      0.400000           0   0.00000       0.00000    
     27111 TIP3     181      SWM4     OM       LPDW     -1.11466       0.00000          -1   0.00000       0.00000    
     27112 TIP3     181      SWM4     H1       HDW      0.557330       1.00800           0   0.00000       0.00000    
     27113 TIP3     181      SWM4     H2       HDW      0.557330       1.00800           0   0.00000       0.00000    
     27114 TIP3     182      SWM4     OH2      ODW       1.71640       15.5994           0 -0.978253       1.30000    
     27115 TIP3     182      SWM4     DOH2     DOH2     -1.71640      0.400000           0   0.00000       0.00000    
     27116 TIP3     182      SWM4     OM       LPDW     -1.11466       0.00000          -1   0.00000       0.00000    
     27117 TIP3     182      SWM4     H1       HDW      0.557330       1.00800           0   0.00000       0.00000    
     27118 TIP3     182      SWM4     H2       HDW      0.557330       1.00800           0   0.00000       0.00000    
     27119 TIP3     183      SWM4     OH2      ODW       1.71640       15.5994           0 -0.978253       1.30000    
     27120 TIP3     183      SWM4     DOH2     DOH2     -1.71640      0.400000           0   0.00000       0.00000    
     27121 TIP3     183      SWM4     OM       LPDW     -1.11466       0.00000          -1   0.00000       0.00000    
     27122 TIP3     183      SWM4     H1       HDW      0.557330       1.00800           0   0.00000       0.00000    
     27123 TIP3     183      SWM4     H2       HDW      0.557330       1.00800           0   0.00000       0.00000    
     27124 TIP3     184      SWM4     OH2      ODW       1.71640       15.5994           0 -0.978253       1.30000    
     27125 TIP3     184      SWM4     DOH2     DOH2     -1.71640      0.400000           0   0.00000       0.00000    
     27126 TIP3     184      SWM4     OM       LPDW     -1.11466       0.00000          -1   0.00000       0.00000    
     27127 TIP3     184      SWM4     H1       HDW      0.557330       1.00800           0   0.00000       0.00000    
     27128 TIP3     184      SWM4     H2       HDW      0.557330       1.00800           0   0.00000       0.00000    
     27129 TIP3     185      SWM4     OH2      ODW       1.71640       15.5994           0 -0.978253       1.30000    
     27130 TIP3     185      SWM4     DOH2     DOH2     -1.71640      0.400000           0   0.00000       0.00000    
     27131 TIP3     185      SWM4     OM       LPDW     -1.11466       0.00000          -1   0.00000       0.00000    
     27132 TIP3     185      SWM4     H1       HDW      0.557330       1.00800           0   0.00000       0.00000    
     27133 TIP3     185      SWM4     H2       HDW      0.557330       1.00800           0   0.00000       0.00000    
     27134 TIP3     186      SWM4     OH2      ODW       1.71640       15.5994           0 -0.978253       1.30000    
     27135 TIP3     186      SWM4     DOH2     DOH2     -1.71640      0.400000           0   0.00000       0.00000    
     27136 TIP3     186      SWM4     OM       LPDW     -1.11466       0.00000          -1   0.00000       0.00000    
     27137 TIP3     186      SWM4     H1       HDW      0.557330       1.00800           0   0.00000       0.00000    
     27138 TIP3     186      SWM4     H2       HDW      0.557330       1.00800           0   0.00000       0.00000    
     27139 TIP3     187      SWM4     OH2      ODW       1.71640       15.5994           0 -0.978253       1.30000    
     27140 TIP3     187      SWM4     DOH2     DOH2     -1.71640      0.400000           0   0.00000       0.00000    
     27141 TIP3     187      SWM4     OM       LPDW     -1.11466       0.00000          -1   0.00000       0.00000    
     27142 TIP3     187      SWM4     H1       HDW      0.557330       1.00800           0   0.00000       0.00000    
     27143 TIP3     187      SWM4     H2       HDW      0.557330       1.00800           0   0.00000       0.00000    
     27144 TIP3     188      SWM4     OH2      ODW       1.71640       15.5994           0 -0.978253       1.30000    
     27145 TIP3     188      SWM4     DOH2     DOH2     -1.71640      0.400000           0   0.00000       0.00000    
     27146 TIP3     188      SWM4     OM       LPDW     -1.11466       0.00000          -1   0.00000       0.00000    
     27147 TIP3     188      SWM4     H1       HDW      0.557330       1.00800           0   0.00000       0.00000    
     27148 TIP3     188      SWM4     H2       HDW      0.557330       1.00800           0   0.00000       0.00000    
     27149 TIP3     189      SWM4     OH2      ODW       1.71640       15.5994           0 -0.978253       1.30000    
     27150 TIP3     189      SWM4     DOH2     DOH2     -1.71640      0.400000           0   0.00000       0.00000    
     27151 TIP3     189      SWM4     OM       LPDW     -1.11466       0.00000          -1   0.00000       0.00000    
     27152 TIP3     189      SWM4     H1       HDW      0.557330       1.00800           0   0.00000       0.00000    
     27153 TIP3     189      SWM4     H2       HDW      0.557330       1.00800           0   0.00000       0.00000    
     27154 TIP3     190      SWM4     OH2      ODW       1.71640       15.5994           0 -0.978253       1.30000    
     27155 TIP3     190      SWM4     DOH2     DOH2     -1.71640      0.400000           0   0.00000       0.00000    
     27156 TIP3     190      SWM4     OM       LPDW     -1.11466       0.00000          -1   0.00000       0.00000    
     27157 TIP3     190      SWM4     H1       HDW      0.557330       1.00800           0   0.00000       0.00000    
     27158 TIP3     190      SWM4     H2       HDW      0.557330       1.00800           0   0.00000       0.00000    
     27159 TIP3     191      SWM4     OH2      ODW       1.71640       15.5994           0 -0.978253       1.30000    
     27160 TIP3     191      SWM4     DOH2     DOH2     -1.71640      0.400000           0   0.00000       0.00000    
     27161 TIP3     191      SWM4     OM       LPDW     -1.11466       0.00000          -1   0.00000       0.00000    
     27162 TIP3     191      SWM4     H1       HDW      0.557330       1.00800           0   0.00000       0.00000    
     27163 TIP3     191      SWM4     H2       HDW      0.557330       1.00800           0   0.00000       0.00000    
     27164 TIP3     192      SWM4     OH2      ODW       1.71640       15.5994           0 -0.978253       1.30000    
     27165 TIP3     192      SWM4     DOH2     DOH2     -1.71640      0.400000           0   0.00000       0.00000    
     27166 TIP3     192      SWM4     OM       LPDW     -1.11466       0.00000          -1   0.00000       0.00000    
     27167 TIP3     192      SWM4     H1       HDW      0.557330       1.00800           0   0.00000       0.00000    
     27168 TIP3     192      SWM4     H2       HDW      0.557330       1.00800           0   0.00000       0.00000    
     27169 TIP3     193      SWM4     OH2      ODW       1.71640       15.5994           0 -0.978253       1.30000    
     27170 TIP3     193      SWM4     DOH2     DOH2     -1.71640      0.400000           0   0.00000       0.00000    
     27171 TIP3     193      SWM4     OM       LPDW     -1.11466       0.00000          -1   0.00000       0.00000    
     27172 TIP3     193      SWM4     H1       HDW      0.557330       1.00800           0   0.00000       0.00000    
     27173 TIP3     193      SWM4     H2       HDW      0.557330       1.00800           0   0.00000       0.00000    
     27174 TIP3     194      SWM4     OH2      ODW       1.71640       15.5994           0 -0.978253       1.30000    
     27175 TIP3     194      SWM4     DOH2     DOH2     -1.71640      0.400000           0   0.00000       0.00000    
     27176 TIP3     194      SWM4     OM       LPDW     -1.11466       0.00000          -1   0.00000       0.00000    
     27177 TIP3     194      SWM4     H1       HDW      0.557330       1.00800           0   0.00000       0.00000    
     27178 TIP3     194      SWM4     H2       HDW      0.557330       1.00800           0   0.00000       0.00000    
     27179 TIP3     195      SWM4     OH2      ODW       1.71640       15.5994           0 -0.978253       1.30000    
     27180 TIP3     195      SWM4     DOH2     DOH2     -1.71640      0.400000           0   0.00000       0.00000    
     27181 TIP3     195      SWM4     OM       LPDW     -1.11466       0.00000          -1   0.00000       0.00000    
     27182 TIP3     195      SWM4     H1       HDW      0.557330       1.00800           0   0.00000       0.00000    
     27183 TIP3     195      SWM4     H2       HDW      0.557330       1.00800           0   0.00000       0.00000    
     27184 TIP3     196      SWM4     OH2      ODW       1.71640       15.5994           0 -0.978253       1.30000    
     27185 TIP3     196      SWM4     DOH2     DOH2     -1.71640      0.400000           0   0.00000       0.00000    
     27186 TIP3     196      SWM4     OM       LPDW     -1.11466       0.00000          -1   0.00000       0.00000    
     27187 TIP3     196      SWM4     H1       HDW      0.557330       1.00800           0   0.00000       0.00000    
     27188 TIP3     196      SWM4     H2       HDW      0.557330       1.00800           0   0.00000       0.00000    
     27189 TIP3     197      SWM4     OH2      ODW       1.71640       15.5994           0 -0.978253       1.30000    
     27190 TIP3     197      SWM4     DOH2     DOH2     -1.71640      0.400000           0   0.00000       0.00000    
     27191 TIP3     197      SWM4     OM       LPDW     -1.11466       0.00000          -1   0.00000       0.00000    
     27192 TIP3     197      SWM4     H1       HDW      0.557330       1.00800           0   0.00000       0.00000    
     27193 TIP3     197      SWM4     H2       HDW      0.557330       1.00800           0   0.00000       0.00000    
     27194 TIP3     198      SWM4     OH2      ODW       1.71640       15.5994           0 -0.978253       1.30000    
     27195 TIP3     198      SWM4     DOH2     DOH2     -1.71640      0.400000           0   0.00000       0.00000    
     27196 TIP3     198      SWM4     OM       LPDW     -1.11466       0.00000          -1   0.00000       0.00000    
     27197 TIP3     198      SWM4     H1       HDW      0.557330       1.00800           0   0.00000       0.00000    
     27198 TIP3     198      SWM4     H2       HDW      0.557330       1.00800           0   0.00000       0.00000    
     27199 TIP3     199      SWM4     OH2      ODW       1.71640       15.5994           0 -0.978253       1.30000    
     27200 TIP3     199      SWM4     DOH2     DOH2     -1.71640      0.400000           0   0.00000       0.00000    
     27201 TIP3     199      SWM4     OM       LPDW     -1.11466       0.00000          -1   0.00000       0.00000    
     27202 TIP3     199      SWM4     H1       HDW      0.557330       1.00800           0   0.00000       0.00000    
     27203 TIP3     199      SWM4     H2       HDW      0.557330       1.00800           0   0.00000       0.00000    
     27204 TIP3     200      SWM4     OH2      ODW       1.71640       15.5994           0 -0.978253       1.30000    
     27205 TIP3     200      SWM4     DOH2     DOH2     -1.71640      0.400000           0   0.00000       0.00000    
     27206 TIP3     200      SWM4     OM       LPDW     -1.11466       0.00000          -1   0.00000       0.00000    
     27207 TIP3     200      SWM4     H1       HDW      0.557330       1.00800           0   0.00000       0.00000    
     27208 TIP3     200      SWM4     H2       HDW      0.557330       1.00800           0   0.00000       0.00000    
     27209 TIP3     201      SWM4     OH2      ODW       1.71640       15.5994           0 -0.978253       1.30000    
     27210 TIP3     201      SWM4     DOH2     DOH2     -1.71640      0.400000           0   0.00000       0.00000    
     27211 TIP3     201      SWM4     OM       LPDW     -1.11466       0.00000          -1   0.00000       0.00000    
     27212 TIP3     201      SWM4     H1       HDW      0.557330       1.00800           0   0.00000       0.00000    
     27213 TIP3     201      SWM4     H2       HDW      0.557330       1.00800           0   0.00000       0.00000    
     27214 TIP3     202      SWM4     OH2      ODW       1.71640       15.5994           0 -0.978253       1.30000    
     27215 TIP3     202      SWM4     DOH2     DOH2     -1.71640      0.400000           0   0.00000       0.00000    
     27216 TIP3     202      SWM4     OM       LPDW     -1.11466       0.00000          -1   0.00000       0.00000    
     27217 TIP3     202      SWM4     H1       HDW      0.557330       1.00800           0   0.00000       0.00000    
     27218 TIP3     202      SWM4     H2       HDW      0.557330       1.00800           0   0.00000       0.00000    
     27219 TIP3     203      SWM4     OH2      ODW       1.71640       15.5994           0 -0.978253       1.30000    
     27220 TIP3     203      SWM4     DOH2     DOH2     -1.71640      0.400000           0   0.00000       0.00000    
     27221 TIP3     203      SWM4     OM       LPDW     -1.11466       0.00000          -1   0.00000       0.00000    
     27222 TIP3     203      SWM4     H1       HDW      0.557330       1.00800           0   0.00000       0.00000    
     27223 TIP3     203      SWM4     H2       HDW      0.557330       1.00800           0   0.00000       0.00000    
     27224 TIP3     204      SWM4     OH2      ODW       1.71640       15.5994           0 -0.978253       1.30000    
     27225 TIP3     204      SWM4     DOH2     DOH2     -1.71640      0.400000           0   0.00000       0.00000    
     27226 TIP3     204      SWM4     OM       LPDW     -1.11466       0.00000          -1   0.00000       0.00000    
     27227 TIP3     204      SWM4     H1       HDW      0.557330       1.00800           0   0.00000       0.00000    
     27228 TIP3     204      SWM4     H2       HDW      0.557330       1.00800           0   0.00000       0.00000    
     27229 TIP3     205      SWM4     OH2      ODW       1.71640       15.5994           0 -0.978253       1.30000    
     27230 TIP3     205      SWM4     DOH2     DOH2     -1.71640      0.400000           0   0.00000       0.00000    
     27231 TIP3     205      SWM4     OM       LPDW     -1.11466       0.00000          -1   0.00000       0.00000    
     27232 TIP3     205      SWM4     H1       HDW      0.557330       1.00800           0   0.00000       0.00000    
     27233 TIP3     205      SWM4     H2       HDW      0.557330       1.00800           0   0.00000       0.00000    
     27234 TIP3     206      SWM4     OH2      ODW       1.71640       15.5994           0 -0.978253       1.30000    
     27235 TIP3     206      SWM4     DOH2     DOH2     -1.71640      0.400000           0   0.00000       0.00000    
     27236 TIP3     206      SWM4     OM       LPDW     -1.11466       0.00000          -1   0.00000       0.00000    
     27237 TIP3     206      SWM4     H1       HDW      0.557330       1.00800           0   0.00000       0.00000    
     27238 TIP3     206      SWM4     H2       HDW      0.557330       1.00800           0   0.00000       0.00000    
     27239 TIP3     207      SWM4     OH2      ODW       1.71640       15.5994           0 -0.978253       1.30000    
     27240 TIP3     207      SWM4     DOH2     DOH2     -1.71640      0.400000           0   0.00000       0.00000    
     27241 TIP3     207      SWM4     OM       LPDW     -1.11466       0.00000          -1   0.00000       0.00000    
     27242 TIP3     207      SWM4     H1       HDW      0.557330       1.00800           0   0.00000       0.00000    
     27243 TIP3     207      SWM4     H2       HDW      0.557330       1.00800           0   0.00000       0.00000    
     27244 TIP3     208      SWM4     OH2      ODW       1.71640       15.5994           0 -0.978253       1.30000    
     27245 TIP3     208      SWM4     DOH2     DOH2     -1.71640      0.400000           0   0.00000       0.00000    
     27246 TIP3     208      SWM4     OM       LPDW     -1.11466       0.00000          -1   0.00000       0.00000    
     27247 TIP3     208      SWM4     H1       HDW      0.557330       1.00800           0   0.00000       0.00000    
     27248 TIP3     208      SWM4     H2       HDW      0.557330       1.00800           0   0.00000       0.00000    
     27249 TIP3     209      SWM4     OH2      ODW       1.71640       15.5994           0 -0.978253       1.30000    
     27250 TIP3     209      SWM4     DOH2     DOH2     -1.71640      0.400000           0   0.00000       0.00000    
     27251 TIP3     209      SWM4     OM       LPDW     -1.11466       0.00000          -1   0.00000       0.00000    
     27252 TIP3     209      SWM4     H1       HDW      0.557330       1.00800           0   0.00000       0.00000    
     27253 TIP3     209      SWM4     H2       HDW      0.557330       1.00800           0   0.00000       0.00000    
     27254 TIP3     210      SWM4     OH2      ODW       1.71640       15.5994           0 -0.978253       1.30000    
     27255 TIP3     210      SWM4     DOH2     DOH2     -1.71640      0.400000           0   0.00000       0.00000    
     27256 TIP3     210      SWM4     OM       LPDW     -1.11466       0.00000          -1   0.00000       0.00000    
     27257 TIP3     210      SWM4     H1       HDW      0.557330       1.00800           0   0.00000       0.00000    
     27258 TIP3     210      SWM4     H2       HDW      0.557330       1.00800           0   0.00000       0.00000    
     27259 TIP3     211      SWM4     OH2      ODW       1.71640       15.5994           0 -0.978253       1.30000    
     27260 TIP3     211      SWM4     DOH2     DOH2     -1.71640      0.400000           0   0.00000       0.00000    
     27261 TIP3     211      SWM4     OM       LPDW     -1.11466       0.00000          -1   0.00000       0.00000    
     27262 TIP3     211      SWM4     H1       HDW      0.557330       1.00800           0   0.00000       0.00000    
     27263 TIP3     211      SWM4     H2       HDW      0.557330       1.00800           0   0.00000       0.00000    
     27264 TIP3     212      SWM4     OH2      ODW       1.71640       15.5994           0 -0.978253       1.30000    
     27265 TIP3     212      SWM4     DOH2     DOH2     -1.71640      0.400000           0   0.00000       0.00000    
     27266 TIP3     212      SWM4     OM       LPDW     -1.11466       0.00000          -1   0.00000       0.00000    
     27267 TIP3     212      SWM4     H1       HDW      0.557330       1.00800           0   0.00000       0.00000    
     27268 TIP3     212      SWM4     H2       HDW      0.557330       1.00800           0   0.00000       0.00000    
     27269 TIP3     213      SWM4     OH2      ODW       1.71640       15.5994           0 -0.978253       1.30000    
     27270 TIP3     213      SWM4     DOH2     DOH2     -1.71640      0.400000           0   0.00000       0.00000    
     27271 TIP3     213      SWM4     OM       LPDW     -1.11466       0.00000          -1   0.00000       0.00000    
     27272 TIP3     213      SWM4     H1       HDW      0.557330       1.00800           0   0.00000       0.00000    
     27273 TIP3     213      SWM4     H2       HDW      0.557330       1.00800           0   0.00000       0.00000    
     27274 TIP3     214      SWM4     OH2      ODW       1.71640       15.5994           0 -0.978253       1.30000    
     27275 TIP3     214      SWM4     DOH2     DOH2     -1.71640      0.400000           0   0.00000       0.00000    
     27276 TIP3     214      SWM4     OM       LPDW     -1.11466       0.00000          -1   0.00000       0.00000    
     27277 TIP3     214      SWM4     H1       HDW      0.557330       1.00800           0   0.00000       0.00000    
     27278 TIP3     214      SWM4     H2       HDW      0.557330       1.00800           0   0.00000       0.00000    
     27279 TIP3     215      SWM4     OH2      ODW       1.71640       15.5994           0 -0.978253       1.30000    
     27280 TIP3     215      SWM4     DOH2     DOH2     -1.71640      0.400000           0   0.00000       0.00000    
     27281 TIP3     215      SWM4     OM       LPDW     -1.11466       0.00000          -1   0.00000       0.00000    
     27282 TIP3     215      SWM4     H1       HDW      0.557330       1.00800           0   0.00000       0.00000    
     27283 TIP3     215      SWM4     H2       HDW      0.557330       1.00800           0   0.00000       0.00000    
     27284 TIP3     216      SWM4     OH2      ODW       1.71640       15.5994           0 -0.978253       1.30000    
     27285 TIP3     216      SWM4     DOH2     DOH2     -1.71640      0.400000           0   0.00000       0.00000    
     27286 TIP3     216      SWM4     OM       LPDW     -1.11466       0.00000          -1   0.00000       0.00000    
     27287 TIP3     216      SWM4     H1       HDW      0.557330       1.00800           0   0.00000       0.00000    
     27288 TIP3     216      SWM4     H2       HDW      0.557330       1.00800           0   0.00000       0.00000    
     27289 TIP3     217      SWM4     OH2      ODW       1.71640       15.5994           0 -0.978253       1.30000    
     27290 TIP3     217      SWM4     DOH2     DOH2     -1.71640      0.400000           0   0.00000       0.00000    
     27291 TIP3     217      SWM4     OM       LPDW     -1.11466       0.00000          -1   0.00000       0.00000    
     27292 TIP3     217      SWM4     H1       HDW      0.557330       1.00800           0   0.00000       0.00000    
     27293 TIP3     217      SWM4     H2       HDW      0.557330       1.00800           0   0.00000       0.00000    
     27294 TIP3     218      SWM4     OH2      ODW       1.71640       15.5994           0 -0.978253       1.30000    
     27295 TIP3     218      SWM4     DOH2     DOH2     -1.71640      0.400000           0   0.00000       0.00000    
     27296 TIP3     218      SWM4     OM       LPDW     -1.11466       0.00000          -1   0.00000       0.00000    
     27297 TIP3     218      SWM4     H1       HDW      0.557330       1.00800           0   0.00000       0.00000    
     27298 TIP3     218      SWM4     H2       HDW      0.557330       1.00800           0   0.00000       0.00000    
     27299 TIP3     219      SWM4     OH2      ODW       1.71640       15.5994           0 -0.978253       1.30000    
     27300 TIP3     219      SWM4     DOH2     DOH2     -1.71640      0.400000           0   0.00000       0.00000    
     27301 TIP3     219      SWM4     OM       LPDW     -1.11466       0.00000          -1   0.00000       0.00000    
     27302 TIP3     219      SWM4     H1       HDW      0.557330       1.00800           0   0.00000       0.00000    
     27303 TIP3     219      SWM4     H2       HDW      0.557330       1.00800           0   0.00000       0.00000    
     27304 TIP3     220      SWM4     OH2      ODW       1.71640       15.5994           0 -0.978253       1.30000    
     27305 TIP3     220      SWM4     DOH2     DOH2     -1.71640      0.400000           0   0.00000       0.00000    
     27306 TIP3     220      SWM4     OM       LPDW     -1.11466       0.00000          -1   0.00000       0.00000    
     27307 TIP3     220      SWM4     H1       HDW      0.557330       1.00800           0   0.00000       0.00000    
     27308 TIP3     220      SWM4     H2       HDW      0.557330       1.00800           0   0.00000       0.00000    
     27309 TIP3     221      SWM4     OH2      ODW       1.71640       15.5994           0 -0.978253       1.30000    
     27310 TIP3     221      SWM4     DOH2     DOH2     -1.71640      0.400000           0   0.00000       0.00000    
     27311 TIP3     221      SWM4     OM       LPDW     -1.11466       0.00000          -1   0.00000       0.00000    
     27312 TIP3     221      SWM4     H1       HDW      0.557330       1.00800           0   0.00000       0.00000    
     27313 TIP3     221      SWM4     H2       HDW      0.557330       1.00800           0   0.00000       0.00000    
     27314 TIP3     222      SWM4     OH2      ODW       1.71640       15.5994           0 -0.978253       1.30000    
     27315 TIP3     222      SWM4     DOH2     DOH2     -1.71640      0.400000           0   0.00000       0.00000    
     27316 TIP3     222      SWM4     OM       LPDW     -1.11466       0.00000          -1   0.00000       0.00000    
     27317 TIP3     222      SWM4     H1       HDW      0.557330       1.00800           0   0.00000       0.00000    
     27318 TIP3     222      SWM4     H2       HDW      0.557330       1.00800           0   0.00000       0.00000    
     27319 TIP3     223      SWM4     OH2      ODW       1.71640       15.5994           0 -0.978253       1.30000    
     27320 TIP3     223      SWM4     DOH2     DOH2     -1.71640      0.400000           0   0.00000       0.00000    
     27321 TIP3     223      SWM4     OM       LPDW     -1.11466       0.00000          -1   0.00000       0.00000    
     27322 TIP3     223      SWM4     H1       HDW      0.557330       1.00800           0   0.00000       0.00000    
     27323 TIP3     223      SWM4     H2       HDW      0.557330       1.00800           0   0.00000       0.00000    
     27324 TIP3     224      SWM4     OH2      ODW       1.71640       15.5994           0 -0.978253       1.30000    
     27325 TIP3     224      SWM4     DOH2     DOH2     -1.71640      0.400000           0   0.00000       0.00000    
     27326 TIP3     224      SWM4     OM       LPDW     -1.11466       0.00000          -1   0.00000       0.00000    
     27327 TIP3     224      SWM4     H1       HDW      0.557330       1.00800           0   0.00000       0.00000    
     27328 TIP3     224      SWM4     H2       HDW      0.557330       1.00800           0   0.00000       0.00000    
     27329 TIP3     225      SWM4     OH2      ODW       1.71640       15.5994           0 -0.978253       1.30000    
     27330 TIP3     225      SWM4     DOH2     DOH2     -1.71640      0.400000           0   0.00000       0.00000    
     27331 TIP3     225      SWM4     OM       LPDW     -1.11466       0.00000          -1   0.00000       0.00000    
     27332 TIP3     225      SWM4     H1       HDW      0.557330       1.00800           0   0.00000       0.00000    
     27333 TIP3     225      SWM4     H2       HDW      0.557330       1.00800           0   0.00000       0.00000    
     27334 TIP3     226      SWM4     OH2      ODW       1.71640       15.5994           0 -0.978253       1.30000    
     27335 TIP3     226      SWM4     DOH2     DOH2     -1.71640      0.400000           0   0.00000       0.00000    
     27336 TIP3     226      SWM4     OM       LPDW     -1.11466       0.00000          -1   0.00000       0.00000    
     27337 TIP3     226      SWM4     H1       HDW      0.557330       1.00800           0   0.00000       0.00000    
     27338 TIP3     226      SWM4     H2       HDW      0.557330       1.00800           0   0.00000       0.00000    
     27339 TIP3     227      SWM4     OH2      ODW       1.71640       15.5994           0 -0.978253       1.30000    
     27340 TIP3     227      SWM4     DOH2     DOH2     -1.71640      0.400000           0   0.00000       0.00000    
     27341 TIP3     227      SWM4     OM       LPDW     -1.11466       0.00000          -1   0.00000       0.00000    
     27342 TIP3     227      SWM4     H1       HDW      0.557330       1.00800           0   0.00000       0.00000    
     27343 TIP3     227      SWM4     H2       HDW      0.557330       1.00800           0   0.00000       0.00000    
     27344 TIP3     228      SWM4     OH2      ODW       1.71640       15.5994           0 -0.978253       1.30000    
     27345 TIP3     228      SWM4     DOH2     DOH2     -1.71640      0.400000           0   0.00000       0.00000    
     27346 TIP3     228      SWM4     OM       LPDW     -1.11466       0.00000          -1   0.00000       0.00000    
     27347 TIP3     228      SWM4     H1       HDW      0.557330       1.00800           0   0.00000       0.00000    
     27348 TIP3     228      SWM4     H2       HDW      0.557330       1.00800           0   0.00000       0.00000    
     27349 TIP3     229      SWM4     OH2      ODW       1.71640       15.5994           0 -0.978253       1.30000    
     27350 TIP3     229      SWM4     DOH2     DOH2     -1.71640      0.400000           0   0.00000       0.00000    
     27351 TIP3     229      SWM4     OM       LPDW     -1.11466       0.00000          -1   0.00000       0.00000    
     27352 TIP3     229      SWM4     H1       HDW      0.557330       1.00800           0   0.00000       0.00000    
     27353 TIP3     229      SWM4     H2       HDW      0.557330       1.00800           0   0.00000       0.00000    
     27354 TIP3     230      SWM4     OH2      ODW       1.71640       15.5994           0 -0.978253       1.30000    
     27355 TIP3     230      SWM4     DOH2     DOH2     -1.71640      0.400000           0   0.00000       0.00000    
     27356 TIP3     230      SWM4     OM       LPDW     -1.11466       0.00000          -1   0.00000       0.00000    
     27357 TIP3     230      SWM4     H1       HDW      0.557330       1.00800           0   0.00000       0.00000    
     27358 TIP3     230      SWM4     H2       HDW      0.557330       1.00800           0   0.00000       0.00000    
     27359 TIP3     231      SWM4     OH2      ODW       1.71640       15.5994           0 -0.978253       1.30000    
     27360 TIP3     231      SWM4     DOH2     DOH2     -1.71640      0.400000           0   0.00000       0.00000    
     27361 TIP3     231      SWM4     OM       LPDW     -1.11466       0.00000          -1   0.00000       0.00000    
     27362 TIP3     231      SWM4     H1       HDW      0.557330       1.00800           0   0.00000       0.00000    
     27363 TIP3     231      SWM4     H2       HDW      0.557330       1.00800           0   0.00000       0.00000    
     27364 TIP3     232      SWM4     OH2      ODW       1.71640       15.5994           0 -0.978253       1.30000    
     27365 TIP3     232      SWM4     DOH2     DOH2     -1.71640      0.400000           0   0.00000       0.00000    
     27366 TIP3     232      SWM4     OM       LPDW     -1.11466       0.00000          -1   0.00000       0.00000    
     27367 TIP3     232      SWM4     H1       HDW      0.557330       1.00800           0   0.00000       0.00000    
     27368 TIP3     232      SWM4     H2       HDW      0.557330       1.00800           0   0.00000       0.00000    
     27369 TIP3     233      SWM4     OH2      ODW       1.71640       15.5994           0 -0.978253       1.30000    
     27370 TIP3     233      SWM4     DOH2     DOH2     -1.71640      0.400000           0   0.00000       0.00000    
     27371 TIP3     233      SWM4     OM       LPDW     -1.11466       0.00000          -1   0.00000       0.00000    
     27372 TIP3     233      SWM4     H1       HDW      0.557330       1.00800           0   0.00000       0.00000    
     27373 TIP3     233      SWM4     H2       HDW      0.557330       1.00800           0   0.00000       0.00000    
     27374 TIP3     234      SWM4     OH2      ODW       1.71640       15.5994           0 -0.978253       1.30000    
     27375 TIP3     234      SWM4     DOH2     DOH2     -1.71640      0.400000           0   0.00000       0.00000    
     27376 TIP3     234      SWM4     OM       LPDW     -1.11466       0.00000          -1   0.00000       0.00000    
     27377 TIP3     234      SWM4     H1       HDW      0.557330       1.00800           0   0.00000       0.00000    
     27378 TIP3     234      SWM4     H2       HDW      0.557330       1.00800           0   0.00000       0.00000    
     27379 TIP3     235      SWM4     OH2      ODW       1.71640       15.5994           0 -0.978253       1.30000    
     27380 TIP3     235      SWM4     DOH2     DOH2     -1.71640      0.400000           0   0.00000       0.00000    
     27381 TIP3     235      SWM4     OM       LPDW     -1.11466       0.00000          -1   0.00000       0.00000    
     27382 TIP3     235      SWM4     H1       HDW      0.557330       1.00800           0   0.00000       0.00000    
     27383 TIP3     235      SWM4     H2       HDW      0.557330       1.00800           0   0.00000       0.00000    
     27384 TIP3     236      SWM4     OH2      ODW       1.71640       15.5994           0 -0.978253       1.30000    
     27385 TIP3     236      SWM4     DOH2     DOH2     -1.71640      0.400000           0   0.00000       0.00000    
     27386 TIP3     236      SWM4     OM       LPDW     -1.11466       0.00000          -1   0.00000       0.00000    
     27387 TIP3     236      SWM4     H1       HDW      0.557330       1.00800           0   0.00000       0.00000    
     27388 TIP3     236      SWM4     H2       HDW      0.557330       1.00800           0   0.00000       0.00000    
     27389 TIP3     237      SWM4     OH2      ODW       1.71640       15.5994           0 -0.978253       1.30000    
     27390 TIP3     237      SWM4     DOH2     DOH2     -1.71640      0.400000           0   0.00000       0.00000    
     27391 TIP3     237      SWM4     OM       LPDW     -1.11466       0.00000          -1   0.00000       0.00000    
     27392 TIP3     237      SWM4     H1       HDW      0.557330       1.00800           0   0.00000       0.00000    
     27393 TIP3     237      SWM4     H2       HDW      0.557330       1.00800           0   0.00000       0.00000    
     27394 TIP3     238      SWM4     OH2      ODW       1.71640       15.5994           0 -0.978253       1.30000    
     27395 TIP3     238      SWM4     DOH2     DOH2     -1.71640      0.400000           0   0.00000       0.00000    
     27396 TIP3     238      SWM4     OM       LPDW     -1.11466       0.00000          -1   0.00000       0.00000    
     27397 TIP3     238      SWM4     H1       HDW      0.557330       1.00800           0   0.00000       0.00000    
     27398 TIP3     238      SWM4     H2       HDW      0.557330       1.00800           0   0.00000       0.00000    
     27399 TIP3     239      SWM4     OH2      ODW       1.71640       15.5994           0 -0.978253       1.30000    
     27400 TIP3     239      SWM4     DOH2     DOH2     -1.71640      0.400000           0   0.00000       0.00000    
     27401 TIP3     239      SWM4     OM       LPDW     -1.11466       0.00000          -1   0.00000       0.00000    
     27402 TIP3     239      SWM4     H1       HDW      0.557330       1.00800           0   0.00000       0.00000    
     27403 TIP3     239      SWM4     H2       HDW      0.557330       1.00800           0   0.00000       0.00000    
     27404 TIP3     240      SWM4     OH2      ODW       1.71640       15.5994           0 -0.978253       1.30000    
     27405 TIP3     240      SWM4     DOH2     DOH2     -1.71640      0.400000           0   0.00000       0.00000    
     27406 TIP3     240      SWM4     OM       LPDW     -1.11466       0.00000          -1   0.00000       0.00000    
     27407 TIP3     240      SWM4     H1       HDW      0.557330       1.00800           0   0.00000       0.00000    
     27408 TIP3     240      SWM4     H2       HDW      0.557330       1.00800           0   0.00000       0.00000    
     27409 TIP3     241      SWM4     OH2      ODW       1.71640       15.5994           0 -0.978253       1.30000    
     27410 TIP3     241      SWM4     DOH2     DOH2     -1.71640      0.400000           0   0.00000       0.00000    
     27411 TIP3     241      SWM4     OM       LPDW     -1.11466       0.00000          -1   0.00000       0.00000    
     27412 TIP3     241      SWM4     H1       HDW      0.557330       1.00800           0   0.00000       0.00000    
     27413 TIP3     241      SWM4     H2       HDW      0.557330       1.00800           0   0.00000       0.00000    
     27414 TIP3     242      SWM4     OH2      ODW       1.71640       15.5994           0 -0.978253       1.30000    
     27415 TIP3     242      SWM4     DOH2     DOH2     -1.71640      0.400000           0   0.00000       0.00000    
     27416 TIP3     242      SWM4     OM       LPDW     -1.11466       0.00000          -1   0.00000       0.00000    
     27417 TIP3     242      SWM4     H1       HDW      0.557330       1.00800           0   0.00000       0.00000    
     27418 TIP3     242      SWM4     H2       HDW      0.557330       1.00800           0   0.00000       0.00000    
     27419 TIP3     243      SWM4     OH2      ODW       1.71640       15.5994           0 -0.978253       1.30000    
     27420 TIP3     243      SWM4     DOH2     DOH2     -1.71640      0.400000           0   0.00000       0.00000    
     27421 TIP3     243      SWM4     OM       LPDW     -1.11466       0.00000          -1   0.00000       0.00000    
     27422 TIP3     243      SWM4     H1       HDW      0.557330       1.00800           0   0.00000       0.00000    
     27423 TIP3     243      SWM4     H2       HDW      0.557330       1.00800           0   0.00000       0.00000    
     27424 TIP3     244      SWM4     OH2      ODW       1.71640       15.5994           0 -0.978253       1.30000    
     27425 TIP3     244      SWM4     DOH2     DOH2     -1.71640      0.400000           0   0.00000       0.00000    
     27426 TIP3     244      SWM4     OM       LPDW     -1.11466       0.00000          -1   0.00000       0.00000    
     27427 TIP3     244      SWM4     H1       HDW      0.557330       1.00800           0   0.00000       0.00000    
     27428 TIP3     244      SWM4     H2       HDW      0.557330       1.00800           0   0.00000       0.00000    
     27429 TIP3     245      SWM4     OH2      ODW       1.71640       15.5994           0 -0.978253       1.30000    
     27430 TIP3     245      SWM4     DOH2     DOH2     -1.71640      0.400000           0   0.00000       0.00000    
     27431 TIP3     245      SWM4     OM       LPDW     -1.11466       0.00000          -1   0.00000       0.00000    
     27432 TIP3     245      SWM4     H1       HDW      0.557330       1.00800           0   0.00000       0.00000    
     27433 TIP3     245      SWM4     H2       HDW      0.557330       1.00800           0   0.00000       0.00000    
     27434 TIP3     246      SWM4     OH2      ODW       1.71640       15.5994           0 -0.978253       1.30000    
     27435 TIP3     246      SWM4     DOH2     DOH2     -1.71640      0.400000           0   0.00000       0.00000    
     27436 TIP3     246      SWM4     OM       LPDW     -1.11466       0.00000          -1   0.00000       0.00000    
     27437 TIP3     246      SWM4     H1       HDW      0.557330       1.00800           0   0.00000       0.00000    
     27438 TIP3     246      SWM4     H2       HDW      0.557330       1.00800           0   0.00000       0.00000    
     27439 TIP3     247      SWM4     OH2      ODW       1.71640       15.5994           0 -0.978253       1.30000    
     27440 TIP3     247      SWM4     DOH2     DOH2     -1.71640      0.400000           0   0.00000       0.00000    
     27441 TIP3     247      SWM4     OM       LPDW     -1.11466       0.00000          -1   0.00000       0.00000    
     27442 TIP3     247      SWM4     H1       HDW      0.557330       1.00800           0   0.00000       0.00000    
     27443 TIP3     247      SWM4     H2       HDW      0.557330       1.00800           0   0.00000       0.00000    
     27444 TIP3     248      SWM4     OH2      ODW       1.71640       15.5994           0 -0.978253       1.30000    
     27445 TIP3     248      SWM4     DOH2     DOH2     -1.71640      0.400000           0   0.00000       0.00000    
     27446 TIP3     248      SWM4     OM       LPDW     -1.11466       0.00000          -1   0.00000       0.00000    
     27447 TIP3     248      SWM4     H1       HDW      0.557330       1.00800           0   0.00000       0.00000    
     27448 TIP3     248      SWM4     H2       HDW      0.557330       1.00800           0   0.00000       0.00000    
     27449 TIP3     249      SWM4     OH2      ODW       1.71640       15.5994           0 -0.978253       1.30000    
     27450 TIP3     249      SWM4     DOH2     DOH2     -1.71640      0.400000           0   0.00000       0.00000    
     27451 TIP3     249      SWM4     OM       LPDW     -1.11466       0.00000          -1   0.00000       0.00000    
     27452 TIP3     249      SWM4     H1       HDW      0.557330       1.00800           0   0.00000       0.00000    
     27453 TIP3     249      SWM4     H2       HDW      0.557330       1.00800           0   0.00000       0.00000    
     27454 TIP3     250      SWM4     OH2      ODW       1.71640       15.5994           0 -0.978253       1.30000    
     27455 TIP3     250      SWM4     DOH2     DOH2     -1.71640      0.400000           0   0.00000       0.00000    
     27456 TIP3     250      SWM4     OM       LPDW     -1.11466       0.00000          -1   0.00000       0.00000    
     27457 TIP3     250      SWM4     H1       HDW      0.557330       1.00800           0   0.00000       0.00000    
     27458 TIP3     250      SWM4     H2       HDW      0.557330       1.00800           0   0.00000       0.00000    
     27459 TIP3     251      SWM4     OH2      ODW       1.71640       15.5994           0 -0.978253       1.30000    
     27460 TIP3     251      SWM4     DOH2     DOH2     -1.71640      0.400000           0   0.00000       0.00000    
     27461 TIP3     251      SWM4     OM       LPDW     -1.11466       0.00000          -1   0.00000       0.00000    
     27462 TIP3     251      SWM4     H1       HDW      0.557330       1.00800           0   0.00000       0.00000    
     27463 TIP3     251      SWM4     H2       HDW      0.557330       1.00800           0   0.00000       0.00000    
     27464 TIP3     252      SWM4     OH2      ODW       1.71640       15.5994           0 -0.978253       1.30000    
     27465 TIP3     252      SWM4     DOH2     DOH2     -1.71640      0.400000           0   0.00000       0.00000    
     27466 TIP3     252      SWM4     OM       LPDW     -1.11466       0.00000          -1   0.00000       0.00000    
     27467 TIP3     252      SWM4     H1       HDW      0.557330       1.00800           0   0.00000       0.00000    
     27468 TIP3     252      SWM4     H2       HDW      0.557330       1.00800           0   0.00000       0.00000    
     27469 TIP3     253      SWM4     OH2      ODW       1.71640       15.5994           0 -0.978253       1.30000    
     27470 TIP3     253      SWM4     DOH2     DOH2     -1.71640      0.400000           0   0.00000       0.00000    
     27471 TIP3     253      SWM4     OM       LPDW     -1.11466       0.00000          -1   0.00000       0.00000    
     27472 TIP3     253      SWM4     H1       HDW      0.557330       1.00800           0   0.00000       0.00000    
     27473 TIP3     253      SWM4     H2       HDW      0.557330       1.00800           0   0.00000       0.00000    
     27474 TIP3     254      SWM4     OH2      ODW       1.71640       15.5994           0 -0.978253       1.30000    
     27475 TIP3     254      SWM4     DOH2     DOH2     -1.71640      0.400000           0   0.00000       0.00000    
     27476 TIP3     254      SWM4     OM       LPDW     -1.11466       0.00000          -1   0.00000       0.00000    
     27477 TIP3     254      SWM4     H1       HDW      0.557330       1.00800           0   0.00000       0.00000    
     27478 TIP3     254      SWM4     H2       HDW      0.557330       1.00800           0   0.00000       0.00000    
     27479 TIP3     255      SWM4     OH2      ODW       1.71640       15.5994           0 -0.978253       1.30000    
     27480 TIP3     255      SWM4     DOH2     DOH2     -1.71640      0.400000           0   0.00000       0.00000    
     27481 TIP3     255      SWM4     OM       LPDW     -1.11466       0.00000          -1   0.00000       0.00000    
     27482 TIP3     255      SWM4     H1       HDW      0.557330       1.00800           0   0.00000       0.00000    
     27483 TIP3     255      SWM4     H2       HDW      0.557330       1.00800           0   0.00000       0.00000    
     27484 TIP3     256      SWM4     OH2      ODW       1.71640       15.5994           0 -0.978253       1.30000    
     27485 TIP3     256      SWM4     DOH2     DOH2     -1.71640      0.400000           0   0.00000       0.00000    
     27486 TIP3     256      SWM4     OM       LPDW     -1.11466       0.00000          -1   0.00000       0.00000    
     27487 TIP3     256      SWM4     H1       HDW      0.557330       1.00800           0   0.00000       0.00000    
     27488 TIP3     256      SWM4     H2       HDW      0.557330       1.00800           0   0.00000       0.00000    
     27489 TIP3     257      SWM4     OH2      ODW       1.71640       15.5994           0 -0.978253       1.30000    
     27490 TIP3     257      SWM4     DOH2     DOH2     -1.71640      0.400000           0   0.00000       0.00000    
     27491 TIP3     257      SWM4     OM       LPDW     -1.11466       0.00000          -1   0.00000       0.00000    
     27492 TIP3     257      SWM4     H1       HDW      0.557330       1.00800           0   0.00000       0.00000    
     27493 TIP3     257      SWM4     H2       HDW      0.557330       1.00800           0   0.00000       0.00000    
     27494 TIP3     258      SWM4     OH2      ODW       1.71640       15.5994           0 -0.978253       1.30000    
     27495 TIP3     258      SWM4     DOH2     DOH2     -1.71640      0.400000           0   0.00000       0.00000    
     27496 TIP3     258      SWM4     OM       LPDW     -1.11466       0.00000          -1   0.00000       0.00000    
     27497 TIP3     258      SWM4     H1       HDW      0.557330       1.00800           0   0.00000       0.00000    
     27498 TIP3     258      SWM4     H2       HDW      0.557330       1.00800           0   0.00000       0.00000    
     27499 TIP3     259      SWM4     OH2      ODW       1.71640       15.5994           0 -0.978253       1.30000    
     27500 TIP3     259      SWM4     DOH2     DOH2     -1.71640      0.400000           0   0.00000       0.00000    
     27501 TIP3     259      SWM4     OM       LPDW     -1.11466       0.00000          -1   0.00000       0.00000    
     27502 TIP3     259      SWM4     H1       HDW      0.557330       1.00800           0   0.00000       0.00000    
     27503 TIP3     259      SWM4     H2       HDW      0.557330       1.00800           0   0.00000       0.00000    
     27504 TIP3     260      SWM4     OH2      ODW       1.71640       15.5994           0 -0.978253       1.30000    
     27505 TIP3     260      SWM4     DOH2     DOH2     -1.71640      0.400000           0   0.00000       0.00000    
     27506 TIP3     260      SWM4     OM       LPDW     -1.11466       0.00000          -1   0.00000       0.00000    
     27507 TIP3     260      SWM4     H1       HDW      0.557330       1.00800           0   0.00000       0.00000    
     27508 TIP3     260      SWM4     H2       HDW      0.557330       1.00800           0   0.00000       0.00000    
     27509 TIP3     261      SWM4     OH2      ODW       1.71640       15.5994           0 -0.978253       1.30000    
     27510 TIP3     261      SWM4     DOH2     DOH2     -1.71640      0.400000           0   0.00000       0.00000    
     27511 TIP3     261      SWM4     OM       LPDW     -1.11466       0.00000          -1   0.00000       0.00000    
     27512 TIP3     261      SWM4     H1       HDW      0.557330       1.00800           0   0.00000       0.00000    
     27513 TIP3     261      SWM4     H2       HDW      0.557330       1.00800           0   0.00000       0.00000    
     27514 TIP3     262      SWM4     OH2      ODW       1.71640       15.5994           0 -0.978253       1.30000    
     27515 TIP3     262      SWM4     DOH2     DOH2     -1.71640      0.400000           0   0.00000       0.00000    
     27516 TIP3     262      SWM4     OM       LPDW     -1.11466       0.00000          -1   0.00000       0.00000    
     27517 TIP3     262      SWM4     H1       HDW      0.557330       1.00800           0   0.00000       0.00000    
     27518 TIP3     262      SWM4     H2       HDW      0.557330       1.00800           0   0.00000       0.00000    
     27519 TIP3     263      SWM4     OH2      ODW       1.71640       15.5994           0 -0.978253       1.30000    
     27520 TIP3     263      SWM4     DOH2     DOH2     -1.71640      0.400000           0   0.00000       0.00000    
     27521 TIP3     263      SWM4     OM       LPDW     -1.11466       0.00000          -1   0.00000       0.00000    
     27522 TIP3     263      SWM4     H1       HDW      0.557330       1.00800           0   0.00000       0.00000    
     27523 TIP3     263      SWM4     H2       HDW      0.557330       1.00800           0   0.00000       0.00000    
     27524 TIP3     264      SWM4     OH2      ODW       1.71640       15.5994           0 -0.978253       1.30000    
     27525 TIP3     264      SWM4     DOH2     DOH2     -1.71640      0.400000           0   0.00000       0.00000    
     27526 TIP3     264      SWM4     OM       LPDW     -1.11466       0.00000          -1   0.00000       0.00000    
     27527 TIP3     264      SWM4     H1       HDW      0.557330       1.00800           0   0.00000       0.00000    
     27528 TIP3     264      SWM4     H2       HDW      0.557330       1.00800           0   0.00000       0.00000    
     27529 TIP3     265      SWM4     OH2      ODW       1.71640       15.5994           0 -0.978253       1.30000    
     27530 TIP3     265      SWM4     DOH2     DOH2     -1.71640      0.400000           0   0.00000       0.00000    
     27531 TIP3     265      SWM4     OM       LPDW     -1.11466       0.00000          -1   0.00000       0.00000    
     27532 TIP3     265      SWM4     H1       HDW      0.557330       1.00800           0   0.00000       0.00000    
     27533 TIP3     265      SWM4     H2       HDW      0.557330       1.00800           0   0.00000       0.00000    
     27534 TIP3     266      SWM4     OH2      ODW       1.71640       15.5994           0 -0.978253       1.30000    
     27535 TIP3     266      SWM4     DOH2     DOH2     -1.71640      0.400000           0   0.00000       0.00000    
     27536 TIP3     266      SWM4     OM       LPDW     -1.11466       0.00000          -1   0.00000       0.00000    
     27537 TIP3     266      SWM4     H1       HDW      0.557330       1.00800           0   0.00000       0.00000    
     27538 TIP3     266      SWM4     H2       HDW      0.557330       1.00800           0   0.00000       0.00000    
     27539 TIP3     267      SWM4     OH2      ODW       1.71640       15.5994           0 -0.978253       1.30000    
     27540 TIP3     267      SWM4     DOH2     DOH2     -1.71640      0.400000           0   0.00000       0.00000    
     27541 TIP3     267      SWM4     OM       LPDW     -1.11466       0.00000          -1   0.00000       0.00000    
     27542 TIP3     267      SWM4     H1       HDW      0.557330       1.00800           0   0.00000       0.00000    
     27543 TIP3     267      SWM4     H2       HDW      0.557330       1.00800           0   0.00000       0.00000    
     27544 TIP3     268      SWM4     OH2      ODW       1.71640       15.5994           0 -0.978253       1.30000    
     27545 TIP3     268      SWM4     DOH2     DOH2     -1.71640      0.400000           0   0.00000       0.00000    
     27546 TIP3     268      SWM4     OM       LPDW     -1.11466       0.00000          -1   0.00000       0.00000    
     27547 TIP3     268      SWM4     H1       HDW      0.557330       1.00800           0   0.00000       0.00000    
     27548 TIP3     268      SWM4     H2       HDW      0.557330       1.00800           0   0.00000       0.00000    
     27549 TIP3     269      SWM4     OH2      ODW       1.71640       15.5994           0 -0.978253       1.30000    
     27550 TIP3     269      SWM4     DOH2     DOH2     -1.71640      0.400000           0   0.00000       0.00000    
     27551 TIP3     269      SWM4     OM       LPDW     -1.11466       0.00000          -1   0.00000       0.00000    
     27552 TIP3     269      SWM4     H1       HDW      0.557330       1.00800           0   0.00000       0.00000    
     27553 TIP3     269      SWM4     H2       HDW      0.557330       1.00800           0   0.00000       0.00000    
     27554 TIP3     270      SWM4     OH2      ODW       1.71640       15.5994           0 -0.978253       1.30000    
     27555 TIP3     270      SWM4     DOH2     DOH2     -1.71640      0.400000           0   0.00000       0.00000    
     27556 TIP3     270      SWM4     OM       LPDW     -1.11466       0.00000          -1   0.00000       0.00000    
     27557 TIP3     270      SWM4     H1       HDW      0.557330       1.00800           0   0.00000       0.00000    
     27558 TIP3     270      SWM4     H2       HDW      0.557330       1.00800           0   0.00000       0.00000    
     27559 TIP3     271      SWM4     OH2      ODW       1.71640       15.5994           0 -0.978253       1.30000    
     27560 TIP3     271      SWM4     DOH2     DOH2     -1.71640      0.400000           0   0.00000       0.00000    
     27561 TIP3     271      SWM4     OM       LPDW     -1.11466       0.00000          -1   0.00000       0.00000    
     27562 TIP3     271      SWM4     H1       HDW      0.557330       1.00800           0   0.00000       0.00000    
     27563 TIP3     271      SWM4     H2       HDW      0.557330       1.00800           0   0.00000       0.00000    
     27564 TIP3     272      SWM4     OH2      ODW       1.71640       15.5994           0 -0.978253       1.30000    
     27565 TIP3     272      SWM4     DOH2     DOH2     -1.71640      0.400000           0   0.00000       0.00000    
     27566 TIP3     272      SWM4     OM       LPDW     -1.11466       0.00000          -1   0.00000       0.00000    
     27567 TIP3     272      SWM4     H1       HDW      0.557330       1.00800           0   0.00000       0.00000    
     27568 TIP3     272      SWM4     H2       HDW      0.557330       1.00800           0   0.00000       0.00000    
     27569 TIP3     273      SWM4     OH2      ODW       1.71640       15.5994           0 -0.978253       1.30000    
     27570 TIP3     273      SWM4     DOH2     DOH2     -1.71640      0.400000           0   0.00000       0.00000    
     27571 TIP3     273      SWM4     OM       LPDW     -1.11466       0.00000          -1   0.00000       0.00000    
     27572 TIP3     273      SWM4     H1       HDW      0.557330       1.00800           0   0.00000       0.00000    
     27573 TIP3     273      SWM4     H2       HDW      0.557330       1.00800           0   0.00000       0.00000    
     27574 TIP3     274      SWM4     OH2      ODW       1.71640       15.5994           0 -0.978253       1.30000    
     27575 TIP3     274      SWM4     DOH2     DOH2     -1.71640      0.400000           0   0.00000       0.00000    
     27576 TIP3     274      SWM4     OM       LPDW     -1.11466       0.00000          -1   0.00000       0.00000    
     27577 TIP3     274      SWM4     H1       HDW      0.557330       1.00800           0   0.00000       0.00000    
     27578 TIP3     274      SWM4     H2       HDW      0.557330       1.00800           0   0.00000       0.00000    
     27579 TIP3     275      SWM4     OH2      ODW       1.71640       15.5994           0 -0.978253       1.30000    
     27580 TIP3     275      SWM4     DOH2     DOH2     -1.71640      0.400000           0   0.00000       0.00000    
     27581 TIP3     275      SWM4     OM       LPDW     -1.11466       0.00000          -1   0.00000       0.00000    
     27582 TIP3     275      SWM4     H1       HDW      0.557330       1.00800           0   0.00000       0.00000    
     27583 TIP3     275      SWM4     H2       HDW      0.557330       1.00800           0   0.00000       0.00000    
     27584 TIP3     276      SWM4     OH2      ODW       1.71640       15.5994           0 -0.978253       1.30000    
     27585 TIP3     276      SWM4     DOH2     DOH2     -1.71640      0.400000           0   0.00000       0.00000    
     27586 TIP3     276      SWM4     OM       LPDW     -1.11466       0.00000          -1   0.00000       0.00000    
     27587 TIP3     276      SWM4     H1       HDW      0.557330       1.00800           0   0.00000       0.00000    
     27588 TIP3     276      SWM4     H2       HDW      0.557330       1.00800           0   0.00000       0.00000    
     27589 TIP3     277      SWM4     OH2      ODW       1.71640       15.5994           0 -0.978253       1.30000    
     27590 TIP3     277      SWM4     DOH2     DOH2     -1.71640      0.400000           0   0.00000       0.00000    
     27591 TIP3     277      SWM4     OM       LPDW     -1.11466       0.00000          -1   0.00000       0.00000    
     27592 TIP3     277      SWM4     H1       HDW      0.557330       1.00800           0   0.00000       0.00000    
     27593 TIP3     277      SWM4     H2       HDW      0.557330       1.00800           0   0.00000       0.00000    
     27594 TIP3     278      SWM4     OH2      ODW       1.71640       15.5994           0 -0.978253       1.30000    
     27595 TIP3     278      SWM4     DOH2     DOH2     -1.71640      0.400000           0   0.00000       0.00000    
     27596 TIP3     278      SWM4     OM       LPDW     -1.11466       0.00000          -1   0.00000       0.00000    
     27597 TIP3     278      SWM4     H1       HDW      0.557330       1.00800           0   0.00000       0.00000    
     27598 TIP3     278      SWM4     H2       HDW      0.557330       1.00800           0   0.00000       0.00000    
     27599 TIP3     279      SWM4     OH2      ODW       1.71640       15.5994           0 -0.978253       1.30000    
     27600 TIP3     279      SWM4     DOH2     DOH2     -1.71640      0.400000           0   0.00000       0.00000    
     27601 TIP3     279      SWM4     OM       LPDW     -1.11466       0.00000          -1   0.00000       0.00000    
     27602 TIP3     279      SWM4     H1       HDW      0.557330       1.00800           0   0.00000       0.00000    
     27603 TIP3     279      SWM4     H2       HDW      0.557330       1.00800           0   0.00000       0.00000    
     27604 TIP3     280      SWM4     OH2      ODW       1.71640       15.5994           0 -0.978253       1.30000    
     27605 TIP3     280      SWM4     DOH2     DOH2     -1.71640      0.400000           0   0.00000       0.00000    
     27606 TIP3     280      SWM4     OM       LPDW     -1.11466       0.00000          -1   0.00000       0.00000    
     27607 TIP3     280      SWM4     H1       HDW      0.557330       1.00800           0   0.00000       0.00000    
     27608 TIP3     280      SWM4     H2       HDW      0.557330       1.00800           0   0.00000       0.00000    
     27609 TIP3     281      SWM4     OH2      ODW       1.71640       15.5994           0 -0.978253       1.30000    
     27610 TIP3     281      SWM4     DOH2     DOH2     -1.71640      0.400000           0   0.00000       0.00000    
     27611 TIP3     281      SWM4     OM       LPDW     -1.11466       0.00000          -1   0.00000       0.00000    
     27612 TIP3     281      SWM4     H1       HDW      0.557330       1.00800           0   0.00000       0.00000    
     27613 TIP3     281      SWM4     H2       HDW      0.557330       1.00800           0   0.00000       0.00000    
     27614 TIP3     282      SWM4     OH2      ODW       1.71640       15.5994           0 -0.978253       1.30000    
     27615 TIP3     282      SWM4     DOH2     DOH2     -1.71640      0.400000           0   0.00000       0.00000    
     27616 TIP3     282      SWM4     OM       LPDW     -1.11466       0.00000          -1   0.00000       0.00000    
     27617 TIP3     282      SWM4     H1       HDW      0.557330       1.00800           0   0.00000       0.00000    
     27618 TIP3     282      SWM4     H2       HDW      0.557330       1.00800           0   0.00000       0.00000    
     27619 TIP3     283      SWM4     OH2      ODW       1.71640       15.5994           0 -0.978253       1.30000    
     27620 TIP3     283      SWM4     DOH2     DOH2     -1.71640      0.400000           0   0.00000       0.00000    
     27621 TIP3     283      SWM4     OM       LPDW     -1.11466       0.00000          -1   0.00000       0.00000    
     27622 TIP3     283      SWM4     H1       HDW      0.557330       1.00800           0   0.00000       0.00000    
     27623 TIP3     283      SWM4     H2       HDW      0.557330       1.00800           0   0.00000       0.00000    
     27624 TIP3     284      SWM4     OH2      ODW       1.71640       15.5994           0 -0.978253       1.30000    
     27625 TIP3     284      SWM4     DOH2     DOH2     -1.71640      0.400000           0   0.00000       0.00000    
     27626 TIP3     284      SWM4     OM       LPDW     -1.11466       0.00000          -1   0.00000       0.00000    
     27627 TIP3     284      SWM4     H1       HDW      0.557330       1.00800           0   0.00000       0.00000    
     27628 TIP3     284      SWM4     H2       HDW      0.557330       1.00800           0   0.00000       0.00000    
     27629 TIP3     285      SWM4     OH2      ODW       1.71640       15.5994           0 -0.978253       1.30000    
     27630 TIP3     285      SWM4     DOH2     DOH2     -1.71640      0.400000           0   0.00000       0.00000    
     27631 TIP3     285      SWM4     OM       LPDW     -1.11466       0.00000          -1   0.00000       0.00000    
     27632 TIP3     285      SWM4     H1       HDW      0.557330       1.00800           0   0.00000       0.00000    
     27633 TIP3     285      SWM4     H2       HDW      0.557330       1.00800           0   0.00000       0.00000    
     27634 TIP3     286      SWM4     OH2      ODW       1.71640       15.5994           0 -0.978253       1.30000    
     27635 TIP3     286      SWM4     DOH2     DOH2     -1.71640      0.400000           0   0.00000       0.00000    
     27636 TIP3     286      SWM4     OM       LPDW     -1.11466       0.00000          -1   0.00000       0.00000    
     27637 TIP3     286      SWM4     H1       HDW      0.557330       1.00800           0   0.00000       0.00000    
     27638 TIP3     286      SWM4     H2       HDW      0.557330       1.00800           0   0.00000       0.00000    
     27639 TIP3     287      SWM4     OH2      ODW       1.71640       15.5994           0 -0.978253       1.30000    
     27640 TIP3     287      SWM4     DOH2     DOH2     -1.71640      0.400000           0   0.00000       0.00000    
     27641 TIP3     287      SWM4     OM       LPDW     -1.11466       0.00000          -1   0.00000       0.00000    
     27642 TIP3     287      SWM4     H1       HDW      0.557330       1.00800           0   0.00000       0.00000    
     27643 TIP3     287      SWM4     H2       HDW      0.557330       1.00800           0   0.00000       0.00000    
     27644 TIP3     288      SWM4     OH2      ODW       1.71640       15.5994           0 -0.978253       1.30000    
     27645 TIP3     288      SWM4     DOH2     DOH2     -1.71640      0.400000           0   0.00000       0.00000    
     27646 TIP3     288      SWM4     OM       LPDW     -1.11466       0.00000          -1   0.00000       0.00000    
     27647 TIP3     288      SWM4     H1       HDW      0.557330       1.00800           0   0.00000       0.00000    
     27648 TIP3     288      SWM4     H2       HDW      0.557330       1.00800           0   0.00000       0.00000    
     27649 TIP3     289      SWM4     OH2      ODW       1.71640       15.5994           0 -0.978253       1.30000    
     27650 TIP3     289      SWM4     DOH2     DOH2     -1.71640      0.400000           0   0.00000       0.00000    
     27651 TIP3     289      SWM4     OM       LPDW     -1.11466       0.00000          -1   0.00000       0.00000    
     27652 TIP3     289      SWM4     H1       HDW      0.557330       1.00800           0   0.00000       0.00000    
     27653 TIP3     289      SWM4     H2       HDW      0.557330       1.00800           0   0.00000       0.00000    
     27654 TIP3     290      SWM4     OH2      ODW       1.71640       15.5994           0 -0.978253       1.30000    
     27655 TIP3     290      SWM4     DOH2     DOH2     -1.71640      0.400000           0   0.00000       0.00000    
     27656 TIP3     290      SWM4     OM       LPDW     -1.11466       0.00000          -1   0.00000       0.00000    
     27657 TIP3     290      SWM4     H1       HDW      0.557330       1.00800           0   0.00000       0.00000    
     27658 TIP3     290      SWM4     H2       HDW      0.557330       1.00800           0   0.00000       0.00000    
     27659 TIP3     291      SWM4     OH2      ODW       1.71640       15.5994           0 -0.978253       1.30000    
     27660 TIP3     291      SWM4     DOH2     DOH2     -1.71640      0.400000           0   0.00000       0.00000    
     27661 TIP3     291      SWM4     OM       LPDW     -1.11466       0.00000          -1   0.00000       0.00000    
     27662 TIP3     291      SWM4     H1       HDW      0.557330       1.00800           0   0.00000       0.00000    
     27663 TIP3     291      SWM4     H2       HDW      0.557330       1.00800           0   0.00000       0.00000    
     27664 TIP3     292      SWM4     OH2      ODW       1.71640       15.5994           0 -0.978253       1.30000    
     27665 TIP3     292      SWM4     DOH2     DOH2     -1.71640      0.400000           0   0.00000       0.00000    
     27666 TIP3     292      SWM4     OM       LPDW     -1.11466       0.00000          -1   0.00000       0.00000    
     27667 TIP3     292      SWM4     H1       HDW      0.557330       1.00800           0   0.00000       0.00000    
     27668 TIP3     292      SWM4     H2       HDW      0.557330       1.00800           0   0.00000       0.00000    
     27669 TIP3     293      SWM4     OH2      ODW       1.71640       15.5994           0 -0.978253       1.30000    
     27670 TIP3     293      SWM4     DOH2     DOH2     -1.71640      0.400000           0   0.00000       0.00000    
     27671 TIP3     293      SWM4     OM       LPDW     -1.11466       0.00000          -1   0.00000       0.00000    
     27672 TIP3     293      SWM4     H1       HDW      0.557330       1.00800           0   0.00000       0.00000    
     27673 TIP3     293      SWM4     H2       HDW      0.557330       1.00800           0   0.00000       0.00000    
     27674 TIP3     294      SWM4     OH2      ODW       1.71640       15.5994           0 -0.978253       1.30000    
     27675 TIP3     294      SWM4     DOH2     DOH2     -1.71640      0.400000           0   0.00000       0.00000    
     27676 TIP3     294      SWM4     OM       LPDW     -1.11466       0.00000          -1   0.00000       0.00000    
     27677 TIP3     294      SWM4     H1       HDW      0.557330       1.00800           0   0.00000       0.00000    
     27678 TIP3     294      SWM4     H2       HDW      0.557330       1.00800           0   0.00000       0.00000    
     27679 TIP3     295      SWM4     OH2      ODW       1.71640       15.5994           0 -0.978253       1.30000    
     27680 TIP3     295      SWM4     DOH2     DOH2     -1.71640      0.400000           0   0.00000       0.00000    
     27681 TIP3     295      SWM4     OM       LPDW     -1.11466       0.00000          -1   0.00000       0.00000    
     27682 TIP3     295      SWM4     H1       HDW      0.557330       1.00800           0   0.00000       0.00000    
     27683 TIP3     295      SWM4     H2       HDW      0.557330       1.00800           0   0.00000       0.00000    
     27684 TIP3     296      SWM4     OH2      ODW       1.71640       15.5994           0 -0.978253       1.30000    
     27685 TIP3     296      SWM4     DOH2     DOH2     -1.71640      0.400000           0   0.00000       0.00000    
     27686 TIP3     296      SWM4     OM       LPDW     -1.11466       0.00000          -1   0.00000       0.00000    
     27687 TIP3     296      SWM4     H1       HDW      0.557330       1.00800           0   0.00000       0.00000    
     27688 TIP3     296      SWM4     H2       HDW      0.557330       1.00800           0   0.00000       0.00000    
     27689 TIP3     297      SWM4     OH2      ODW       1.71640       15.5994           0 -0.978253       1.30000    
     27690 TIP3     297      SWM4     DOH2     DOH2     -1.71640      0.400000           0   0.00000       0.00000    
     27691 TIP3     297      SWM4     OM       LPDW     -1.11466       0.00000          -1   0.00000       0.00000    
     27692 TIP3     297      SWM4     H1       HDW      0.557330       1.00800           0   0.00000       0.00000    
     27693 TIP3     297      SWM4     H2       HDW      0.557330       1.00800           0   0.00000       0.00000    
     27694 TIP3     298      SWM4     OH2      ODW       1.71640       15.5994           0 -0.978253       1.30000    
     27695 TIP3     298      SWM4     DOH2     DOH2     -1.71640      0.400000           0   0.00000       0.00000    
     27696 TIP3     298      SWM4     OM       LPDW     -1.11466       0.00000          -1   0.00000       0.00000    
     27697 TIP3     298      SWM4     H1       HDW      0.557330       1.00800           0   0.00000       0.00000    
     27698 TIP3     298      SWM4     H2       HDW      0.557330       1.00800           0   0.00000       0.00000    
     27699 TIP3     299      SWM4     OH2      ODW       1.71640       15.5994           0 -0.978253       1.30000    
     27700 TIP3     299      SWM4     DOH2     DOH2     -1.71640      0.400000           0   0.00000       0.00000    
     27701 TIP3     299      SWM4     OM       LPDW     -1.11466       0.00000          -1   0.00000       0.00000    
     27702 TIP3     299      SWM4     H1       HDW      0.557330       1.00800           0   0.00000       0.00000    
     27703 TIP3     299      SWM4     H2       HDW      0.557330       1.00800           0   0.00000       0.00000    
     27704 TIP3     300      SWM4     OH2      ODW       1.71640       15.5994           0 -0.978253       1.30000    
     27705 TIP3     300      SWM4     DOH2     DOH2     -1.71640      0.400000           0   0.00000       0.00000    
     27706 TIP3     300      SWM4     OM       LPDW     -1.11466       0.00000          -1   0.00000       0.00000    
     27707 TIP3     300      SWM4     H1       HDW      0.557330       1.00800           0   0.00000       0.00000    
     27708 TIP3     300      SWM4     H2       HDW      0.557330       1.00800           0   0.00000       0.00000    
     27709 TIP3     301      SWM4     OH2      ODW       1.71640       15.5994           0 -0.978253       1.30000    
     27710 TIP3     301      SWM4     DOH2     DOH2     -1.71640      0.400000           0   0.00000       0.00000    
     27711 TIP3     301      SWM4     OM       LPDW     -1.11466       0.00000          -1   0.00000       0.00000    
     27712 TIP3     301      SWM4     H1       HDW      0.557330       1.00800           0   0.00000       0.00000    
     27713 TIP3     301      SWM4     H2       HDW      0.557330       1.00800           0   0.00000       0.00000    
     27714 TIP3     302      SWM4     OH2      ODW       1.71640       15.5994           0 -0.978253       1.30000    
     27715 TIP3     302      SWM4     DOH2     DOH2     -1.71640      0.400000           0   0.00000       0.00000    
     27716 TIP3     302      SWM4     OM       LPDW     -1.11466       0.00000          -1   0.00000       0.00000    
     27717 TIP3     302      SWM4     H1       HDW      0.557330       1.00800           0   0.00000       0.00000    
     27718 TIP3     302      SWM4     H2       HDW      0.557330       1.00800           0   0.00000       0.00000    
     27719 TIP3     303      SWM4     OH2      ODW       1.71640       15.5994           0 -0.978253       1.30000    
     27720 TIP3     303      SWM4     DOH2     DOH2     -1.71640      0.400000           0   0.00000       0.00000    
     27721 TIP3     303      SWM4     OM       LPDW     -1.11466       0.00000          -1   0.00000       0.00000    
     27722 TIP3     303      SWM4     H1       HDW      0.557330       1.00800           0   0.00000       0.00000    
     27723 TIP3     303      SWM4     H2       HDW      0.557330       1.00800           0   0.00000       0.00000    
     27724 TIP3     304      SWM4     OH2      ODW       1.71640       15.5994           0 -0.978253       1.30000    
     27725 TIP3     304      SWM4     DOH2     DOH2     -1.71640      0.400000           0   0.00000       0.00000    
     27726 TIP3     304      SWM4     OM       LPDW     -1.11466       0.00000          -1   0.00000       0.00000    
     27727 TIP3     304      SWM4     H1       HDW      0.557330       1.00800           0   0.00000       0.00000    
     27728 TIP3     304      SWM4     H2       HDW      0.557330       1.00800           0   0.00000       0.00000    
     27729 TIP3     305      SWM4     OH2      ODW       1.71640       15.5994           0 -0.978253       1.30000    
     27730 TIP3     305      SWM4     DOH2     DOH2     -1.71640      0.400000           0   0.00000       0.00000    
     27731 TIP3     305      SWM4     OM       LPDW     -1.11466       0.00000          -1   0.00000       0.00000    
     27732 TIP3     305      SWM4     H1       HDW      0.557330       1.00800           0   0.00000       0.00000    
     27733 TIP3     305      SWM4     H2       HDW      0.557330       1.00800           0   0.00000       0.00000    
     27734 TIP3     306      SWM4     OH2      ODW       1.71640       15.5994           0 -0.978253       1.30000    
     27735 TIP3     306      SWM4     DOH2     DOH2     -1.71640      0.400000           0   0.00000       0.00000    
     27736 TIP3     306      SWM4     OM       LPDW     -1.11466       0.00000          -1   0.00000       0.00000    
     27737 TIP3     306      SWM4     H1       HDW      0.557330       1.00800           0   0.00000       0.00000    
     27738 TIP3     306      SWM4     H2       HDW      0.557330       1.00800           0   0.00000       0.00000    
     27739 TIP3     307      SWM4     OH2      ODW       1.71640       15.5994           0 -0.978253       1.30000    
     27740 TIP3     307      SWM4     DOH2     DOH2     -1.71640      0.400000           0   0.00000       0.00000    
     27741 TIP3     307      SWM4     OM       LPDW     -1.11466       0.00000          -1   0.00000       0.00000    
     27742 TIP3     307      SWM4     H1       HDW      0.557330       1.00800           0   0.00000       0.00000    
     27743 TIP3     307      SWM4     H2       HDW      0.557330       1.00800           0   0.00000       0.00000    
     27744 TIP3     308      SWM4     OH2      ODW       1.71640       15.5994           0 -0.978253       1.30000    
     27745 TIP3     308      SWM4     DOH2     DOH2     -1.71640      0.400000           0   0.00000       0.00000    
     27746 TIP3     308      SWM4     OM       LPDW     -1.11466       0.00000          -1   0.00000       0.00000    
     27747 TIP3     308      SWM4     H1       HDW      0.557330       1.00800           0   0.00000       0.00000    
     27748 TIP3     308      SWM4     H2       HDW      0.557330       1.00800           0   0.00000       0.00000    
     27749 TIP3     309      SWM4     OH2      ODW       1.71640       15.5994           0 -0.978253       1.30000    
     27750 TIP3     309      SWM4     DOH2     DOH2     -1.71640      0.400000           0   0.00000       0.00000    
     27751 TIP3     309      SWM4     OM       LPDW     -1.11466       0.00000          -1   0.00000       0.00000    
     27752 TIP3     309      SWM4     H1       HDW      0.557330       1.00800           0   0.00000       0.00000    
     27753 TIP3     309      SWM4     H2       HDW      0.557330       1.00800           0   0.00000       0.00000    
     27754 TIP3     310      SWM4     OH2      ODW       1.71640       15.5994           0 -0.978253       1.30000    
     27755 TIP3     310      SWM4     DOH2     DOH2     -1.71640      0.400000           0   0.00000       0.00000    
     27756 TIP3     310      SWM4     OM       LPDW     -1.11466       0.00000          -1   0.00000       0.00000    
     27757 TIP3     310      SWM4     H1       HDW      0.557330       1.00800           0   0.00000       0.00000    
     27758 TIP3     310      SWM4     H2       HDW      0.557330       1.00800           0   0.00000       0.00000    
     27759 TIP3     311      SWM4     OH2      ODW       1.71640       15.5994           0 -0.978253       1.30000    
     27760 TIP3     311      SWM4     DOH2     DOH2     -1.71640      0.400000           0   0.00000       0.00000    
     27761 TIP3     311      SWM4     OM       LPDW     -1.11466       0.00000          -1   0.00000       0.00000    
     27762 TIP3     311      SWM4     H1       HDW      0.557330       1.00800           0   0.00000       0.00000    
     27763 TIP3     311      SWM4     H2       HDW      0.557330       1.00800           0   0.00000       0.00000    
     27764 TIP3     312      SWM4     OH2      ODW       1.71640       15.5994           0 -0.978253       1.30000    
     27765 TIP3     312      SWM4     DOH2     DOH2     -1.71640      0.400000           0   0.00000       0.00000    
     27766 TIP3     312      SWM4     OM       LPDW     -1.11466       0.00000          -1   0.00000       0.00000    
     27767 TIP3     312      SWM4     H1       HDW      0.557330       1.00800           0   0.00000       0.00000    
     27768 TIP3     312      SWM4     H2       HDW      0.557330       1.00800           0   0.00000       0.00000    
     27769 TIP3     313      SWM4     OH2      ODW       1.71640       15.5994           0 -0.978253       1.30000    
     27770 TIP3     313      SWM4     DOH2     DOH2     -1.71640      0.400000           0   0.00000       0.00000    
     27771 TIP3     313      SWM4     OM       LPDW     -1.11466       0.00000          -1   0.00000       0.00000    
     27772 TIP3     313      SWM4     H1       HDW      0.557330       1.00800           0   0.00000       0.00000    
     27773 TIP3     313      SWM4     H2       HDW      0.557330       1.00800           0   0.00000       0.00000    
     27774 TIP3     314      SWM4     OH2      ODW       1.71640       15.5994           0 -0.978253       1.30000    
     27775 TIP3     314      SWM4     DOH2     DOH2     -1.71640      0.400000           0   0.00000       0.00000    
     27776 TIP3     314      SWM4     OM       LPDW     -1.11466       0.00000          -1   0.00000       0.00000    
     27777 TIP3     314      SWM4     H1       HDW      0.557330       1.00800           0   0.00000       0.00000    
     27778 TIP3     314      SWM4     H2       HDW      0.557330       1.00800           0   0.00000       0.00000    
     27779 TIP3     315      SWM4     OH2      ODW       1.71640       15.5994           0 -0.978253       1.30000    
     27780 TIP3     315      SWM4     DOH2     DOH2     -1.71640      0.400000           0   0.00000       0.00000    
     27781 TIP3     315      SWM4     OM       LPDW     -1.11466       0.00000          -1   0.00000       0.00000    
     27782 TIP3     315      SWM4     H1       HDW      0.557330       1.00800           0   0.00000       0.00000    
     27783 TIP3     315      SWM4     H2       HDW      0.557330       1.00800           0   0.00000       0.00000    
     27784 TIP3     316      SWM4     OH2      ODW       1.71640       15.5994           0 -0.978253       1.30000    
     27785 TIP3     316      SWM4     DOH2     DOH2     -1.71640      0.400000           0   0.00000       0.00000    
     27786 TIP3     316      SWM4     OM       LPDW     -1.11466       0.00000          -1   0.00000       0.00000    
     27787 TIP3     316      SWM4     H1       HDW      0.557330       1.00800           0   0.00000       0.00000    
     27788 TIP3     316      SWM4     H2       HDW      0.557330       1.00800           0   0.00000       0.00000    
     27789 TIP3     317      SWM4     OH2      ODW       1.71640       15.5994           0 -0.978253       1.30000    
     27790 TIP3     317      SWM4     DOH2     DOH2     -1.71640      0.400000           0   0.00000       0.00000    
     27791 TIP3     317      SWM4     OM       LPDW     -1.11466       0.00000          -1   0.00000       0.00000    
     27792 TIP3     317      SWM4     H1       HDW      0.557330       1.00800           0   0.00000       0.00000    
     27793 TIP3     317      SWM4     H2       HDW      0.557330       1.00800           0   0.00000       0.00000    
     27794 TIP3     318      SWM4     OH2      ODW       1.71640       15.5994           0 -0.978253       1.30000    
     27795 TIP3     318      SWM4     DOH2     DOH2     -1.71640      0.400000           0   0.00000       0.00000    
     27796 TIP3     318      SWM4     OM       LPDW     -1.11466       0.00000          -1   0.00000       0.00000    
     27797 TIP3     318      SWM4     H1       HDW      0.557330       1.00800           0   0.00000       0.00000    
     27798 TIP3     318      SWM4     H2       HDW      0.557330       1.00800           0   0.00000       0.00000    
     27799 TIP3     319      SWM4     OH2      ODW       1.71640       15.5994           0 -0.978253       1.30000    
     27800 TIP3     319      SWM4     DOH2     DOH2     -1.71640      0.400000           0   0.00000       0.00000    
     27801 TIP3     319      SWM4     OM       LPDW     -1.11466       0.00000          -1   0.00000       0.00000    
     27802 TIP3     319      SWM4     H1       HDW      0.557330       1.00800           0   0.00000       0.00000    
     27803 TIP3     319      SWM4     H2       HDW      0.557330       1.00800           0   0.00000       0.00000    
     27804 TIP3     320      SWM4     OH2      ODW       1.71640       15.5994           0 -0.978253       1.30000    
     27805 TIP3     320      SWM4     DOH2     DOH2     -1.71640      0.400000           0   0.00000       0.00000    
     27806 TIP3     320      SWM4     OM       LPDW     -1.11466       0.00000          -1   0.00000       0.00000    
     27807 TIP3     320      SWM4     H1       HDW      0.557330       1.00800           0   0.00000       0.00000    
     27808 TIP3     320      SWM4     H2       HDW      0.557330       1.00800           0   0.00000       0.00000    
     27809 TIP3     321      SWM4     OH2      ODW       1.71640       15.5994           0 -0.978253       1.30000    
     27810 TIP3     321      SWM4     DOH2     DOH2     -1.71640      0.400000           0   0.00000       0.00000    
     27811 TIP3     321      SWM4     OM       LPDW     -1.11466       0.00000          -1   0.00000       0.00000    
     27812 TIP3     321      SWM4     H1       HDW      0.557330       1.00800           0   0.00000       0.00000    
     27813 TIP3     321      SWM4     H2       HDW      0.557330       1.00800           0   0.00000       0.00000    
     27814 TIP3     322      SWM4     OH2      ODW       1.71640       15.5994           0 -0.978253       1.30000    
     27815 TIP3     322      SWM4     DOH2     DOH2     -1.71640      0.400000           0   0.00000       0.00000    
     27816 TIP3     322      SWM4     OM       LPDW     -1.11466       0.00000          -1   0.00000       0.00000    
     27817 TIP3     322      SWM4     H1       HDW      0.557330       1.00800           0   0.00000       0.00000    
     27818 TIP3     322      SWM4     H2       HDW      0.557330       1.00800           0   0.00000       0.00000    
     27819 TIP3     323      SWM4     OH2      ODW       1.71640       15.5994           0 -0.978253       1.30000    
     27820 TIP3     323      SWM4     DOH2     DOH2     -1.71640      0.400000           0   0.00000       0.00000    
     27821 TIP3     323      SWM4     OM       LPDW     -1.11466       0.00000          -1   0.00000       0.00000    
     27822 TIP3     323      SWM4     H1       HDW      0.557330       1.00800           0   0.00000       0.00000    
     27823 TIP3     323      SWM4     H2       HDW      0.557330       1.00800           0   0.00000       0.00000    
     27824 TIP3     324      SWM4     OH2      ODW       1.71640       15.5994           0 -0.978253       1.30000    
     27825 TIP3     324      SWM4     DOH2     DOH2     -1.71640      0.400000           0   0.00000       0.00000    
     27826 TIP3     324      SWM4     OM       LPDW     -1.11466       0.00000          -1   0.00000       0.00000    
     27827 TIP3     324      SWM4     H1       HDW      0.557330       1.00800           0   0.00000       0.00000    
     27828 TIP3     324      SWM4     H2       HDW      0.557330       1.00800           0   0.00000       0.00000    
     27829 TIP3     325      SWM4     OH2      ODW       1.71640       15.5994           0 -0.978253       1.30000    
     27830 TIP3     325      SWM4     DOH2     DOH2     -1.71640      0.400000           0   0.00000       0.00000    
     27831 TIP3     325      SWM4     OM       LPDW     -1.11466       0.00000          -1   0.00000       0.00000    
     27832 TIP3     325      SWM4     H1       HDW      0.557330       1.00800           0   0.00000       0.00000    
     27833 TIP3     325      SWM4     H2       HDW      0.557330       1.00800           0   0.00000       0.00000    
     27834 TIP3     326      SWM4     OH2      ODW       1.71640       15.5994           0 -0.978253       1.30000    
     27835 TIP3     326      SWM4     DOH2     DOH2     -1.71640      0.400000           0   0.00000       0.00000    
     27836 TIP3     326      SWM4     OM       LPDW     -1.11466       0.00000          -1   0.00000       0.00000    
     27837 TIP3     326      SWM4     H1       HDW      0.557330       1.00800           0   0.00000       0.00000    
     27838 TIP3     326      SWM4     H2       HDW      0.557330       1.00800           0   0.00000       0.00000    
     27839 TIP3     327      SWM4     OH2      ODW       1.71640       15.5994           0 -0.978253       1.30000    
     27840 TIP3     327      SWM4     DOH2     DOH2     -1.71640      0.400000           0   0.00000       0.00000    
     27841 TIP3     327      SWM4     OM       LPDW     -1.11466       0.00000          -1   0.00000       0.00000    
     27842 TIP3     327      SWM4     H1       HDW      0.557330       1.00800           0   0.00000       0.00000    
     27843 TIP3     327      SWM4     H2       HDW      0.557330       1.00800           0   0.00000       0.00000    
     27844 TIP3     328      SWM4     OH2      ODW       1.71640       15.5994           0 -0.978253       1.30000    
     27845 TIP3     328      SWM4     DOH2     DOH2     -1.71640      0.400000           0   0.00000       0.00000    
     27846 TIP3     328      SWM4     OM       LPDW     -1.11466       0.00000          -1   0.00000       0.00000    
     27847 TIP3     328      SWM4     H1       HDW      0.557330       1.00800           0   0.00000       0.00000    
     27848 TIP3     328      SWM4     H2       HDW      0.557330       1.00800           0   0.00000       0.00000    
     27849 TIP3     329      SWM4     OH2      ODW       1.71640       15.5994           0 -0.978253       1.30000    
     27850 TIP3     329      SWM4     DOH2     DOH2     -1.71640      0.400000           0   0.00000       0.00000    
     27851 TIP3     329      SWM4     OM       LPDW     -1.11466       0.00000          -1   0.00000       0.00000    
     27852 TIP3     329      SWM4     H1       HDW      0.557330       1.00800           0   0.00000       0.00000    
     27853 TIP3     329      SWM4     H2       HDW      0.557330       1.00800           0   0.00000       0.00000    
     27854 TIP3     330      SWM4     OH2      ODW       1.71640       15.5994           0 -0.978253       1.30000    
     27855 TIP3     330      SWM4     DOH2     DOH2     -1.71640      0.400000           0   0.00000       0.00000    
     27856 TIP3     330      SWM4     OM       LPDW     -1.11466       0.00000          -1   0.00000       0.00000    
     27857 TIP3     330      SWM4     H1       HDW      0.557330       1.00800           0   0.00000       0.00000    
     27858 TIP3     330      SWM4     H2       HDW      0.557330       1.00800           0   0.00000       0.00000    
     27859 TIP3     331      SWM4     OH2      ODW       1.71640       15.5994           0 -0.978253       1.30000    
     27860 TIP3     331      SWM4     DOH2     DOH2     -1.71640      0.400000           0   0.00000       0.00000    
     27861 TIP3     331      SWM4     OM       LPDW     -1.11466       0.00000          -1   0.00000       0.00000    
     27862 TIP3     331      SWM4     H1       HDW      0.557330       1.00800           0   0.00000       0.00000    
     27863 TIP3     331      SWM4     H2       HDW      0.557330       1.00800           0   0.00000       0.00000    
     27864 TIP3     332      SWM4     OH2      ODW       1.71640       15.5994           0 -0.978253       1.30000    
     27865 TIP3     332      SWM4     DOH2     DOH2     -1.71640      0.400000           0   0.00000       0.00000    
     27866 TIP3     332      SWM4     OM       LPDW     -1.11466       0.00000          -1   0.00000       0.00000    
     27867 TIP3     332      SWM4     H1       HDW      0.557330       1.00800           0   0.00000       0.00000    
     27868 TIP3     332      SWM4     H2       HDW      0.557330       1.00800           0   0.00000       0.00000    
     27869 TIP3     333      SWM4     OH2      ODW       1.71640       15.5994           0 -0.978253       1.30000    
     27870 TIP3     333      SWM4     DOH2     DOH2     -1.71640      0.400000           0   0.00000       0.00000    
     27871 TIP3     333      SWM4     OM       LPDW     -1.11466       0.00000          -1   0.00000       0.00000    
     27872 TIP3     333      SWM4     H1       HDW      0.557330       1.00800           0   0.00000       0.00000    
     27873 TIP3     333      SWM4     H2       HDW      0.557330       1.00800           0   0.00000       0.00000    
     27874 TIP3     334      SWM4     OH2      ODW       1.71640       15.5994           0 -0.978253       1.30000    
     27875 TIP3     334      SWM4     DOH2     DOH2     -1.71640      0.400000           0   0.00000       0.00000    
     27876 TIP3     334      SWM4     OM       LPDW     -1.11466       0.00000          -1   0.00000       0.00000    
     27877 TIP3     334      SWM4     H1       HDW      0.557330       1.00800           0   0.00000       0.00000    
     27878 TIP3     334      SWM4     H2       HDW      0.557330       1.00800           0   0.00000       0.00000    
     27879 TIP3     335      SWM4     OH2      ODW       1.71640       15.5994           0 -0.978253       1.30000    
     27880 TIP3     335      SWM4     DOH2     DOH2     -1.71640      0.400000           0   0.00000       0.00000    
     27881 TIP3     335      SWM4     OM       LPDW     -1.11466       0.00000          -1   0.00000       0.00000    
     27882 TIP3     335      SWM4     H1       HDW      0.557330       1.00800           0   0.00000       0.00000    
     27883 TIP3     335      SWM4     H2       HDW      0.557330       1.00800           0   0.00000       0.00000    
     27884 TIP3     336      SWM4     OH2      ODW       1.71640       15.5994           0 -0.978253       1.30000    
     27885 TIP3     336      SWM4     DOH2     DOH2     -1.71640      0.400000           0   0.00000       0.00000    
     27886 TIP3     336      SWM4     OM       LPDW     -1.11466       0.00000          -1   0.00000       0.00000    
     27887 TIP3     336      SWM4     H1       HDW      0.557330       1.00800           0   0.00000       0.00000    
     27888 TIP3     336      SWM4     H2       HDW      0.557330       1.00800           0   0.00000       0.00000    
     27889 TIP3     337      SWM4     OH2      ODW       1.71640       15.5994           0 -0.978253       1.30000    
     27890 TIP3     337      SWM4     DOH2     DOH2     -1.71640      0.400000           0   0.00000       0.00000    
     27891 TIP3     337      SWM4     OM       LPDW     -1.11466       0.00000          -1   0.00000       0.00000    
     27892 TIP3     337      SWM4     H1       HDW      0.557330       1.00800           0   0.00000       0.00000    
     27893 TIP3     337      SWM4     H2       HDW      0.557330       1.00800           0   0.00000       0.00000    
     27894 TIP3     338      SWM4     OH2      ODW       1.71640       15.5994           0 -0.978253       1.30000    
     27895 TIP3     338      SWM4     DOH2     DOH2     -1.71640      0.400000           0   0.00000       0.00000    
     27896 TIP3     338      SWM4     OM       LPDW     -1.11466       0.00000          -1   0.00000       0.00000    
     27897 TIP3     338      SWM4     H1       HDW      0.557330       1.00800           0   0.00000       0.00000    
     27898 TIP3     338      SWM4     H2       HDW      0.557330       1.00800           0   0.00000       0.00000    
     27899 TIP3     339      SWM4     OH2      ODW       1.71640       15.5994           0 -0.978253       1.30000    
     27900 TIP3     339      SWM4     DOH2     DOH2     -1.71640      0.400000           0   0.00000       0.00000    
     27901 TIP3     339      SWM4     OM       LPDW     -1.11466       0.00000          -1   0.00000       0.00000    
     27902 TIP3     339      SWM4     H1       HDW      0.557330       1.00800           0   0.00000       0.00000    
     27903 TIP3     339      SWM4     H2       HDW      0.557330       1.00800           0   0.00000       0.00000    
     27904 TIP3     340      SWM4     OH2      ODW       1.71640       15.5994           0 -0.978253       1.30000    
     27905 TIP3     340      SWM4     DOH2     DOH2     -1.71640      0.400000           0   0.00000       0.00000    
     27906 TIP3     340      SWM4     OM       LPDW     -1.11466       0.00000          -1   0.00000       0.00000    
     27907 TIP3     340      SWM4     H1       HDW      0.557330       1.00800           0   0.00000       0.00000    
     27908 TIP3     340      SWM4     H2       HDW      0.557330       1.00800           0   0.00000       0.00000    
     27909 TIP3     341      SWM4     OH2      ODW       1.71640       15.5994           0 -0.978253       1.30000    
     27910 TIP3     341      SWM4     DOH2     DOH2     -1.71640      0.400000           0   0.00000       0.00000    
     27911 TIP3     341      SWM4     OM       LPDW     -1.11466       0.00000          -1   0.00000       0.00000    
     27912 TIP3     341      SWM4     H1       HDW      0.557330       1.00800           0   0.00000       0.00000    
     27913 TIP3     341      SWM4     H2       HDW      0.557330       1.00800           0   0.00000       0.00000    
     27914 TIP3     342      SWM4     OH2      ODW       1.71640       15.5994           0 -0.978253       1.30000    
     27915 TIP3     342      SWM4     DOH2     DOH2     -1.71640      0.400000           0   0.00000       0.00000    
     27916 TIP3     342      SWM4     OM       LPDW     -1.11466       0.00000          -1   0.00000       0.00000    
     27917 TIP3     342      SWM4     H1       HDW      0.557330       1.00800           0   0.00000       0.00000    
     27918 TIP3     342      SWM4     H2       HDW      0.557330       1.00800           0   0.00000       0.00000    
     27919 TIP3     343      SWM4     OH2      ODW       1.71640       15.5994           0 -0.978253       1.30000    
     27920 TIP3     343      SWM4     DOH2     DOH2     -1.71640      0.400000           0   0.00000       0.00000    
     27921 TIP3     343      SWM4     OM       LPDW     -1.11466       0.00000          -1   0.00000       0.00000    
     27922 TIP3     343      SWM4     H1       HDW      0.557330       1.00800           0   0.00000       0.00000    
     27923 TIP3     343      SWM4     H2       HDW      0.557330       1.00800           0   0.00000       0.00000    
     27924 TIP3     344      SWM4     OH2      ODW       1.71640       15.5994           0 -0.978253       1.30000    
     27925 TIP3     344      SWM4     DOH2     DOH2     -1.71640      0.400000           0   0.00000       0.00000    
     27926 TIP3     344      SWM4     OM       LPDW     -1.11466       0.00000          -1   0.00000       0.00000    
     27927 TIP3     344      SWM4     H1       HDW      0.557330       1.00800           0   0.00000       0.00000    
     27928 TIP3     344      SWM4     H2       HDW      0.557330       1.00800           0   0.00000       0.00000    
     27929 TIP3     345      SWM4     OH2      ODW       1.71640       15.5994           0 -0.978253       1.30000    
     27930 TIP3     345      SWM4     DOH2     DOH2     -1.71640      0.400000           0   0.00000       0.00000    
     27931 TIP3     345      SWM4     OM       LPDW     -1.11466       0.00000          -1   0.00000       0.00000    
     27932 TIP3     345      SWM4     H1       HDW      0.557330       1.00800           0   0.00000       0.00000    
     27933 TIP3     345      SWM4     H2       HDW      0.557330       1.00800           0   0.00000       0.00000    
     27934 TIP3     346      SWM4     OH2      ODW       1.71640       15.5994           0 -0.978253       1.30000    
     27935 TIP3     346      SWM4     DOH2     DOH2     -1.71640      0.400000           0   0.00000       0.00000    
     27936 TIP3     346      SWM4     OM       LPDW     -1.11466       0.00000          -1   0.00000       0.00000    
     27937 TIP3     346      SWM4     H1       HDW      0.557330       1.00800           0   0.00000       0.00000    
     27938 TIP3     346      SWM4     H2       HDW      0.557330       1.00800           0   0.00000       0.00000    
     27939 TIP3     347      SWM4     OH2      ODW       1.71640       15.5994           0 -0.978253       1.30000    
     27940 TIP3     347      SWM4     DOH2     DOH2     -1.71640      0.400000           0   0.00000       0.00000    
     27941 TIP3     347      SWM4     OM       LPDW     -1.11466       0.00000          -1   0.00000       0.00000    
     27942 TIP3     347      SWM4     H1       HDW      0.557330       1.00800           0   0.00000       0.00000    
     27943 TIP3     347      SWM4     H2       HDW      0.557330       1.00800           0   0.00000       0.00000    
     27944 TIP3     348      SWM4     OH2      ODW       1.71640       15.5994           0 -0.978253       1.30000    
     27945 TIP3     348      SWM4     DOH2     DOH2     -1.71640      0.400000           0   0.00000       0.00000    
     27946 TIP3     348      SWM4     OM       LPDW     -1.11466       0.00000          -1   0.00000       0.00000    
     27947 TIP3     348      SWM4     H1       HDW      0.557330       1.00800           0   0.00000       0.00000    
     27948 TIP3     348      SWM4     H2       HDW      0.557330       1.00800           0   0.00000       0.00000    
     27949 TIP3     349      SWM4     OH2      ODW       1.71640       15.5994           0 -0.978253       1.30000    
     27950 TIP3     349      SWM4     DOH2     DOH2     -1.71640      0.400000           0   0.00000       0.00000    
     27951 TIP3     349      SWM4     OM       LPDW     -1.11466       0.00000          -1   0.00000       0.00000    
     27952 TIP3     349      SWM4     H1       HDW      0.557330       1.00800           0   0.00000       0.00000    
     27953 TIP3     349      SWM4     H2       HDW      0.557330       1.00800           0   0.00000       0.00000    
     27954 TIP3     350      SWM4     OH2      ODW       1.71640       15.5994           0 -0.978253       1.30000    
     27955 TIP3     350      SWM4     DOH2     DOH2     -1.71640      0.400000           0   0.00000       0.00000    
     27956 TIP3     350      SWM4     OM       LPDW     -1.11466       0.00000          -1   0.00000       0.00000    
     27957 TIP3     350      SWM4     H1       HDW      0.557330       1.00800           0   0.00000       0.00000    
     27958 TIP3     350      SWM4     H2       HDW      0.557330       1.00800           0   0.00000       0.00000    
     27959 TIP3     351      SWM4     OH2      ODW       1.71640       15.5994           0 -0.978253       1.30000    
     27960 TIP3     351      SWM4     DOH2     DOH2     -1.71640      0.400000           0   0.00000       0.00000    
     27961 TIP3     351      SWM4     OM       LPDW     -1.11466       0.00000          -1   0.00000       0.00000    
     27962 TIP3     351      SWM4     H1       HDW      0.557330       1.00800           0   0.00000       0.00000    
     27963 TIP3     351      SWM4     H2       HDW      0.557330       1.00800           0   0.00000       0.00000    
     27964 TIP3     352      SWM4     OH2      ODW       1.71640       15.5994           0 -0.978253       1.30000    
     27965 TIP3     352      SWM4     DOH2     DOH2     -1.71640      0.400000           0   0.00000       0.00000    
     27966 TIP3     352      SWM4     OM       LPDW     -1.11466       0.00000          -1   0.00000       0.00000    
     27967 TIP3     352      SWM4     H1       HDW      0.557330       1.00800           0   0.00000       0.00000    
     27968 TIP3     352      SWM4     H2       HDW      0.557330       1.00800           0   0.00000       0.00000    
     27969 TIP3     353      SWM4     OH2      ODW       1.71640       15.5994           0 -0.978253       1.30000    
     27970 TIP3     353      SWM4     DOH2     DOH2     -1.71640      0.400000           0   0.00000       0.00000    
     27971 TIP3     353      SWM4     OM       LPDW     -1.11466       0.00000          -1   0.00000       0.00000    
     27972 TIP3     353      SWM4     H1       HDW      0.557330       1.00800           0   0.00000       0.00000    
     27973 TIP3     353      SWM4     H2       HDW      0.557330       1.00800           0   0.00000       0.00000    
     27974 TIP3     354      SWM4     OH2      ODW       1.71640       15.5994           0 -0.978253       1.30000    
     27975 TIP3     354      SWM4     DOH2     DOH2     -1.71640      0.400000           0   0.00000       0.00000    
     27976 TIP3     354      SWM4     OM       LPDW     -1.11466       0.00000          -1   0.00000       0.00000    
     27977 TIP3     354      SWM4     H1       HDW      0.557330       1.00800           0   0.00000       0.00000    
     27978 TIP3     354      SWM4     H2       HDW      0.557330       1.00800           0   0.00000       0.00000    
     27979 TIP3     355      SWM4     OH2      ODW       1.71640       15.5994           0 -0.978253       1.30000    
     27980 TIP3     355      SWM4     DOH2     DOH2     -1.71640      0.400000           0   0.00000       0.00000    
     27981 TIP3     355      SWM4     OM       LPDW     -1.11466       0.00000          -1   0.00000       0.00000    
     27982 TIP3     355      SWM4     H1       HDW      0.557330       1.00800           0   0.00000       0.00000    
     27983 TIP3     355      SWM4     H2       HDW      0.557330       1.00800           0   0.00000       0.00000    
     27984 TIP3     356      SWM4     OH2      ODW       1.71640       15.5994           0 -0.978253       1.30000    
     27985 TIP3     356      SWM4     DOH2     DOH2     -1.71640      0.400000           0   0.00000       0.00000    
     27986 TIP3     356      SWM4     OM       LPDW     -1.11466       0.00000          -1   0.00000       0.00000    
     27987 TIP3     356      SWM4     H1       HDW      0.557330       1.00800           0   0.00000       0.00000    
     27988 TIP3     356      SWM4     H2       HDW      0.557330       1.00800           0   0.00000       0.00000    
     27989 TIP3     357      SWM4     OH2      ODW       1.71640       15.5994           0 -0.978253       1.30000    
     27990 TIP3     357      SWM4     DOH2     DOH2     -1.71640      0.400000           0   0.00000       0.00000    
     27991 TIP3     357      SWM4     OM       LPDW     -1.11466       0.00000          -1   0.00000       0.00000    
     27992 TIP3     357      SWM4     H1       HDW      0.557330       1.00800           0   0.00000       0.00000    
     27993 TIP3     357      SWM4     H2       HDW      0.557330       1.00800           0   0.00000       0.00000    
     27994 TIP3     358      SWM4     OH2      ODW       1.71640       15.5994           0 -0.978253       1.30000    
     27995 TIP3     358      SWM4     DOH2     DOH2     -1.71640      0.400000           0   0.00000       0.00000    
     27996 TIP3     358      SWM4     OM       LPDW     -1.11466       0.00000          -1   0.00000       0.00000    
     27997 TIP3     358      SWM4     H1       HDW      0.557330       1.00800           0   0.00000       0.00000    
     27998 TIP3     358      SWM4     H2       HDW      0.557330       1.00800           0   0.00000       0.00000    
     27999 TIP3     359      SWM4     OH2      ODW       1.71640       15.5994           0 -0.978253       1.30000    
     28000 TIP3     359      SWM4     DOH2     DOH2     -1.71640      0.400000           0   0.00000       0.00000    
     28001 TIP3     359      SWM4     OM       LPDW     -1.11466       0.00000          -1   0.00000       0.00000    
     28002 TIP3     359      SWM4     H1       HDW      0.557330       1.00800           0   0.00000       0.00000    
     28003 TIP3     359      SWM4     H2       HDW      0.557330       1.00800           0   0.00000       0.00000    
     28004 TIP3     360      SWM4     OH2      ODW       1.71640       15.5994           0 -0.978253       1.30000    
     28005 TIP3     360      SWM4     DOH2     DOH2     -1.71640      0.400000           0   0.00000       0.00000    
     28006 TIP3     360      SWM4     OM       LPDW     -1.11466       0.00000          -1   0.00000       0.00000    
     28007 TIP3     360      SWM4     H1       HDW      0.557330       1.00800           0   0.00000       0.00000    
     28008 TIP3     360      SWM4     H2       HDW      0.557330       1.00800           0   0.00000       0.00000    
     28009 TIP3     361      SWM4     OH2      ODW       1.71640       15.5994           0 -0.978253       1.30000    
     28010 TIP3     361      SWM4     DOH2     DOH2     -1.71640      0.400000           0   0.00000       0.00000    
     28011 TIP3     361      SWM4     OM       LPDW     -1.11466       0.00000          -1   0.00000       0.00000    
     28012 TIP3     361      SWM4     H1       HDW      0.557330       1.00800           0   0.00000       0.00000    
     28013 TIP3     361      SWM4     H2       HDW      0.557330       1.00800           0   0.00000       0.00000    
     28014 TIP3     362      SWM4     OH2      ODW       1.71640       15.5994           0 -0.978253       1.30000    
     28015 TIP3     362      SWM4     DOH2     DOH2     -1.71640      0.400000           0   0.00000       0.00000    
     28016 TIP3     362      SWM4     OM       LPDW     -1.11466       0.00000          -1   0.00000       0.00000    
     28017 TIP3     362      SWM4     H1       HDW      0.557330       1.00800           0   0.00000       0.00000    
     28018 TIP3     362      SWM4     H2       HDW      0.557330       1.00800           0   0.00000       0.00000    
     28019 TIP3     363      SWM4     OH2      ODW       1.71640       15.5994           0 -0.978253       1.30000    
     28020 TIP3     363      SWM4     DOH2     DOH2     -1.71640      0.400000           0   0.00000       0.00000    
     28021 TIP3     363      SWM4     OM       LPDW     -1.11466       0.00000          -1   0.00000       0.00000    
     28022 TIP3     363      SWM4     H1       HDW      0.557330       1.00800           0   0.00000       0.00000    
     28023 TIP3     363      SWM4     H2       HDW      0.557330       1.00800           0   0.00000       0.00000    
     28024 TIP3     364      SWM4     OH2      ODW       1.71640       15.5994           0 -0.978253       1.30000    
     28025 TIP3     364      SWM4     DOH2     DOH2     -1.71640      0.400000           0   0.00000       0.00000    
     28026 TIP3     364      SWM4     OM       LPDW     -1.11466       0.00000          -1   0.00000       0.00000    
     28027 TIP3     364      SWM4     H1       HDW      0.557330       1.00800           0   0.00000       0.00000    
     28028 TIP3     364      SWM4     H2       HDW      0.557330       1.00800           0   0.00000       0.00000    
     28029 TIP3     365      SWM4     OH2      ODW       1.71640       15.5994           0 -0.978253       1.30000    
     28030 TIP3     365      SWM4     DOH2     DOH2     -1.71640      0.400000           0   0.00000       0.00000    
     28031 TIP3     365      SWM4     OM       LPDW     -1.11466       0.00000          -1   0.00000       0.00000    
     28032 TIP3     365      SWM4     H1       HDW      0.557330       1.00800           0   0.00000       0.00000    
     28033 TIP3     365      SWM4     H2       HDW      0.557330       1.00800           0   0.00000       0.00000    
     28034 TIP3     366      SWM4     OH2      ODW       1.71640       15.5994           0 -0.978253       1.30000    
     28035 TIP3     366      SWM4     DOH2     DOH2     -1.71640      0.400000           0   0.00000       0.00000    
     28036 TIP3     366      SWM4     OM       LPDW     -1.11466       0.00000          -1   0.00000       0.00000    
     28037 TIP3     366      SWM4     H1       HDW      0.557330       1.00800           0   0.00000       0.00000    
     28038 TIP3     366      SWM4     H2       HDW      0.557330       1.00800           0   0.00000       0.00000    
     28039 TIP3     367      SWM4     OH2      ODW       1.71640       15.5994           0 -0.978253       1.30000    
     28040 TIP3     367      SWM4     DOH2     DOH2     -1.71640      0.400000           0   0.00000       0.00000    
     28041 TIP3     367      SWM4     OM       LPDW     -1.11466       0.00000          -1   0.00000       0.00000    
     28042 TIP3     367      SWM4     H1       HDW      0.557330       1.00800           0   0.00000       0.00000    
     28043 TIP3     367      SWM4     H2       HDW      0.557330       1.00800           0   0.00000       0.00000    
     28044 TIP3     368      SWM4     OH2      ODW       1.71640       15.5994           0 -0.978253       1.30000    
     28045 TIP3     368      SWM4     DOH2     DOH2     -1.71640      0.400000           0   0.00000       0.00000    
     28046 TIP3     368      SWM4     OM       LPDW     -1.11466       0.00000          -1   0.00000       0.00000    
     28047 TIP3     368      SWM4     H1       HDW      0.557330       1.00800           0   0.00000       0.00000    
     28048 TIP3     368      SWM4     H2       HDW      0.557330       1.00800           0   0.00000       0.00000    
     28049 TIP3     369      SWM4     OH2      ODW       1.71640       15.5994           0 -0.978253       1.30000    
     28050 TIP3     369      SWM4     DOH2     DOH2     -1.71640      0.400000           0   0.00000       0.00000    
     28051 TIP3     369      SWM4     OM       LPDW     -1.11466       0.00000          -1   0.00000       0.00000    
     28052 TIP3     369      SWM4     H1       HDW      0.557330       1.00800           0   0.00000       0.00000    
     28053 TIP3     369      SWM4     H2       HDW      0.557330       1.00800           0   0.00000       0.00000    
     28054 TIP3     370      SWM4     OH2      ODW       1.71640       15.5994           0 -0.978253       1.30000    
     28055 TIP3     370      SWM4     DOH2     DOH2     -1.71640      0.400000           0   0.00000       0.00000    
     28056 TIP3     370      SWM4     OM       LPDW     -1.11466       0.00000          -1   0.00000       0.00000    
     28057 TIP3     370      SWM4     H1       HDW      0.557330       1.00800           0   0.00000       0.00000    
     28058 TIP3     370      SWM4     H2       HDW      0.557330       1.00800           0   0.00000       0.00000    
     28059 TIP3     371      SWM4     OH2      ODW       1.71640       15.5994           0 -0.978253       1.30000    
     28060 TIP3     371      SWM4     DOH2     DOH2     -1.71640      0.400000           0   0.00000       0.00000    
     28061 TIP3     371      SWM4     OM       LPDW     -1.11466       0.00000          -1   0.00000       0.00000    
     28062 TIP3     371      SWM4     H1       HDW      0.557330       1.00800           0   0.00000       0.00000    
     28063 TIP3     371      SWM4     H2       HDW      0.557330       1.00800           0   0.00000       0.00000    
     28064 TIP3     372      SWM4     OH2      ODW       1.71640       15.5994           0 -0.978253       1.30000    
     28065 TIP3     372      SWM4     DOH2     DOH2     -1.71640      0.400000           0   0.00000       0.00000    
     28066 TIP3     372      SWM4     OM       LPDW     -1.11466       0.00000          -1   0.00000       0.00000    
     28067 TIP3     372      SWM4     H1       HDW      0.557330       1.00800           0   0.00000       0.00000    
     28068 TIP3     372      SWM4     H2       HDW      0.557330       1.00800           0   0.00000       0.00000    
     28069 TIP3     373      SWM4     OH2      ODW       1.71640       15.5994           0 -0.978253       1.30000    
     28070 TIP3     373      SWM4     DOH2     DOH2     -1.71640      0.400000           0   0.00000       0.00000    
     28071 TIP3     373      SWM4     OM       LPDW     -1.11466       0.00000          -1   0.00000       0.00000    
     28072 TIP3     373      SWM4     H1       HDW      0.557330       1.00800           0   0.00000       0.00000    
     28073 TIP3     373      SWM4     H2       HDW      0.557330       1.00800           0   0.00000       0.00000    
     28074 TIP3     374      SWM4     OH2      ODW       1.71640       15.5994           0 -0.978253       1.30000    
     28075 TIP3     374      SWM4     DOH2     DOH2     -1.71640      0.400000           0   0.00000       0.00000    
     28076 TIP3     374      SWM4     OM       LPDW     -1.11466       0.00000          -1   0.00000       0.00000    
     28077 TIP3     374      SWM4     H1       HDW      0.557330       1.00800           0   0.00000       0.00000    
     28078 TIP3     374      SWM4     H2       HDW      0.557330       1.00800           0   0.00000       0.00000    
     28079 TIP3     375      SWM4     OH2      ODW       1.71640       15.5994           0 -0.978253       1.30000    
     28080 TIP3     375      SWM4     DOH2     DOH2     -1.71640      0.400000           0   0.00000       0.00000    
     28081 TIP3     375      SWM4     OM       LPDW     -1.11466       0.00000          -1   0.00000       0.00000    
     28082 TIP3     375      SWM4     H1       HDW      0.557330       1.00800           0   0.00000       0.00000    
     28083 TIP3     375      SWM4     H2       HDW      0.557330       1.00800           0   0.00000       0.00000    
     28084 TIP3     376      SWM4     OH2      ODW       1.71640       15.5994           0 -0.978253       1.30000    
     28085 TIP3     376      SWM4     DOH2     DOH2     -1.71640      0.400000           0   0.00000       0.00000    
     28086 TIP3     376      SWM4     OM       LPDW     -1.11466       0.00000          -1   0.00000       0.00000    
     28087 TIP3     376      SWM4     H1       HDW      0.557330       1.00800           0   0.00000       0.00000    
     28088 TIP3     376      SWM4     H2       HDW      0.557330       1.00800           0   0.00000       0.00000    
     28089 TIP3     377      SWM4     OH2      ODW       1.71640       15.5994           0 -0.978253       1.30000    
     28090 TIP3     377      SWM4     DOH2     DOH2     -1.71640      0.400000           0   0.00000       0.00000    
     28091 TIP3     377      SWM4     OM       LPDW     -1.11466       0.00000          -1   0.00000       0.00000    
     28092 TIP3     377      SWM4     H1       HDW      0.557330       1.00800           0   0.00000       0.00000    
     28093 TIP3     377      SWM4     H2       HDW      0.557330       1.00800           0   0.00000       0.00000    
     28094 TIP3     378      SWM4     OH2      ODW       1.71640       15.5994           0 -0.978253       1.30000    
     28095 TIP3     378      SWM4     DOH2     DOH2     -1.71640      0.400000           0   0.00000       0.00000    
     28096 TIP3     378      SWM4     OM       LPDW     -1.11466       0.00000          -1   0.00000       0.00000    
     28097 TIP3     378      SWM4     H1       HDW      0.557330       1.00800           0   0.00000       0.00000    
     28098 TIP3     378      SWM4     H2       HDW      0.557330       1.00800           0   0.00000       0.00000    
     28099 TIP3     379      SWM4     OH2      ODW       1.71640       15.5994           0 -0.978253       1.30000    
     28100 TIP3     379      SWM4     DOH2     DOH2     -1.71640      0.400000           0   0.00000       0.00000    
     28101 TIP3     379      SWM4     OM       LPDW     -1.11466       0.00000          -1   0.00000       0.00000    
     28102 TIP3     379      SWM4     H1       HDW      0.557330       1.00800           0   0.00000       0.00000    
     28103 TIP3     379      SWM4     H2       HDW      0.557330       1.00800           0   0.00000       0.00000    
     28104 TIP3     380      SWM4     OH2      ODW       1.71640       15.5994           0 -0.978253       1.30000    
     28105 TIP3     380      SWM4     DOH2     DOH2     -1.71640      0.400000           0   0.00000       0.00000    
     28106 TIP3     380      SWM4     OM       LPDW     -1.11466       0.00000          -1   0.00000       0.00000    
     28107 TIP3     380      SWM4     H1       HDW      0.557330       1.00800           0   0.00000       0.00000    
     28108 TIP3     380      SWM4     H2       HDW      0.557330       1.00800           0   0.00000       0.00000    
     28109 TIP3     381      SWM4     OH2      ODW       1.71640       15.5994           0 -0.978253       1.30000    
     28110 TIP3     381      SWM4     DOH2     DOH2     -1.71640      0.400000           0   0.00000       0.00000    
     28111 TIP3     381      SWM4     OM       LPDW     -1.11466       0.00000          -1   0.00000       0.00000    
     28112 TIP3     381      SWM4     H1       HDW      0.557330       1.00800           0   0.00000       0.00000    
     28113 TIP3     381      SWM4     H2       HDW      0.557330       1.00800           0   0.00000       0.00000    
     28114 TIP3     382      SWM4     OH2      ODW       1.71640       15.5994           0 -0.978253       1.30000    
     28115 TIP3     382      SWM4     DOH2     DOH2     -1.71640      0.400000           0   0.00000       0.00000    
     28116 TIP3     382      SWM4     OM       LPDW     -1.11466       0.00000          -1   0.00000       0.00000    
     28117 TIP3     382      SWM4     H1       HDW      0.557330       1.00800           0   0.00000       0.00000    
     28118 TIP3     382      SWM4     H2       HDW      0.557330       1.00800           0   0.00000       0.00000    
     28119 TIP3     383      SWM4     OH2      ODW       1.71640       15.5994           0 -0.978253       1.30000    
     28120 TIP3     383      SWM4     DOH2     DOH2     -1.71640      0.400000           0   0.00000       0.00000    
     28121 TIP3     383      SWM4     OM       LPDW     -1.11466       0.00000          -1   0.00000       0.00000    
     28122 TIP3     383      SWM4     H1       HDW      0.557330       1.00800           0   0.00000       0.00000    
     28123 TIP3     383      SWM4     H2       HDW      0.557330       1.00800           0   0.00000       0.00000    
     28124 TIP3     384      SWM4     OH2      ODW       1.71640       15.5994           0 -0.978253       1.30000    
     28125 TIP3     384      SWM4     DOH2     DOH2     -1.71640      0.400000           0   0.00000       0.00000    
     28126 TIP3     384      SWM4     OM       LPDW     -1.11466       0.00000          -1   0.00000       0.00000    
     28127 TIP3     384      SWM4     H1       HDW      0.557330       1.00800           0   0.00000       0.00000    
     28128 TIP3     384      SWM4     H2       HDW      0.557330       1.00800           0   0.00000       0.00000    
     28129 TIP3     385      SWM4     OH2      ODW       1.71640       15.5994           0 -0.978253       1.30000    
     28130 TIP3     385      SWM4     DOH2     DOH2     -1.71640      0.400000           0   0.00000       0.00000    
     28131 TIP3     385      SWM4     OM       LPDW     -1.11466       0.00000          -1   0.00000       0.00000    
     28132 TIP3     385      SWM4     H1       HDW      0.557330       1.00800           0   0.00000       0.00000    
     28133 TIP3     385      SWM4     H2       HDW      0.557330       1.00800           0   0.00000       0.00000    
     28134 TIP3     386      SWM4     OH2      ODW       1.71640       15.5994           0 -0.978253       1.30000    
     28135 TIP3     386      SWM4     DOH2     DOH2     -1.71640      0.400000           0   0.00000       0.00000    
     28136 TIP3     386      SWM4     OM       LPDW     -1.11466       0.00000          -1   0.00000       0.00000    
     28137 TIP3     386      SWM4     H1       HDW      0.557330       1.00800           0   0.00000       0.00000    
     28138 TIP3     386      SWM4     H2       HDW      0.557330       1.00800           0   0.00000       0.00000    
     28139 TIP3     387      SWM4     OH2      ODW       1.71640       15.5994           0 -0.978253       1.30000    
     28140 TIP3     387      SWM4     DOH2     DOH2     -1.71640      0.400000           0   0.00000       0.00000    
     28141 TIP3     387      SWM4     OM       LPDW     -1.11466       0.00000          -1   0.00000       0.00000    
     28142 TIP3     387      SWM4     H1       HDW      0.557330       1.00800           0   0.00000       0.00000    
     28143 TIP3     387      SWM4     H2       HDW      0.557330       1.00800           0   0.00000       0.00000    
     28144 TIP3     388      SWM4     OH2      ODW       1.71640       15.5994           0 -0.978253       1.30000    
     28145 TIP3     388      SWM4     DOH2     DOH2     -1.71640      0.400000           0   0.00000       0.00000    
     28146 TIP3     388      SWM4     OM       LPDW     -1.11466       0.00000          -1   0.00000       0.00000    
     28147 TIP3     388      SWM4     H1       HDW      0.557330       1.00800           0   0.00000       0.00000    
     28148 TIP3     388      SWM4     H2       HDW      0.557330       1.00800           0   0.00000       0.00000    
     28149 TIP3     389      SWM4     OH2      ODW       1.71640       15.5994           0 -0.978253       1.30000    
     28150 TIP3     389      SWM4     DOH2     DOH2     -1.71640      0.400000           0   0.00000       0.00000    
     28151 TIP3     389      SWM4     OM       LPDW     -1.11466       0.00000          -1   0.00000       0.00000    
     28152 TIP3     389      SWM4     H1       HDW      0.557330       1.00800           0   0.00000       0.00000    
     28153 TIP3     389      SWM4     H2       HDW      0.557330       1.00800           0   0.00000       0.00000    
     28154 TIP3     390      SWM4     OH2      ODW       1.71640       15.5994           0 -0.978253       1.30000    
     28155 TIP3     390      SWM4     DOH2     DOH2     -1.71640      0.400000           0   0.00000       0.00000    
     28156 TIP3     390      SWM4     OM       LPDW     -1.11466       0.00000          -1   0.00000       0.00000    
     28157 TIP3     390      SWM4     H1       HDW      0.557330       1.00800           0   0.00000       0.00000    
     28158 TIP3     390      SWM4     H2       HDW      0.557330       1.00800           0   0.00000       0.00000    
     28159 TIP3     391      SWM4     OH2      ODW       1.71640       15.5994           0 -0.978253       1.30000    
     28160 TIP3     391      SWM4     DOH2     DOH2     -1.71640      0.400000           0   0.00000       0.00000    
     28161 TIP3     391      SWM4     OM       LPDW     -1.11466       0.00000          -1   0.00000       0.00000    
     28162 TIP3     391      SWM4     H1       HDW      0.557330       1.00800           0   0.00000       0.00000    
     28163 TIP3     391      SWM4     H2       HDW      0.557330       1.00800           0   0.00000       0.00000    
     28164 TIP3     392      SWM4     OH2      ODW       1.71640       15.5994           0 -0.978253       1.30000    
     28165 TIP3     392      SWM4     DOH2     DOH2     -1.71640      0.400000           0   0.00000       0.00000    
     28166 TIP3     392      SWM4     OM       LPDW     -1.11466       0.00000          -1   0.00000       0.00000    
     28167 TIP3     392      SWM4     H1       HDW      0.557330       1.00800           0   0.00000       0.00000    
     28168 TIP3     392      SWM4     H2       HDW      0.557330       1.00800           0   0.00000       0.00000    
     28169 TIP3     393      SWM4     OH2      ODW       1.71640       15.5994           0 -0.978253       1.30000    
     28170 TIP3     393      SWM4     DOH2     DOH2     -1.71640      0.400000           0   0.00000       0.00000    
     28171 TIP3     393      SWM4     OM       LPDW     -1.11466       0.00000          -1   0.00000       0.00000    
     28172 TIP3     393      SWM4     H1       HDW      0.557330       1.00800           0   0.00000       0.00000    
     28173 TIP3     393      SWM4     H2       HDW      0.557330       1.00800           0   0.00000       0.00000    
     28174 TIP3     394      SWM4     OH2      ODW       1.71640       15.5994           0 -0.978253       1.30000    
     28175 TIP3     394      SWM4     DOH2     DOH2     -1.71640      0.400000           0   0.00000       0.00000    
     28176 TIP3     394      SWM4     OM       LPDW     -1.11466       0.00000          -1   0.00000       0.00000    
     28177 TIP3     394      SWM4     H1       HDW      0.557330       1.00800           0   0.00000       0.00000    
     28178 TIP3     394      SWM4     H2       HDW      0.557330       1.00800           0   0.00000       0.00000    
     28179 TIP3     395      SWM4     OH2      ODW       1.71640       15.5994           0 -0.978253       1.30000    
     28180 TIP3     395      SWM4     DOH2     DOH2     -1.71640      0.400000           0   0.00000       0.00000    
     28181 TIP3     395      SWM4     OM       LPDW     -1.11466       0.00000          -1   0.00000       0.00000    
     28182 TIP3     395      SWM4     H1       HDW      0.557330       1.00800           0   0.00000       0.00000    
     28183 TIP3     395      SWM4     H2       HDW      0.557330       1.00800           0   0.00000       0.00000    
     28184 TIP3     396      SWM4     OH2      ODW       1.71640       15.5994           0 -0.978253       1.30000    
     28185 TIP3     396      SWM4     DOH2     DOH2     -1.71640      0.400000           0   0.00000       0.00000    
     28186 TIP3     396      SWM4     OM       LPDW     -1.11466       0.00000          -1   0.00000       0.00000    
     28187 TIP3     396      SWM4     H1       HDW      0.557330       1.00800           0   0.00000       0.00000    
     28188 TIP3     396      SWM4     H2       HDW      0.557330       1.00800           0   0.00000       0.00000    
     28189 TIP3     397      SWM4     OH2      ODW       1.71640       15.5994           0 -0.978253       1.30000    
     28190 TIP3     397      SWM4     DOH2     DOH2     -1.71640      0.400000           0   0.00000       0.00000    
     28191 TIP3     397      SWM4     OM       LPDW     -1.11466       0.00000          -1   0.00000       0.00000    
     28192 TIP3     397      SWM4     H1       HDW      0.557330       1.00800           0   0.00000       0.00000    
     28193 TIP3     397      SWM4     H2       HDW      0.557330       1.00800           0   0.00000       0.00000    
     28194 TIP3     398      SWM4     OH2      ODW       1.71640       15.5994           0 -0.978253       1.30000    
     28195 TIP3     398      SWM4     DOH2     DOH2     -1.71640      0.400000           0   0.00000       0.00000    
     28196 TIP3     398      SWM4     OM       LPDW     -1.11466       0.00000          -1   0.00000       0.00000    
     28197 TIP3     398      SWM4     H1       HDW      0.557330       1.00800           0   0.00000       0.00000    
     28198 TIP3     398      SWM4     H2       HDW      0.557330       1.00800           0   0.00000       0.00000    
     28199 TIP3     399      SWM4     OH2      ODW       1.71640       15.5994           0 -0.978253       1.30000    
     28200 TIP3     399      SWM4     DOH2     DOH2     -1.71640      0.400000           0   0.00000       0.00000    
     28201 TIP3     399      SWM4     OM       LPDW     -1.11466       0.00000          -1   0.00000       0.00000    
     28202 TIP3     399      SWM4     H1       HDW      0.557330       1.00800           0   0.00000       0.00000    
     28203 TIP3     399      SWM4     H2       HDW      0.557330       1.00800           0   0.00000       0.00000    
     28204 TIP3     400      SWM4     OH2      ODW       1.71640       15.5994           0 -0.978253       1.30000    
     28205 TIP3     400      SWM4     DOH2     DOH2     -1.71640      0.400000           0   0.00000       0.00000    
     28206 TIP3     400      SWM4     OM       LPDW     -1.11466       0.00000          -1   0.00000       0.00000    
     28207 TIP3     400      SWM4     H1       HDW      0.557330       1.00800           0   0.00000       0.00000    
     28208 TIP3     400      SWM4     H2       HDW      0.557330       1.00800           0   0.00000       0.00000    
     28209 TIP3     401      SWM4     OH2      ODW       1.71640       15.5994           0 -0.978253       1.30000    
     28210 TIP3     401      SWM4     DOH2     DOH2     -1.71640      0.400000           0   0.00000       0.00000    
     28211 TIP3     401      SWM4     OM       LPDW     -1.11466       0.00000          -1   0.00000       0.00000    
     28212 TIP3     401      SWM4     H1       HDW      0.557330       1.00800           0   0.00000       0.00000    
     28213 TIP3     401      SWM4     H2       HDW      0.557330       1.00800           0   0.00000       0.00000    
     28214 TIP3     402      SWM4     OH2      ODW       1.71640       15.5994           0 -0.978253       1.30000    
     28215 TIP3     402      SWM4     DOH2     DOH2     -1.71640      0.400000           0   0.00000       0.00000    
     28216 TIP3     402      SWM4     OM       LPDW     -1.11466       0.00000          -1   0.00000       0.00000    
     28217 TIP3     402      SWM4     H1       HDW      0.557330       1.00800           0   0.00000       0.00000    
     28218 TIP3     402      SWM4     H2       HDW      0.557330       1.00800           0   0.00000       0.00000    
     28219 TIP3     403      SWM4     OH2      ODW       1.71640       15.5994           0 -0.978253       1.30000    
     28220 TIP3     403      SWM4     DOH2     DOH2     -1.71640      0.400000           0   0.00000       0.00000    
     28221 TIP3     403      SWM4     OM       LPDW     -1.11466       0.00000          -1   0.00000       0.00000    
     28222 TIP3     403      SWM4     H1       HDW      0.557330       1.00800           0   0.00000       0.00000    
     28223 TIP3     403      SWM4     H2       HDW      0.557330       1.00800           0   0.00000       0.00000    
     28224 TIP3     404      SWM4     OH2      ODW       1.71640       15.5994           0 -0.978253       1.30000    
     28225 TIP3     404      SWM4     DOH2     DOH2     -1.71640      0.400000           0   0.00000       0.00000    
     28226 TIP3     404      SWM4     OM       LPDW     -1.11466       0.00000          -1   0.00000       0.00000    
     28227 TIP3     404      SWM4     H1       HDW      0.557330       1.00800           0   0.00000       0.00000    
     28228 TIP3     404      SWM4     H2       HDW      0.557330       1.00800           0   0.00000       0.00000    
     28229 TIP3     405      SWM4     OH2      ODW       1.71640       15.5994           0 -0.978253       1.30000    
     28230 TIP3     405      SWM4     DOH2     DOH2     -1.71640      0.400000           0   0.00000       0.00000    
     28231 TIP3     405      SWM4     OM       LPDW     -1.11466       0.00000          -1   0.00000       0.00000    
     28232 TIP3     405      SWM4     H1       HDW      0.557330       1.00800           0   0.00000       0.00000    
     28233 TIP3     405      SWM4     H2       HDW      0.557330       1.00800           0   0.00000       0.00000    
     28234 TIP3     406      SWM4     OH2      ODW       1.71640       15.5994           0 -0.978253       1.30000    
     28235 TIP3     406      SWM4     DOH2     DOH2     -1.71640      0.400000           0   0.00000       0.00000    
     28236 TIP3     406      SWM4     OM       LPDW     -1.11466       0.00000          -1   0.00000       0.00000    
     28237 TIP3     406      SWM4     H1       HDW      0.557330       1.00800           0   0.00000       0.00000    
     28238 TIP3     406      SWM4     H2       HDW      0.557330       1.00800           0   0.00000       0.00000    
     28239 TIP3     407      SWM4     OH2      ODW       1.71640       15.5994           0 -0.978253       1.30000    
     28240 TIP3     407      SWM4     DOH2     DOH2     -1.71640      0.400000           0   0.00000       0.00000    
     28241 TIP3     407      SWM4     OM       LPDW     -1.11466       0.00000          -1   0.00000       0.00000    
     28242 TIP3     407      SWM4     H1       HDW      0.557330       1.00800           0   0.00000       0.00000    
     28243 TIP3     407      SWM4     H2       HDW      0.557330       1.00800           0   0.00000       0.00000    
     28244 TIP3     408      SWM4     OH2      ODW       1.71640       15.5994           0 -0.978253       1.30000    
     28245 TIP3     408      SWM4     DOH2     DOH2     -1.71640      0.400000           0   0.00000       0.00000    
     28246 TIP3     408      SWM4     OM       LPDW     -1.11466       0.00000          -1   0.00000       0.00000    
     28247 TIP3     408      SWM4     H1       HDW      0.557330       1.00800           0   0.00000       0.00000    
     28248 TIP3     408      SWM4     H2       HDW      0.557330       1.00800           0   0.00000       0.00000    
     28249 TIP3     409      SWM4     OH2      ODW       1.71640       15.5994           0 -0.978253       1.30000    
     28250 TIP3     409      SWM4     DOH2     DOH2     -1.71640      0.400000           0   0.00000       0.00000    
     28251 TIP3     409      SWM4     OM       LPDW     -1.11466       0.00000          -1   0.00000       0.00000    
     28252 TIP3     409      SWM4     H1       HDW      0.557330       1.00800           0   0.00000       0.00000    
     28253 TIP3     409      SWM4     H2       HDW      0.557330       1.00800           0   0.00000       0.00000    
     28254 TIP3     410      SWM4     OH2      ODW       1.71640       15.5994           0 -0.978253       1.30000    
     28255 TIP3     410      SWM4     DOH2     DOH2     -1.71640      0.400000           0   0.00000       0.00000    
     28256 TIP3     410      SWM4     OM       LPDW     -1.11466       0.00000          -1   0.00000       0.00000    
     28257 TIP3     410      SWM4     H1       HDW      0.557330       1.00800           0   0.00000       0.00000    
     28258 TIP3     410      SWM4     H2       HDW      0.557330       1.00800           0   0.00000       0.00000    
     28259 TIP3     411      SWM4     OH2      ODW       1.71640       15.5994           0 -0.978253       1.30000    
     28260 TIP3     411      SWM4     DOH2     DOH2     -1.71640      0.400000           0   0.00000       0.00000    
     28261 TIP3     411      SWM4     OM       LPDW     -1.11466       0.00000          -1   0.00000       0.00000    
     28262 TIP3     411      SWM4     H1       HDW      0.557330       1.00800           0   0.00000       0.00000    
     28263 TIP3     411      SWM4     H2       HDW      0.557330       1.00800           0   0.00000       0.00000    
     28264 TIP3     412      SWM4     OH2      ODW       1.71640       15.5994           0 -0.978253       1.30000    
     28265 TIP3     412      SWM4     DOH2     DOH2     -1.71640      0.400000           0   0.00000       0.00000    
     28266 TIP3     412      SWM4     OM       LPDW     -1.11466       0.00000          -1   0.00000       0.00000    
     28267 TIP3     412      SWM4     H1       HDW      0.557330       1.00800           0   0.00000       0.00000    
     28268 TIP3     412      SWM4     H2       HDW      0.557330       1.00800           0   0.00000       0.00000    
     28269 TIP3     413      SWM4     OH2      ODW       1.71640       15.5994           0 -0.978253       1.30000    
     28270 TIP3     413      SWM4     DOH2     DOH2     -1.71640      0.400000           0   0.00000       0.00000    
     28271 TIP3     413      SWM4     OM       LPDW     -1.11466       0.00000          -1   0.00000       0.00000    
     28272 TIP3     413      SWM4     H1       HDW      0.557330       1.00800           0   0.00000       0.00000    
     28273 TIP3     413      SWM4     H2       HDW      0.557330       1.00800           0   0.00000       0.00000    
     28274 TIP3     414      SWM4     OH2      ODW       1.71640       15.5994           0 -0.978253       1.30000    
     28275 TIP3     414      SWM4     DOH2     DOH2     -1.71640      0.400000           0   0.00000       0.00000    
     28276 TIP3     414      SWM4     OM       LPDW     -1.11466       0.00000          -1   0.00000       0.00000    
     28277 TIP3     414      SWM4     H1       HDW      0.557330       1.00800           0   0.00000       0.00000    
     28278 TIP3     414      SWM4     H2       HDW      0.557330       1.00800           0   0.00000       0.00000    
     28279 TIP3     415      SWM4     OH2      ODW       1.71640       15.5994           0 -0.978253       1.30000    
     28280 TIP3     415      SWM4     DOH2     DOH2     -1.71640      0.400000           0   0.00000       0.00000    
     28281 TIP3     415      SWM4     OM       LPDW     -1.11466       0.00000          -1   0.00000       0.00000    
     28282 TIP3     415      SWM4     H1       HDW      0.557330       1.00800           0   0.00000       0.00000    
     28283 TIP3     415      SWM4     H2       HDW      0.557330       1.00800           0   0.00000       0.00000    
     28284 TIP3     416      SWM4     OH2      ODW       1.71640       15.5994           0 -0.978253       1.30000    
     28285 TIP3     416      SWM4     DOH2     DOH2     -1.71640      0.400000           0   0.00000       0.00000    
     28286 TIP3     416      SWM4     OM       LPDW     -1.11466       0.00000          -1   0.00000       0.00000    
     28287 TIP3     416      SWM4     H1       HDW      0.557330       1.00800           0   0.00000       0.00000    
     28288 TIP3     416      SWM4     H2       HDW      0.557330       1.00800           0   0.00000       0.00000    
     28289 TIP3     417      SWM4     OH2      ODW       1.71640       15.5994           0 -0.978253       1.30000    
     28290 TIP3     417      SWM4     DOH2     DOH2     -1.71640      0.400000           0   0.00000       0.00000    
     28291 TIP3     417      SWM4     OM       LPDW     -1.11466       0.00000          -1   0.00000       0.00000    
     28292 TIP3     417      SWM4     H1       HDW      0.557330       1.00800           0   0.00000       0.00000    
     28293 TIP3     417      SWM4     H2       HDW      0.557330       1.00800           0   0.00000       0.00000    
     28294 TIP3     418      SWM4     OH2      ODW       1.71640       15.5994           0 -0.978253       1.30000    
     28295 TIP3     418      SWM4     DOH2     DOH2     -1.71640      0.400000           0   0.00000       0.00000    
     28296 TIP3     418      SWM4     OM       LPDW     -1.11466       0.00000          -1   0.00000       0.00000    
     28297 TIP3     418      SWM4     H1       HDW      0.557330       1.00800           0   0.00000       0.00000    
     28298 TIP3     418      SWM4     H2       HDW      0.557330       1.00800           0   0.00000       0.00000    
     28299 TIP3     419      SWM4     OH2      ODW       1.71640       15.5994           0 -0.978253       1.30000    
     28300 TIP3     419      SWM4     DOH2     DOH2     -1.71640      0.400000           0   0.00000       0.00000    
     28301 TIP3     419      SWM4     OM       LPDW     -1.11466       0.00000          -1   0.00000       0.00000    
     28302 TIP3     419      SWM4     H1       HDW      0.557330       1.00800           0   0.00000       0.00000    
     28303 TIP3     419      SWM4     H2       HDW      0.557330       1.00800           0   0.00000       0.00000    
     28304 TIP3     420      SWM4     OH2      ODW       1.71640       15.5994           0 -0.978253       1.30000    
     28305 TIP3     420      SWM4     DOH2     DOH2     -1.71640      0.400000           0   0.00000       0.00000    
     28306 TIP3     420      SWM4     OM       LPDW     -1.11466       0.00000          -1   0.00000       0.00000    
     28307 TIP3     420      SWM4     H1       HDW      0.557330       1.00800           0   0.00000       0.00000    
     28308 TIP3     420      SWM4     H2       HDW      0.557330       1.00800           0   0.00000       0.00000    
     28309 TIP3     421      SWM4     OH2      ODW       1.71640       15.5994           0 -0.978253       1.30000    
     28310 TIP3     421      SWM4     DOH2     DOH2     -1.71640      0.400000           0   0.00000       0.00000    
     28311 TIP3     421      SWM4     OM       LPDW     -1.11466       0.00000          -1   0.00000       0.00000    
     28312 TIP3     421      SWM4     H1       HDW      0.557330       1.00800           0   0.00000       0.00000    
     28313 TIP3     421      SWM4     H2       HDW      0.557330       1.00800           0   0.00000       0.00000    
     28314 TIP3     422      SWM4     OH2      ODW       1.71640       15.5994           0 -0.978253       1.30000    
     28315 TIP3     422      SWM4     DOH2     DOH2     -1.71640      0.400000           0   0.00000       0.00000    
     28316 TIP3     422      SWM4     OM       LPDW     -1.11466       0.00000          -1   0.00000       0.00000    
     28317 TIP3     422      SWM4     H1       HDW      0.557330       1.00800           0   0.00000       0.00000    
     28318 TIP3     422      SWM4     H2       HDW      0.557330       1.00800           0   0.00000       0.00000    
     28319 TIP3     423      SWM4     OH2      ODW       1.71640       15.5994           0 -0.978253       1.30000    
     28320 TIP3     423      SWM4     DOH2     DOH2     -1.71640      0.400000           0   0.00000       0.00000    
     28321 TIP3     423      SWM4     OM       LPDW     -1.11466       0.00000          -1   0.00000       0.00000    
     28322 TIP3     423      SWM4     H1       HDW      0.557330       1.00800           0   0.00000       0.00000    
     28323 TIP3     423      SWM4     H2       HDW      0.557330       1.00800           0   0.00000       0.00000    
     28324 TIP3     424      SWM4     OH2      ODW       1.71640       15.5994           0 -0.978253       1.30000    
     28325 TIP3     424      SWM4     DOH2     DOH2     -1.71640      0.400000           0   0.00000       0.00000    
     28326 TIP3     424      SWM4     OM       LPDW     -1.11466       0.00000          -1   0.00000       0.00000    
     28327 TIP3     424      SWM4     H1       HDW      0.557330       1.00800           0   0.00000       0.00000    
     28328 TIP3     424      SWM4     H2       HDW      0.557330       1.00800           0   0.00000       0.00000    
     28329 TIP3     425      SWM4     OH2      ODW       1.71640       15.5994           0 -0.978253       1.30000    
     28330 TIP3     425      SWM4     DOH2     DOH2     -1.71640      0.400000           0   0.00000       0.00000    
     28331 TIP3     425      SWM4     OM       LPDW     -1.11466       0.00000          -1   0.00000       0.00000    
     28332 TIP3     425      SWM4     H1       HDW      0.557330       1.00800           0   0.00000       0.00000    
     28333 TIP3     425      SWM4     H2       HDW      0.557330       1.00800           0   0.00000       0.00000    
     28334 TIP3     426      SWM4     OH2      ODW       1.71640       15.5994           0 -0.978253       1.30000    
     28335 TIP3     426      SWM4     DOH2     DOH2     -1.71640      0.400000           0   0.00000       0.00000    
     28336 TIP3     426      SWM4     OM       LPDW     -1.11466       0.00000          -1   0.00000       0.00000    
     28337 TIP3     426      SWM4     H1       HDW      0.557330       1.00800           0   0.00000       0.00000    
     28338 TIP3     426      SWM4     H2       HDW      0.557330       1.00800           0   0.00000       0.00000    
     28339 TIP3     427      SWM4     OH2      ODW       1.71640       15.5994           0 -0.978253       1.30000    
     28340 TIP3     427      SWM4     DOH2     DOH2     -1.71640      0.400000           0   0.00000       0.00000    
     28341 TIP3     427      SWM4     OM       LPDW     -1.11466       0.00000          -1   0.00000       0.00000    
     28342 TIP3     427      SWM4     H1       HDW      0.557330       1.00800           0   0.00000       0.00000    
     28343 TIP3     427      SWM4     H2       HDW      0.557330       1.00800           0   0.00000       0.00000    
     28344 TIP3     428      SWM4     OH2      ODW       1.71640       15.5994           0 -0.978253       1.30000    
     28345 TIP3     428      SWM4     DOH2     DOH2     -1.71640      0.400000           0   0.00000       0.00000    
     28346 TIP3     428      SWM4     OM       LPDW     -1.11466       0.00000          -1   0.00000       0.00000    
     28347 TIP3     428      SWM4     H1       HDW      0.557330       1.00800           0   0.00000       0.00000    
     28348 TIP3     428      SWM4     H2       HDW      0.557330       1.00800           0   0.00000       0.00000    
     28349 TIP3     429      SWM4     OH2      ODW       1.71640       15.5994           0 -0.978253       1.30000    
     28350 TIP3     429      SWM4     DOH2     DOH2     -1.71640      0.400000           0   0.00000       0.00000    
     28351 TIP3     429      SWM4     OM       LPDW     -1.11466       0.00000          -1   0.00000       0.00000    
     28352 TIP3     429      SWM4     H1       HDW      0.557330       1.00800           0   0.00000       0.00000    
     28353 TIP3     429      SWM4     H2       HDW      0.557330       1.00800           0   0.00000       0.00000    
     28354 TIP3     430      SWM4     OH2      ODW       1.71640       15.5994           0 -0.978253       1.30000    
     28355 TIP3     430      SWM4     DOH2     DOH2     -1.71640      0.400000           0   0.00000       0.00000    
     28356 TIP3     430      SWM4     OM       LPDW     -1.11466       0.00000          -1   0.00000       0.00000    
     28357 TIP3     430      SWM4     H1       HDW      0.557330       1.00800           0   0.00000       0.00000    
     28358 TIP3     430      SWM4     H2       HDW      0.557330       1.00800           0   0.00000       0.00000    
     28359 TIP3     431      SWM4     OH2      ODW       1.71640       15.5994           0 -0.978253       1.30000    
     28360 TIP3     431      SWM4     DOH2     DOH2     -1.71640      0.400000           0   0.00000       0.00000    
     28361 TIP3     431      SWM4     OM       LPDW     -1.11466       0.00000          -1   0.00000       0.00000    
     28362 TIP3     431      SWM4     H1       HDW      0.557330       1.00800           0   0.00000       0.00000    
     28363 TIP3     431      SWM4     H2       HDW      0.557330       1.00800           0   0.00000       0.00000    
     28364 TIP3     432      SWM4     OH2      ODW       1.71640       15.5994           0 -0.978253       1.30000    
     28365 TIP3     432      SWM4     DOH2     DOH2     -1.71640      0.400000           0   0.00000       0.00000    
     28366 TIP3     432      SWM4     OM       LPDW     -1.11466       0.00000          -1   0.00000       0.00000    
     28367 TIP3     432      SWM4     H1       HDW      0.557330       1.00800           0   0.00000       0.00000    
     28368 TIP3     432      SWM4     H2       HDW      0.557330       1.00800           0   0.00000       0.00000    
     28369 TIP3     433      SWM4     OH2      ODW       1.71640       15.5994           0 -0.978253       1.30000    
     28370 TIP3     433      SWM4     DOH2     DOH2     -1.71640      0.400000           0   0.00000       0.00000    
     28371 TIP3     433      SWM4     OM       LPDW     -1.11466       0.00000          -1   0.00000       0.00000    
     28372 TIP3     433      SWM4     H1       HDW      0.557330       1.00800           0   0.00000       0.00000    
     28373 TIP3     433      SWM4     H2       HDW      0.557330       1.00800           0   0.00000       0.00000    
     28374 TIP3     434      SWM4     OH2      ODW       1.71640       15.5994           0 -0.978253       1.30000    
     28375 TIP3     434      SWM4     DOH2     DOH2     -1.71640      0.400000           0   0.00000       0.00000    
     28376 TIP3     434      SWM4     OM       LPDW     -1.11466       0.00000          -1   0.00000       0.00000    
     28377 TIP3     434      SWM4     H1       HDW      0.557330       1.00800           0   0.00000       0.00000    
     28378 TIP3     434      SWM4     H2       HDW      0.557330       1.00800           0   0.00000       0.00000    
     28379 TIP3     435      SWM4     OH2      ODW       1.71640       15.5994           0 -0.978253       1.30000    
     28380 TIP3     435      SWM4     DOH2     DOH2     -1.71640      0.400000           0   0.00000       0.00000    
     28381 TIP3     435      SWM4     OM       LPDW     -1.11466       0.00000          -1   0.00000       0.00000    
     28382 TIP3     435      SWM4     H1       HDW      0.557330       1.00800           0   0.00000       0.00000    
     28383 TIP3     435      SWM4     H2       HDW      0.557330       1.00800           0   0.00000       0.00000    
     28384 TIP3     436      SWM4     OH2      ODW       1.71640       15.5994           0 -0.978253       1.30000    
     28385 TIP3     436      SWM4     DOH2     DOH2     -1.71640      0.400000           0   0.00000       0.00000    
     28386 TIP3     436      SWM4     OM       LPDW     -1.11466       0.00000          -1   0.00000       0.00000    
     28387 TIP3     436      SWM4     H1       HDW      0.557330       1.00800           0   0.00000       0.00000    
     28388 TIP3     436      SWM4     H2       HDW      0.557330       1.00800           0   0.00000       0.00000    
     28389 TIP3     437      SWM4     OH2      ODW       1.71640       15.5994           0 -0.978253       1.30000    
     28390 TIP3     437      SWM4     DOH2     DOH2     -1.71640      0.400000           0   0.00000       0.00000    
     28391 TIP3     437      SWM4     OM       LPDW     -1.11466       0.00000          -1   0.00000       0.00000    
     28392 TIP3     437      SWM4     H1       HDW      0.557330       1.00800           0   0.00000       0.00000    
     28393 TIP3     437      SWM4     H2       HDW      0.557330       1.00800           0   0.00000       0.00000    
     28394 TIP3     438      SWM4     OH2      ODW       1.71640       15.5994           0 -0.978253       1.30000    
     28395 TIP3     438      SWM4     DOH2     DOH2     -1.71640      0.400000           0   0.00000       0.00000    
     28396 TIP3     438      SWM4     OM       LPDW     -1.11466       0.00000          -1   0.00000       0.00000    
     28397 TIP3     438      SWM4     H1       HDW      0.557330       1.00800           0   0.00000       0.00000    
     28398 TIP3     438      SWM4     H2       HDW      0.557330       1.00800           0   0.00000       0.00000    
     28399 TIP3     439      SWM4     OH2      ODW       1.71640       15.5994           0 -0.978253       1.30000    
     28400 TIP3     439      SWM4     DOH2     DOH2     -1.71640      0.400000           0   0.00000       0.00000    
     28401 TIP3     439      SWM4     OM       LPDW     -1.11466       0.00000          -1   0.00000       0.00000    
     28402 TIP3     439      SWM4     H1       HDW      0.557330       1.00800           0   0.00000       0.00000    
     28403 TIP3     439      SWM4     H2       HDW      0.557330       1.00800           0   0.00000       0.00000    
     28404 TIP3     440      SWM4     OH2      ODW       1.71640       15.5994           0 -0.978253       1.30000    
     28405 TIP3     440      SWM4     DOH2     DOH2     -1.71640      0.400000           0   0.00000       0.00000    
     28406 TIP3     440      SWM4     OM       LPDW     -1.11466       0.00000          -1   0.00000       0.00000    
     28407 TIP3     440      SWM4     H1       HDW      0.557330       1.00800           0   0.00000       0.00000    
     28408 TIP3     440      SWM4     H2       HDW      0.557330       1.00800           0   0.00000       0.00000    
     28409 TIP3     441      SWM4     OH2      ODW       1.71640       15.5994           0 -0.978253       1.30000    
     28410 TIP3     441      SWM4     DOH2     DOH2     -1.71640      0.400000           0   0.00000       0.00000    
     28411 TIP3     441      SWM4     OM       LPDW     -1.11466       0.00000          -1   0.00000       0.00000    
     28412 TIP3     441      SWM4     H1       HDW      0.557330       1.00800           0   0.00000       0.00000    
     28413 TIP3     441      SWM4     H2       HDW      0.557330       1.00800           0   0.00000       0.00000    
     28414 TIP3     442      SWM4     OH2      ODW       1.71640       15.5994           0 -0.978253       1.30000    
     28415 TIP3     442      SWM4     DOH2     DOH2     -1.71640      0.400000           0   0.00000       0.00000    
     28416 TIP3     442      SWM4     OM       LPDW     -1.11466       0.00000          -1   0.00000       0.00000    
     28417 TIP3     442      SWM4     H1       HDW      0.557330       1.00800           0   0.00000       0.00000    
     28418 TIP3     442      SWM4     H2       HDW      0.557330       1.00800           0   0.00000       0.00000    
     28419 TIP3     443      SWM4     OH2      ODW       1.71640       15.5994           0 -0.978253       1.30000    
     28420 TIP3     443      SWM4     DOH2     DOH2     -1.71640      0.400000           0   0.00000       0.00000    
     28421 TIP3     443      SWM4     OM       LPDW     -1.11466       0.00000          -1   0.00000       0.00000    
     28422 TIP3     443      SWM4     H1       HDW      0.557330       1.00800           0   0.00000       0.00000    
     28423 TIP3     443      SWM4     H2       HDW      0.557330       1.00800           0   0.00000       0.00000    
     28424 TIP3     444      SWM4     OH2      ODW       1.71640       15.5994           0 -0.978253       1.30000    
     28425 TIP3     444      SWM4     DOH2     DOH2     -1.71640      0.400000           0   0.00000       0.00000    
     28426 TIP3     444      SWM4     OM       LPDW     -1.11466       0.00000          -1   0.00000       0.00000    
     28427 TIP3     444      SWM4     H1       HDW      0.557330       1.00800           0   0.00000       0.00000    
     28428 TIP3     444      SWM4     H2       HDW      0.557330       1.00800           0   0.00000       0.00000    
     28429 TIP3     445      SWM4     OH2      ODW       1.71640       15.5994           0 -0.978253       1.30000    
     28430 TIP3     445      SWM4     DOH2     DOH2     -1.71640      0.400000           0   0.00000       0.00000    
     28431 TIP3     445      SWM4     OM       LPDW     -1.11466       0.00000          -1   0.00000       0.00000    
     28432 TIP3     445      SWM4     H1       HDW      0.557330       1.00800           0   0.00000       0.00000    
     28433 TIP3     445      SWM4     H2       HDW      0.557330       1.00800           0   0.00000       0.00000    
     28434 TIP3     446      SWM4     OH2      ODW       1.71640       15.5994           0 -0.978253       1.30000    
     28435 TIP3     446      SWM4     DOH2     DOH2     -1.71640      0.400000           0   0.00000       0.00000    
     28436 TIP3     446      SWM4     OM       LPDW     -1.11466       0.00000          -1   0.00000       0.00000    
     28437 TIP3     446      SWM4     H1       HDW      0.557330       1.00800           0   0.00000       0.00000    
     28438 TIP3     446      SWM4     H2       HDW      0.557330       1.00800           0   0.00000       0.00000    
     28439 TIP3     447      SWM4     OH2      ODW       1.71640       15.5994           0 -0.978253       1.30000    
     28440 TIP3     447      SWM4     DOH2     DOH2     -1.71640      0.400000           0   0.00000       0.00000    
     28441 TIP3     447      SWM4     OM       LPDW     -1.11466       0.00000          -1   0.00000       0.00000    
     28442 TIP3     447      SWM4     H1       HDW      0.557330       1.00800           0   0.00000       0.00000    
     28443 TIP3     447      SWM4     H2       HDW      0.557330       1.00800           0   0.00000       0.00000    
     28444 TIP3     448      SWM4     OH2      ODW       1.71640       15.5994           0 -0.978253       1.30000    
     28445 TIP3     448      SWM4     DOH2     DOH2     -1.71640      0.400000           0   0.00000       0.00000    
     28446 TIP3     448      SWM4     OM       LPDW     -1.11466       0.00000          -1   0.00000       0.00000    
     28447 TIP3     448      SWM4     H1       HDW      0.557330       1.00800           0   0.00000       0.00000    
     28448 TIP3     448      SWM4     H2       HDW      0.557330       1.00800           0   0.00000       0.00000    
     28449 TIP3     449      SWM4     OH2      ODW       1.71640       15.5994           0 -0.978253       1.30000    
     28450 TIP3     449      SWM4     DOH2     DOH2     -1.71640      0.400000           0   0.00000       0.00000    
     28451 TIP3     449      SWM4     OM       LPDW     -1.11466       0.00000          -1   0.00000       0.00000    
     28452 TIP3     449      SWM4     H1       HDW      0.557330       1.00800           0   0.00000       0.00000    
     28453 TIP3     449      SWM4     H2       HDW      0.557330       1.00800           0   0.00000       0.00000    
     28454 TIP3     450      SWM4     OH2      ODW       1.71640       15.5994           0 -0.978253       1.30000    
     28455 TIP3     450      SWM4     DOH2     DOH2     -1.71640      0.400000           0   0.00000       0.00000    
     28456 TIP3     450      SWM4     OM       LPDW     -1.11466       0.00000          -1   0.00000       0.00000    
     28457 TIP3     450      SWM4     H1       HDW      0.557330       1.00800           0   0.00000       0.00000    
     28458 TIP3     450      SWM4     H2       HDW      0.557330       1.00800           0   0.00000       0.00000    
     28459 TIP3     451      SWM4     OH2      ODW       1.71640       15.5994           0 -0.978253       1.30000    
     28460 TIP3     451      SWM4     DOH2     DOH2     -1.71640      0.400000           0   0.00000       0.00000    
     28461 TIP3     451      SWM4     OM       LPDW     -1.11466       0.00000          -1   0.00000       0.00000    
     28462 TIP3     451      SWM4     H1       HDW      0.557330       1.00800           0   0.00000       0.00000    
     28463 TIP3     451      SWM4     H2       HDW      0.557330       1.00800           0   0.00000       0.00000    
     28464 TIP3     452      SWM4     OH2      ODW       1.71640       15.5994           0 -0.978253       1.30000    
     28465 TIP3     452      SWM4     DOH2     DOH2     -1.71640      0.400000           0   0.00000       0.00000    
     28466 TIP3     452      SWM4     OM       LPDW     -1.11466       0.00000          -1   0.00000       0.00000    
     28467 TIP3     452      SWM4     H1       HDW      0.557330       1.00800           0   0.00000       0.00000    
     28468 TIP3     452      SWM4     H2       HDW      0.557330       1.00800           0   0.00000       0.00000    
     28469 TIP3     453      SWM4     OH2      ODW       1.71640       15.5994           0 -0.978253       1.30000    
     28470 TIP3     453      SWM4     DOH2     DOH2     -1.71640      0.400000           0   0.00000       0.00000    
     28471 TIP3     453      SWM4     OM       LPDW     -1.11466       0.00000          -1   0.00000       0.00000    
     28472 TIP3     453      SWM4     H1       HDW      0.557330       1.00800           0   0.00000       0.00000    
     28473 TIP3     453      SWM4     H2       HDW      0.557330       1.00800           0   0.00000       0.00000    
     28474 TIP3     454      SWM4     OH2      ODW       1.71640       15.5994           0 -0.978253       1.30000    
     28475 TIP3     454      SWM4     DOH2     DOH2     -1.71640      0.400000           0   0.00000       0.00000    
     28476 TIP3     454      SWM4     OM       LPDW     -1.11466       0.00000          -1   0.00000       0.00000    
     28477 TIP3     454      SWM4     H1       HDW      0.557330       1.00800           0   0.00000       0.00000    
     28478 TIP3     454      SWM4     H2       HDW      0.557330       1.00800           0   0.00000       0.00000    
     28479 TIP3     455      SWM4     OH2      ODW       1.71640       15.5994           0 -0.978253       1.30000    
     28480 TIP3     455      SWM4     DOH2     DOH2     -1.71640      0.400000           0   0.00000       0.00000    
     28481 TIP3     455      SWM4     OM       LPDW     -1.11466       0.00000          -1   0.00000       0.00000    
     28482 TIP3     455      SWM4     H1       HDW      0.557330       1.00800           0   0.00000       0.00000    
     28483 TIP3     455      SWM4     H2       HDW      0.557330       1.00800           0   0.00000       0.00000    
     28484 TIP3     456      SWM4     OH2      ODW       1.71640       15.5994           0 -0.978253       1.30000    
     28485 TIP3     456      SWM4     DOH2     DOH2     -1.71640      0.400000           0   0.00000       0.00000    
     28486 TIP3     456      SWM4     OM       LPDW     -1.11466       0.00000          -1   0.00000       0.00000    
     28487 TIP3     456      SWM4     H1       HDW      0.557330       1.00800           0   0.00000       0.00000    
     28488 TIP3     456      SWM4     H2       HDW      0.557330       1.00800           0   0.00000       0.00000    
     28489 TIP3     457      SWM4     OH2      ODW       1.71640       15.5994           0 -0.978253       1.30000    
     28490 TIP3     457      SWM4     DOH2     DOH2     -1.71640      0.400000           0   0.00000       0.00000    
     28491 TIP3     457      SWM4     OM       LPDW     -1.11466       0.00000          -1   0.00000       0.00000    
     28492 TIP3     457      SWM4     H1       HDW      0.557330       1.00800           0   0.00000       0.00000    
     28493 TIP3     457      SWM4     H2       HDW      0.557330       1.00800           0   0.00000       0.00000    
     28494 TIP3     458      SWM4     OH2      ODW       1.71640       15.5994           0 -0.978253       1.30000    
     28495 TIP3     458      SWM4     DOH2     DOH2     -1.71640      0.400000           0   0.00000       0.00000    
     28496 TIP3     458      SWM4     OM       LPDW     -1.11466       0.00000          -1   0.00000       0.00000    
     28497 TIP3     458      SWM4     H1       HDW      0.557330       1.00800           0   0.00000       0.00000    
     28498 TIP3     458      SWM4     H2       HDW      0.557330       1.00800           0   0.00000       0.00000    
     28499 TIP3     459      SWM4     OH2      ODW       1.71640       15.5994           0 -0.978253       1.30000    
     28500 TIP3     459      SWM4     DOH2     DOH2     -1.71640      0.400000           0   0.00000       0.00000    
     28501 TIP3     459      SWM4     OM       LPDW     -1.11466       0.00000          -1   0.00000       0.00000    
     28502 TIP3     459      SWM4     H1       HDW      0.557330       1.00800           0   0.00000       0.00000    
     28503 TIP3     459      SWM4     H2       HDW      0.557330       1.00800           0   0.00000       0.00000    
     28504 TIP3     460      SWM4     OH2      ODW       1.71640       15.5994           0 -0.978253       1.30000    
     28505 TIP3     460      SWM4     DOH2     DOH2     -1.71640      0.400000           0   0.00000       0.00000    
     28506 TIP3     460      SWM4     OM       LPDW     -1.11466       0.00000          -1   0.00000       0.00000    
     28507 TIP3     460      SWM4     H1       HDW      0.557330       1.00800           0   0.00000       0.00000    
     28508 TIP3     460      SWM4     H2       HDW      0.557330       1.00800           0   0.00000       0.00000    
     28509 TIP3     461      SWM4     OH2      ODW       1.71640       15.5994           0 -0.978253       1.30000    
     28510 TIP3     461      SWM4     DOH2     DOH2     -1.71640      0.400000           0   0.00000       0.00000    
     28511 TIP3     461      SWM4     OM       LPDW     -1.11466       0.00000          -1   0.00000       0.00000    
     28512 TIP3     461      SWM4     H1       HDW      0.557330       1.00800           0   0.00000       0.00000    
     28513 TIP3     461      SWM4     H2       HDW      0.557330       1.00800           0   0.00000       0.00000    
     28514 TIP3     462      SWM4     OH2      ODW       1.71640       15.5994           0 -0.978253       1.30000    
     28515 TIP3     462      SWM4     DOH2     DOH2     -1.71640      0.400000           0   0.00000       0.00000    
     28516 TIP3     462      SWM4     OM       LPDW     -1.11466       0.00000          -1   0.00000       0.00000    
     28517 TIP3     462      SWM4     H1       HDW      0.557330       1.00800           0   0.00000       0.00000    
     28518 TIP3     462      SWM4     H2       HDW      0.557330       1.00800           0   0.00000       0.00000    
     28519 TIP3     463      SWM4     OH2      ODW       1.71640       15.5994           0 -0.978253       1.30000    
     28520 TIP3     463      SWM4     DOH2     DOH2     -1.71640      0.400000           0   0.00000       0.00000    
     28521 TIP3     463      SWM4     OM       LPDW     -1.11466       0.00000          -1   0.00000       0.00000    
     28522 TIP3     463      SWM4     H1       HDW      0.557330       1.00800           0   0.00000       0.00000    
     28523 TIP3     463      SWM4     H2       HDW      0.557330       1.00800           0   0.00000       0.00000    
     28524 TIP3     464      SWM4     OH2      ODW       1.71640       15.5994           0 -0.978253       1.30000    
     28525 TIP3     464      SWM4     DOH2     DOH2     -1.71640      0.400000           0   0.00000       0.00000    
     28526 TIP3     464      SWM4     OM       LPDW     -1.11466       0.00000          -1   0.00000       0.00000    
     28527 TIP3     464      SWM4     H1       HDW      0.557330       1.00800           0   0.00000       0.00000    
     28528 TIP3     464      SWM4     H2       HDW      0.557330       1.00800           0   0.00000       0.00000    
     28529 TIP3     465      SWM4     OH2      ODW       1.71640       15.5994           0 -0.978253       1.30000    
     28530 TIP3     465      SWM4     DOH2     DOH2     -1.71640      0.400000           0   0.00000       0.00000    
     28531 TIP3     465      SWM4     OM       LPDW     -1.11466       0.00000          -1   0.00000       0.00000    
     28532 TIP3     465      SWM4     H1       HDW      0.557330       1.00800           0   0.00000       0.00000    
     28533 TIP3     465      SWM4     H2       HDW      0.557330       1.00800           0   0.00000       0.00000    
     28534 TIP3     466      SWM4     OH2      ODW       1.71640       15.5994           0 -0.978253       1.30000    
     28535 TIP3     466      SWM4     DOH2     DOH2     -1.71640      0.400000           0   0.00000       0.00000    
     28536 TIP3     466      SWM4     OM       LPDW     -1.11466       0.00000          -1   0.00000       0.00000    
     28537 TIP3     466      SWM4     H1       HDW      0.557330       1.00800           0   0.00000       0.00000    
     28538 TIP3     466      SWM4     H2       HDW      0.557330       1.00800           0   0.00000       0.00000    
     28539 TIP3     467      SWM4     OH2      ODW       1.71640       15.5994           0 -0.978253       1.30000    
     28540 TIP3     467      SWM4     DOH2     DOH2     -1.71640      0.400000           0   0.00000       0.00000    
     28541 TIP3     467      SWM4     OM       LPDW     -1.11466       0.00000          -1   0.00000       0.00000    
     28542 TIP3     467      SWM4     H1       HDW      0.557330       1.00800           0   0.00000       0.00000    
     28543 TIP3     467      SWM4     H2       HDW      0.557330       1.00800           0   0.00000       0.00000    
     28544 TIP3     468      SWM4     OH2      ODW       1.71640       15.5994           0 -0.978253       1.30000    
     28545 TIP3     468      SWM4     DOH2     DOH2     -1.71640      0.400000           0   0.00000       0.00000    
     28546 TIP3     468      SWM4     OM       LPDW     -1.11466       0.00000          -1   0.00000       0.00000    
     28547 TIP3     468      SWM4     H1       HDW      0.557330       1.00800           0   0.00000       0.00000    
     28548 TIP3     468      SWM4     H2       HDW      0.557330       1.00800           0   0.00000       0.00000    
     28549 TIP3     469      SWM4     OH2      ODW       1.71640       15.5994           0 -0.978253       1.30000    
     28550 TIP3     469      SWM4     DOH2     DOH2     -1.71640      0.400000           0   0.00000       0.00000    
     28551 TIP3     469      SWM4     OM       LPDW     -1.11466       0.00000          -1   0.00000       0.00000    
     28552 TIP3     469      SWM4     H1       HDW      0.557330       1.00800           0   0.00000       0.00000    
     28553 TIP3     469      SWM4     H2       HDW      0.557330       1.00800           0   0.00000       0.00000    
     28554 TIP3     470      SWM4     OH2      ODW       1.71640       15.5994           0 -0.978253       1.30000    
     28555 TIP3     470      SWM4     DOH2     DOH2     -1.71640      0.400000           0   0.00000       0.00000    
     28556 TIP3     470      SWM4     OM       LPDW     -1.11466       0.00000          -1   0.00000       0.00000    
     28557 TIP3     470      SWM4     H1       HDW      0.557330       1.00800           0   0.00000       0.00000    
     28558 TIP3     470      SWM4     H2       HDW      0.557330       1.00800           0   0.00000       0.00000    
     28559 TIP3     471      SWM4     OH2      ODW       1.71640       15.5994           0 -0.978253       1.30000    
     28560 TIP3     471      SWM4     DOH2     DOH2     -1.71640      0.400000           0   0.00000       0.00000    
     28561 TIP3     471      SWM4     OM       LPDW     -1.11466       0.00000          -1   0.00000       0.00000    
     28562 TIP3     471      SWM4     H1       HDW      0.557330       1.00800           0   0.00000       0.00000    
     28563 TIP3     471      SWM4     H2       HDW      0.557330       1.00800           0   0.00000       0.00000    
     28564 TIP3     472      SWM4     OH2      ODW       1.71640       15.5994           0 -0.978253       1.30000    
     28565 TIP3     472      SWM4     DOH2     DOH2     -1.71640      0.400000           0   0.00000       0.00000    
     28566 TIP3     472      SWM4     OM       LPDW     -1.11466       0.00000          -1   0.00000       0.00000    
     28567 TIP3     472      SWM4     H1       HDW      0.557330       1.00800           0   0.00000       0.00000    
     28568 TIP3     472      SWM4     H2       HDW      0.557330       1.00800           0   0.00000       0.00000    
     28569 TIP3     473      SWM4     OH2      ODW       1.71640       15.5994           0 -0.978253       1.30000    
     28570 TIP3     473      SWM4     DOH2     DOH2     -1.71640      0.400000           0   0.00000       0.00000    
     28571 TIP3     473      SWM4     OM       LPDW     -1.11466       0.00000          -1   0.00000       0.00000    
     28572 TIP3     473      SWM4     H1       HDW      0.557330       1.00800           0   0.00000       0.00000    
     28573 TIP3     473      SWM4     H2       HDW      0.557330       1.00800           0   0.00000       0.00000    
     28574 TIP3     474      SWM4     OH2      ODW       1.71640       15.5994           0 -0.978253       1.30000    
     28575 TIP3     474      SWM4     DOH2     DOH2     -1.71640      0.400000           0   0.00000       0.00000    
     28576 TIP3     474      SWM4     OM       LPDW     -1.11466       0.00000          -1   0.00000       0.00000    
     28577 TIP3     474      SWM4     H1       HDW      0.557330       1.00800           0   0.00000       0.00000    
     28578 TIP3     474      SWM4     H2       HDW      0.557330       1.00800           0   0.00000       0.00000    
     28579 TIP3     475      SWM4     OH2      ODW       1.71640       15.5994           0 -0.978253       1.30000    
     28580 TIP3     475      SWM4     DOH2     DOH2     -1.71640      0.400000           0   0.00000       0.00000    
     28581 TIP3     475      SWM4     OM       LPDW     -1.11466       0.00000          -1   0.00000       0.00000    
     28582 TIP3     475      SWM4     H1       HDW      0.557330       1.00800           0   0.00000       0.00000    
     28583 TIP3     475      SWM4     H2       HDW      0.557330       1.00800           0   0.00000       0.00000    
     28584 TIP3     476      SWM4     OH2      ODW       1.71640       15.5994           0 -0.978253       1.30000    
     28585 TIP3     476      SWM4     DOH2     DOH2     -1.71640      0.400000           0   0.00000       0.00000    
     28586 TIP3     476      SWM4     OM       LPDW     -1.11466       0.00000          -1   0.00000       0.00000    
     28587 TIP3     476      SWM4     H1       HDW      0.557330       1.00800           0   0.00000       0.00000    
     28588 TIP3     476      SWM4     H2       HDW      0.557330       1.00800           0   0.00000       0.00000    
     28589 TIP3     477      SWM4     OH2      ODW       1.71640       15.5994           0 -0.978253       1.30000    
     28590 TIP3     477      SWM4     DOH2     DOH2     -1.71640      0.400000           0   0.00000       0.00000    
     28591 TIP3     477      SWM4     OM       LPDW     -1.11466       0.00000          -1   0.00000       0.00000    
     28592 TIP3     477      SWM4     H1       HDW      0.557330       1.00800           0   0.00000       0.00000    
     28593 TIP3     477      SWM4     H2       HDW      0.557330       1.00800           0   0.00000       0.00000    
     28594 TIP3     478      SWM4     OH2      ODW       1.71640       15.5994           0 -0.978253       1.30000    
     28595 TIP3     478      SWM4     DOH2     DOH2     -1.71640      0.400000           0   0.00000       0.00000    
     28596 TIP3     478      SWM4     OM       LPDW     -1.11466       0.00000          -1   0.00000       0.00000    
     28597 TIP3     478      SWM4     H1       HDW      0.557330       1.00800           0   0.00000       0.00000    
     28598 TIP3     478      SWM4     H2       HDW      0.557330       1.00800           0   0.00000       0.00000    
     28599 TIP3     479      SWM4     OH2      ODW       1.71640       15.5994           0 -0.978253       1.30000    
     28600 TIP3     479      SWM4     DOH2     DOH2     -1.71640      0.400000           0   0.00000       0.00000    
     28601 TIP3     479      SWM4     OM       LPDW     -1.11466       0.00000          -1   0.00000       0.00000    
     28602 TIP3     479      SWM4     H1       HDW      0.557330       1.00800           0   0.00000       0.00000    
     28603 TIP3     479      SWM4     H2       HDW      0.557330       1.00800           0   0.00000       0.00000    
     28604 TIP3     480      SWM4     OH2      ODW       1.71640       15.5994           0 -0.978253       1.30000    
     28605 TIP3     480      SWM4     DOH2     DOH2     -1.71640      0.400000           0   0.00000       0.00000    
     28606 TIP3     480      SWM4     OM       LPDW     -1.11466       0.00000          -1   0.00000       0.00000    
     28607 TIP3     480      SWM4     H1       HDW      0.557330       1.00800           0   0.00000       0.00000    
     28608 TIP3     480      SWM4     H2       HDW      0.557330       1.00800           0   0.00000       0.00000    
     28609 TIP3     481      SWM4     OH2      ODW       1.71640       15.5994           0 -0.978253       1.30000    
     28610 TIP3     481      SWM4     DOH2     DOH2     -1.71640      0.400000           0   0.00000       0.00000    
     28611 TIP3     481      SWM4     OM       LPDW     -1.11466       0.00000          -1   0.00000       0.00000    
     28612 TIP3     481      SWM4     H1       HDW      0.557330       1.00800           0   0.00000       0.00000    
     28613 TIP3     481      SWM4     H2       HDW      0.557330       1.00800           0   0.00000       0.00000    
     28614 TIP3     482      SWM4     OH2      ODW       1.71640       15.5994           0 -0.978253       1.30000    
     28615 TIP3     482      SWM4     DOH2     DOH2     -1.71640      0.400000           0   0.00000       0.00000    
     28616 TIP3     482      SWM4     OM       LPDW     -1.11466       0.00000          -1   0.00000       0.00000    
     28617 TIP3     482      SWM4     H1       HDW      0.557330       1.00800           0   0.00000       0.00000    
     28618 TIP3     482      SWM4     H2       HDW      0.557330       1.00800           0   0.00000       0.00000    
     28619 TIP3     483      SWM4     OH2      ODW       1.71640       15.5994           0 -0.978253       1.30000    
     28620 TIP3     483      SWM4     DOH2     DOH2     -1.71640      0.400000           0   0.00000       0.00000    
     28621 TIP3     483      SWM4     OM       LPDW     -1.11466       0.00000          -1   0.00000       0.00000    
     28622 TIP3     483      SWM4     H1       HDW      0.557330       1.00800           0   0.00000       0.00000    
     28623 TIP3     483      SWM4     H2       HDW      0.557330       1.00800           0   0.00000       0.00000    
     28624 TIP3     484      SWM4     OH2      ODW       1.71640       15.5994           0 -0.978253       1.30000    
     28625 TIP3     484      SWM4     DOH2     DOH2     -1.71640      0.400000           0   0.00000       0.00000    
     28626 TIP3     484      SWM4     OM       LPDW     -1.11466       0.00000          -1   0.00000       0.00000    
     28627 TIP3     484      SWM4     H1       HDW      0.557330       1.00800           0   0.00000       0.00000    
     28628 TIP3     484      SWM4     H2       HDW      0.557330       1.00800           0   0.00000       0.00000    
     28629 TIP3     485      SWM4     OH2      ODW       1.71640       15.5994           0 -0.978253       1.30000    
     28630 TIP3     485      SWM4     DOH2     DOH2     -1.71640      0.400000           0   0.00000       0.00000    
     28631 TIP3     485      SWM4     OM       LPDW     -1.11466       0.00000          -1   0.00000       0.00000    
     28632 TIP3     485      SWM4     H1       HDW      0.557330       1.00800           0   0.00000       0.00000    
     28633 TIP3     485      SWM4     H2       HDW      0.557330       1.00800           0   0.00000       0.00000    
     28634 TIP3     486      SWM4     OH2      ODW       1.71640       15.5994           0 -0.978253       1.30000    
     28635 TIP3     486      SWM4     DOH2     DOH2     -1.71640      0.400000           0   0.00000       0.00000    
     28636 TIP3     486      SWM4     OM       LPDW     -1.11466       0.00000          -1   0.00000       0.00000    
     28637 TIP3     486      SWM4     H1       HDW      0.557330       1.00800           0   0.00000       0.00000    
     28638 TIP3     486      SWM4     H2       HDW      0.557330       1.00800           0   0.00000       0.00000    
     28639 TIP3     487      SWM4     OH2      ODW       1.71640       15.5994           0 -0.978253       1.30000    
     28640 TIP3     487      SWM4     DOH2     DOH2     -1.71640      0.400000           0   0.00000       0.00000    
     28641 TIP3     487      SWM4     OM       LPDW     -1.11466       0.00000          -1   0.00000       0.00000    
     28642 TIP3     487      SWM4     H1       HDW      0.557330       1.00800           0   0.00000       0.00000    
     28643 TIP3     487      SWM4     H2       HDW      0.557330       1.00800           0   0.00000       0.00000    
     28644 TIP3     488      SWM4     OH2      ODW       1.71640       15.5994           0 -0.978253       1.30000    
     28645 TIP3     488      SWM4     DOH2     DOH2     -1.71640      0.400000           0   0.00000       0.00000    
     28646 TIP3     488      SWM4     OM       LPDW     -1.11466       0.00000          -1   0.00000       0.00000    
     28647 TIP3     488      SWM4     H1       HDW      0.557330       1.00800           0   0.00000       0.00000    
     28648 TIP3     488      SWM4     H2       HDW      0.557330       1.00800           0   0.00000       0.00000    
     28649 TIP3     489      SWM4     OH2      ODW       1.71640       15.5994           0 -0.978253       1.30000    
     28650 TIP3     489      SWM4     DOH2     DOH2     -1.71640      0.400000           0   0.00000       0.00000    
     28651 TIP3     489      SWM4     OM       LPDW     -1.11466       0.00000          -1   0.00000       0.00000    
     28652 TIP3     489      SWM4     H1       HDW      0.557330       1.00800           0   0.00000       0.00000    
     28653 TIP3     489      SWM4     H2       HDW      0.557330       1.00800           0   0.00000       0.00000    
     28654 TIP3     490      SWM4     OH2      ODW       1.71640       15.5994           0 -0.978253       1.30000    
     28655 TIP3     490      SWM4     DOH2     DOH2     -1.71640      0.400000           0   0.00000       0.00000    
     28656 TIP3     490      SWM4     OM       LPDW     -1.11466       0.00000          -1   0.00000       0.00000    
     28657 TIP3     490      SWM4     H1       HDW      0.557330       1.00800           0   0.00000       0.00000    
     28658 TIP3     490      SWM4     H2       HDW      0.557330       1.00800           0   0.00000       0.00000    
     28659 TIP3     491      SWM4     OH2      ODW       1.71640       15.5994           0 -0.978253       1.30000    
     28660 TIP3     491      SWM4     DOH2     DOH2     -1.71640      0.400000           0   0.00000       0.00000    
     28661 TIP3     491      SWM4     OM       LPDW     -1.11466       0.00000          -1   0.00000       0.00000    
     28662 TIP3     491      SWM4     H1       HDW      0.557330       1.00800           0   0.00000       0.00000    
     28663 TIP3     491      SWM4     H2       HDW      0.557330       1.00800           0   0.00000       0.00000    
     28664 TIP3     492      SWM4     OH2      ODW       1.71640       15.5994           0 -0.978253       1.30000    
     28665 TIP3     492      SWM4     DOH2     DOH2     -1.71640      0.400000           0   0.00000       0.00000    
     28666 TIP3     492      SWM4     OM       LPDW     -1.11466       0.00000          -1   0.00000       0.00000    
     28667 TIP3     492      SWM4     H1       HDW      0.557330       1.00800           0   0.00000       0.00000    
     28668 TIP3     492      SWM4     H2       HDW      0.557330       1.00800           0   0.00000       0.00000    
     28669 TIP3     493      SWM4     OH2      ODW       1.71640       15.5994           0 -0.978253       1.30000    
     28670 TIP3     493      SWM4     DOH2     DOH2     -1.71640      0.400000           0   0.00000       0.00000    
     28671 TIP3     493      SWM4     OM       LPDW     -1.11466       0.00000          -1   0.00000       0.00000    
     28672 TIP3     493      SWM4     H1       HDW      0.557330       1.00800           0   0.00000       0.00000    
     28673 TIP3     493      SWM4     H2       HDW      0.557330       1.00800           0   0.00000       0.00000    
     28674 TIP3     494      SWM4     OH2      ODW       1.71640       15.5994           0 -0.978253       1.30000    
     28675 TIP3     494      SWM4     DOH2     DOH2     -1.71640      0.400000           0   0.00000       0.00000    
     28676 TIP3     494      SWM4     OM       LPDW     -1.11466       0.00000          -1   0.00000       0.00000    
     28677 TIP3     494      SWM4     H1       HDW      0.557330       1.00800           0   0.00000       0.00000    
     28678 TIP3     494      SWM4     H2       HDW      0.557330       1.00800           0   0.00000       0.00000    
     28679 TIP3     495      SWM4     OH2      ODW       1.71640       15.5994           0 -0.978253       1.30000    
     28680 TIP3     495      SWM4     DOH2     DOH2     -1.71640      0.400000           0   0.00000       0.00000    
     28681 TIP3     495      SWM4     OM       LPDW     -1.11466       0.00000          -1   0.00000       0.00000    
     28682 TIP3     495      SWM4     H1       HDW      0.557330       1.00800           0   0.00000       0.00000    
     28683 TIP3     495      SWM4     H2       HDW      0.557330       1.00800           0   0.00000       0.00000    
     28684 TIP3     496      SWM4     OH2      ODW       1.71640       15.5994           0 -0.978253       1.30000    
     28685 TIP3     496      SWM4     DOH2     DOH2     -1.71640      0.400000           0   0.00000       0.00000    
     28686 TIP3     496      SWM4     OM       LPDW     -1.11466       0.00000          -1   0.00000       0.00000    
     28687 TIP3     496      SWM4     H1       HDW      0.557330       1.00800           0   0.00000       0.00000    
     28688 TIP3     496      SWM4     H2       HDW      0.557330       1.00800           0   0.00000       0.00000    
     28689 TIP3     497      SWM4     OH2      ODW       1.71640       15.5994           0 -0.978253       1.30000    
     28690 TIP3     497      SWM4     DOH2     DOH2     -1.71640      0.400000           0   0.00000       0.00000    
     28691 TIP3     497      SWM4     OM       LPDW     -1.11466       0.00000          -1   0.00000       0.00000    
     28692 TIP3     497      SWM4     H1       HDW      0.557330       1.00800           0   0.00000       0.00000    
     28693 TIP3     497      SWM4     H2       HDW      0.557330       1.00800           0   0.00000       0.00000    
     28694 TIP3     498      SWM4     OH2      ODW       1.71640       15.5994           0 -0.978253       1.30000    
     28695 TIP3     498      SWM4     DOH2     DOH2     -1.71640      0.400000           0   0.00000       0.00000    
     28696 TIP3     498      SWM4     OM       LPDW     -1.11466       0.00000          -1   0.00000       0.00000    
     28697 TIP3     498      SWM4     H1       HDW      0.557330       1.00800           0   0.00000       0.00000    
     28698 TIP3     498      SWM4     H2       HDW      0.557330       1.00800           0   0.00000       0.00000    
     28699 TIP3     499      SWM4     OH2      ODW       1.71640       15.5994           0 -0.978253       1.30000    
     28700 TIP3     499      SWM4     DOH2     DOH2     -1.71640      0.400000           0   0.00000       0.00000    
     28701 TIP3     499      SWM4     OM       LPDW     -1.11466       0.00000          -1   0.00000       0.00000    
     28702 TIP3     499      SWM4     H1       HDW      0.557330       1.00800           0   0.00000       0.00000    
     28703 TIP3     499      SWM4     H2       HDW      0.557330       1.00800           0   0.00000       0.00000    
     28704 TIP3     500      SWM4     OH2      ODW       1.71640       15.5994           0 -0.978253       1.30000    
     28705 TIP3     500      SWM4     DOH2     DOH2     -1.71640      0.400000           0   0.00000       0.00000    
     28706 TIP3     500      SWM4     OM       LPDW     -1.11466       0.00000          -1   0.00000       0.00000    
     28707 TIP3     500      SWM4     H1       HDW      0.557330       1.00800           0   0.00000       0.00000    
     28708 TIP3     500      SWM4     H2       HDW      0.557330       1.00800           0   0.00000       0.00000    
     28709 TIP3     501      SWM4     OH2      ODW       1.71640       15.5994           0 -0.978253       1.30000    
     28710 TIP3     501      SWM4     DOH2     DOH2     -1.71640      0.400000           0   0.00000       0.00000    
     28711 TIP3     501      SWM4     OM       LPDW     -1.11466       0.00000          -1   0.00000       0.00000    
     28712 TIP3     501      SWM4     H1       HDW      0.557330       1.00800           0   0.00000       0.00000    
     28713 TIP3     501      SWM4     H2       HDW      0.557330       1.00800           0   0.00000       0.00000    
     28714 TIP3     502      SWM4     OH2      ODW       1.71640       15.5994           0 -0.978253       1.30000    
     28715 TIP3     502      SWM4     DOH2     DOH2     -1.71640      0.400000           0   0.00000       0.00000    
     28716 TIP3     502      SWM4     OM       LPDW     -1.11466       0.00000          -1   0.00000       0.00000    
     28717 TIP3     502      SWM4     H1       HDW      0.557330       1.00800           0   0.00000       0.00000    
     28718 TIP3     502      SWM4     H2       HDW      0.557330       1.00800           0   0.00000       0.00000    
     28719 TIP3     503      SWM4     OH2      ODW       1.71640       15.5994           0 -0.978253       1.30000    
     28720 TIP3     503      SWM4     DOH2     DOH2     -1.71640      0.400000           0   0.00000       0.00000    
     28721 TIP3     503      SWM4     OM       LPDW     -1.11466       0.00000          -1   0.00000       0.00000    
     28722 TIP3     503      SWM4     H1       HDW      0.557330       1.00800           0   0.00000       0.00000    
     28723 TIP3     503      SWM4     H2       HDW      0.557330       1.00800           0   0.00000       0.00000    
     28724 TIP3     504      SWM4     OH2      ODW       1.71640       15.5994           0 -0.978253       1.30000    
     28725 TIP3     504      SWM4     DOH2     DOH2     -1.71640      0.400000           0   0.00000       0.00000    
     28726 TIP3     504      SWM4     OM       LPDW     -1.11466       0.00000          -1   0.00000       0.00000    
     28727 TIP3     504      SWM4     H1       HDW      0.557330       1.00800           0   0.00000       0.00000    
     28728 TIP3     504      SWM4     H2       HDW      0.557330       1.00800           0   0.00000       0.00000    
     28729 TIP3     505      SWM4     OH2      ODW       1.71640       15.5994           0 -0.978253       1.30000    
     28730 TIP3     505      SWM4     DOH2     DOH2     -1.71640      0.400000           0   0.00000       0.00000    
     28731 TIP3     505      SWM4     OM       LPDW     -1.11466       0.00000          -1   0.00000       0.00000    
     28732 TIP3     505      SWM4     H1       HDW      0.557330       1.00800           0   0.00000       0.00000    
     28733 TIP3     505      SWM4     H2       HDW      0.557330       1.00800           0   0.00000       0.00000    
     28734 TIP3     506      SWM4     OH2      ODW       1.71640       15.5994           0 -0.978253       1.30000    
     28735 TIP3     506      SWM4     DOH2     DOH2     -1.71640      0.400000           0   0.00000       0.00000    
     28736 TIP3     506      SWM4     OM       LPDW     -1.11466       0.00000          -1   0.00000       0.00000    
     28737 TIP3     506      SWM4     H1       HDW      0.557330       1.00800           0   0.00000       0.00000    
     28738 TIP3     506      SWM4     H2       HDW      0.557330       1.00800           0   0.00000       0.00000    
     28739 TIP3     507      SWM4     OH2      ODW       1.71640       15.5994           0 -0.978253       1.30000    
     28740 TIP3     507      SWM4     DOH2     DOH2     -1.71640      0.400000           0   0.00000       0.00000    
     28741 TIP3     507      SWM4     OM       LPDW     -1.11466       0.00000          -1   0.00000       0.00000    
     28742 TIP3     507      SWM4     H1       HDW      0.557330       1.00800           0   0.00000       0.00000    
     28743 TIP3     507      SWM4     H2       HDW      0.557330       1.00800           0   0.00000       0.00000    
     28744 TIP3     508      SWM4     OH2      ODW       1.71640       15.5994           0 -0.978253       1.30000    
     28745 TIP3     508      SWM4     DOH2     DOH2     -1.71640      0.400000           0   0.00000       0.00000    
     28746 TIP3     508      SWM4     OM       LPDW     -1.11466       0.00000          -1   0.00000       0.00000    
     28747 TIP3     508      SWM4     H1       HDW      0.557330       1.00800           0   0.00000       0.00000    
     28748 TIP3     508      SWM4     H2       HDW      0.557330       1.00800           0   0.00000       0.00000    
     28749 TIP3     509      SWM4     OH2      ODW       1.71640       15.5994           0 -0.978253       1.30000    
     28750 TIP3     509      SWM4     DOH2     DOH2     -1.71640      0.400000           0   0.00000       0.00000    
     28751 TIP3     509      SWM4     OM       LPDW     -1.11466       0.00000          -1   0.00000       0.00000    
     28752 TIP3     509      SWM4     H1       HDW      0.557330       1.00800           0   0.00000       0.00000    
     28753 TIP3     509      SWM4     H2       HDW      0.557330       1.00800           0   0.00000       0.00000    
     28754 TIP3     510      SWM4     OH2      ODW       1.71640       15.5994           0 -0.978253       1.30000    
     28755 TIP3     510      SWM4     DOH2     DOH2     -1.71640      0.400000           0   0.00000       0.00000    
     28756 TIP3     510      SWM4     OM       LPDW     -1.11466       0.00000          -1   0.00000       0.00000    
     28757 TIP3     510      SWM4     H1       HDW      0.557330       1.00800           0   0.00000       0.00000    
     28758 TIP3     510      SWM4     H2       HDW      0.557330       1.00800           0   0.00000       0.00000    
     28759 TIP3     511      SWM4     OH2      ODW       1.71640       15.5994           0 -0.978253       1.30000    
     28760 TIP3     511      SWM4     DOH2     DOH2     -1.71640      0.400000           0   0.00000       0.00000    
     28761 TIP3     511      SWM4     OM       LPDW     -1.11466       0.00000          -1   0.00000       0.00000    
     28762 TIP3     511      SWM4     H1       HDW      0.557330       1.00800           0   0.00000       0.00000    
     28763 TIP3     511      SWM4     H2       HDW      0.557330       1.00800           0   0.00000       0.00000    
     28764 TIP3     512      SWM4     OH2      ODW       1.71640       15.5994           0 -0.978253       1.30000    
     28765 TIP3     512      SWM4     DOH2     DOH2     -1.71640      0.400000           0   0.00000       0.00000    
     28766 TIP3     512      SWM4     OM       LPDW     -1.11466       0.00000          -1   0.00000       0.00000    
     28767 TIP3     512      SWM4     H1       HDW      0.557330       1.00800           0   0.00000       0.00000    
     28768 TIP3     512      SWM4     H2       HDW      0.557330       1.00800           0   0.00000       0.00000    
     28769 TIP3     513      SWM4     OH2      ODW       1.71640       15.5994           0 -0.978253       1.30000    
     28770 TIP3     513      SWM4     DOH2     DOH2     -1.71640      0.400000           0   0.00000       0.00000    
     28771 TIP3     513      SWM4     OM       LPDW     -1.11466       0.00000          -1   0.00000       0.00000    
     28772 TIP3     513      SWM4     H1       HDW      0.557330       1.00800           0   0.00000       0.00000    
     28773 TIP3     513      SWM4     H2       HDW      0.557330       1.00800           0   0.00000       0.00000    
     28774 TIP3     514      SWM4     OH2      ODW       1.71640       15.5994           0 -0.978253       1.30000    
     28775 TIP3     514      SWM4     DOH2     DOH2     -1.71640      0.400000           0   0.00000       0.00000    
     28776 TIP3     514      SWM4     OM       LPDW     -1.11466       0.00000          -1   0.00000       0.00000    
     28777 TIP3     514      SWM4     H1       HDW      0.557330       1.00800           0   0.00000       0.00000    
     28778 TIP3     514      SWM4     H2       HDW      0.557330       1.00800           0   0.00000       0.00000    
     28779 TIP3     515      SWM4     OH2      ODW       1.71640       15.5994           0 -0.978253       1.30000    
     28780 TIP3     515      SWM4     DOH2     DOH2     -1.71640      0.400000           0   0.00000       0.00000    
     28781 TIP3     515      SWM4     OM       LPDW     -1.11466       0.00000          -1   0.00000       0.00000    
     28782 TIP3     515      SWM4     H1       HDW      0.557330       1.00800           0   0.00000       0.00000    
     28783 TIP3     515      SWM4     H2       HDW      0.557330       1.00800           0   0.00000       0.00000    
     28784 TIP3     516      SWM4     OH2      ODW       1.71640       15.5994           0 -0.978253       1.30000    
     28785 TIP3     516      SWM4     DOH2     DOH2     -1.71640      0.400000           0   0.00000       0.00000    
     28786 TIP3     516      SWM4     OM       LPDW     -1.11466       0.00000          -1   0.00000       0.00000    
     28787 TIP3     516      SWM4     H1       HDW      0.557330       1.00800           0   0.00000       0.00000    
     28788 TIP3     516      SWM4     H2       HDW      0.557330       1.00800           0   0.00000       0.00000    
     28789 TIP3     517      SWM4     OH2      ODW       1.71640       15.5994           0 -0.978253       1.30000    
     28790 TIP3     517      SWM4     DOH2     DOH2     -1.71640      0.400000           0   0.00000       0.00000    
     28791 TIP3     517      SWM4     OM       LPDW     -1.11466       0.00000          -1   0.00000       0.00000    
     28792 TIP3     517      SWM4     H1       HDW      0.557330       1.00800           0   0.00000       0.00000    
     28793 TIP3     517      SWM4     H2       HDW      0.557330       1.00800           0   0.00000       0.00000    
     28794 TIP3     518      SWM4     OH2      ODW       1.71640       15.5994           0 -0.978253       1.30000    
     28795 TIP3     518      SWM4     DOH2     DOH2     -1.71640      0.400000           0   0.00000       0.00000    
     28796 TIP3     518      SWM4     OM       LPDW     -1.11466       0.00000          -1   0.00000       0.00000    
     28797 TIP3     518      SWM4     H1       HDW      0.557330       1.00800           0   0.00000       0.00000    
     28798 TIP3     518      SWM4     H2       HDW      0.557330       1.00800           0   0.00000       0.00000    
     28799 TIP3     519      SWM4     OH2      ODW       1.71640       15.5994           0 -0.978253       1.30000    
     28800 TIP3     519      SWM4     DOH2     DOH2     -1.71640      0.400000           0   0.00000       0.00000    
     28801 TIP3     519      SWM4     OM       LPDW     -1.11466       0.00000          -1   0.00000       0.00000    
     28802 TIP3     519      SWM4     H1       HDW      0.557330       1.00800           0   0.00000       0.00000    
     28803 TIP3     519      SWM4     H2       HDW      0.557330       1.00800           0   0.00000       0.00000    
     28804 TIP3     520      SWM4     OH2      ODW       1.71640       15.5994           0 -0.978253       1.30000    
     28805 TIP3     520      SWM4     DOH2     DOH2     -1.71640      0.400000           0   0.00000       0.00000    
     28806 TIP3     520      SWM4     OM       LPDW     -1.11466       0.00000          -1   0.00000       0.00000    
     28807 TIP3     520      SWM4     H1       HDW      0.557330       1.00800           0   0.00000       0.00000    
     28808 TIP3     520      SWM4     H2       HDW      0.557330       1.00800           0   0.00000       0.00000    
     28809 TIP3     521      SWM4     OH2      ODW       1.71640       15.5994           0 -0.978253       1.30000    
     28810 TIP3     521      SWM4     DOH2     DOH2     -1.71640      0.400000           0   0.00000       0.00000    
     28811 TIP3     521      SWM4     OM       LPDW     -1.11466       0.00000          -1   0.00000       0.00000    
     28812 TIP3     521      SWM4     H1       HDW      0.557330       1.00800           0   0.00000       0.00000    
     28813 TIP3     521      SWM4     H2       HDW      0.557330       1.00800           0   0.00000       0.00000    
     28814 TIP3     522      SWM4     OH2      ODW       1.71640       15.5994           0 -0.978253       1.30000    
     28815 TIP3     522      SWM4     DOH2     DOH2     -1.71640      0.400000           0   0.00000       0.00000    
     28816 TIP3     522      SWM4     OM       LPDW     -1.11466       0.00000          -1   0.00000       0.00000    
     28817 TIP3     522      SWM4     H1       HDW      0.557330       1.00800           0   0.00000       0.00000    
     28818 TIP3     522      SWM4     H2       HDW      0.557330       1.00800           0   0.00000       0.00000    
     28819 TIP3     523      SWM4     OH2      ODW       1.71640       15.5994           0 -0.978253       1.30000    
     28820 TIP3     523      SWM4     DOH2     DOH2     -1.71640      0.400000           0   0.00000       0.00000    
     28821 TIP3     523      SWM4     OM       LPDW     -1.11466       0.00000          -1   0.00000       0.00000    
     28822 TIP3     523      SWM4     H1       HDW      0.557330       1.00800           0   0.00000       0.00000    
     28823 TIP3     523      SWM4     H2       HDW      0.557330       1.00800           0   0.00000       0.00000    
     28824 TIP3     524      SWM4     OH2      ODW       1.71640       15.5994           0 -0.978253       1.30000    
     28825 TIP3     524      SWM4     DOH2     DOH2     -1.71640      0.400000           0   0.00000       0.00000    
     28826 TIP3     524      SWM4     OM       LPDW     -1.11466       0.00000          -1   0.00000       0.00000    
     28827 TIP3     524      SWM4     H1       HDW      0.557330       1.00800           0   0.00000       0.00000    
     28828 TIP3     524      SWM4     H2       HDW      0.557330       1.00800           0   0.00000       0.00000    
     28829 TIP3     525      SWM4     OH2      ODW       1.71640       15.5994           0 -0.978253       1.30000    
     28830 TIP3     525      SWM4     DOH2     DOH2     -1.71640      0.400000           0   0.00000       0.00000    
     28831 TIP3     525      SWM4     OM       LPDW     -1.11466       0.00000          -1   0.00000       0.00000    
     28832 TIP3     525      SWM4     H1       HDW      0.557330       1.00800           0   0.00000       0.00000    
     28833 TIP3     525      SWM4     H2       HDW      0.557330       1.00800           0   0.00000       0.00000    
     28834 TIP3     526      SWM4     OH2      ODW       1.71640       15.5994           0 -0.978253       1.30000    
     28835 TIP3     526      SWM4     DOH2     DOH2     -1.71640      0.400000           0   0.00000       0.00000    
     28836 TIP3     526      SWM4     OM       LPDW     -1.11466       0.00000          -1   0.00000       0.00000    
     28837 TIP3     526      SWM4     H1       HDW      0.557330       1.00800           0   0.00000       0.00000    
     28838 TIP3     526      SWM4     H2       HDW      0.557330       1.00800           0   0.00000       0.00000    
     28839 TIP3     527      SWM4     OH2      ODW       1.71640       15.5994           0 -0.978253       1.30000    
     28840 TIP3     527      SWM4     DOH2     DOH2     -1.71640      0.400000           0   0.00000       0.00000    
     28841 TIP3     527      SWM4     OM       LPDW     -1.11466       0.00000          -1   0.00000       0.00000    
     28842 TIP3     527      SWM4     H1       HDW      0.557330       1.00800           0   0.00000       0.00000    
     28843 TIP3     527      SWM4     H2       HDW      0.557330       1.00800           0   0.00000       0.00000    
     28844 TIP3     528      SWM4     OH2      ODW       1.71640       15.5994           0 -0.978253       1.30000    
     28845 TIP3     528      SWM4     DOH2     DOH2     -1.71640      0.400000           0   0.00000       0.00000    
     28846 TIP3     528      SWM4     OM       LPDW     -1.11466       0.00000          -1   0.00000       0.00000    
     28847 TIP3     528      SWM4     H1       HDW      0.557330       1.00800           0   0.00000       0.00000    
     28848 TIP3     528      SWM4     H2       HDW      0.557330       1.00800           0   0.00000       0.00000    
     28849 TIP3     529      SWM4     OH2      ODW       1.71640       15.5994           0 -0.978253       1.30000    
     28850 TIP3     529      SWM4     DOH2     DOH2     -1.71640      0.400000           0   0.00000       0.00000    
     28851 TIP3     529      SWM4     OM       LPDW     -1.11466       0.00000          -1   0.00000       0.00000    
     28852 TIP3     529      SWM4     H1       HDW      0.557330       1.00800           0   0.00000       0.00000    
     28853 TIP3     529      SWM4     H2       HDW      0.557330       1.00800           0   0.00000       0.00000    
     28854 TIP3     530      SWM4     OH2      ODW       1.71640       15.5994           0 -0.978253       1.30000    
     28855 TIP3     530      SWM4     DOH2     DOH2     -1.71640      0.400000           0   0.00000       0.00000    
     28856 TIP3     530      SWM4     OM       LPDW     -1.11466       0.00000          -1   0.00000       0.00000    
     28857 TIP3     530      SWM4     H1       HDW      0.557330       1.00800           0   0.00000       0.00000    
     28858 TIP3     530      SWM4     H2       HDW      0.557330       1.00800           0   0.00000       0.00000    
     28859 TIP3     531      SWM4     OH2      ODW       1.71640       15.5994           0 -0.978253       1.30000    
     28860 TIP3     531      SWM4     DOH2     DOH2     -1.71640      0.400000           0   0.00000       0.00000    
     28861 TIP3     531      SWM4     OM       LPDW     -1.11466       0.00000          -1   0.00000       0.00000    
     28862 TIP3     531      SWM4     H1       HDW      0.557330       1.00800           0   0.00000       0.00000    
     28863 TIP3     531      SWM4     H2       HDW      0.557330       1.00800           0   0.00000       0.00000    
     28864 TIP3     532      SWM4     OH2      ODW       1.71640       15.5994           0 -0.978253       1.30000    
     28865 TIP3     532      SWM4     DOH2     DOH2     -1.71640      0.400000           0   0.00000       0.00000    
     28866 TIP3     532      SWM4     OM       LPDW     -1.11466       0.00000          -1   0.00000       0.00000    
     28867 TIP3     532      SWM4     H1       HDW      0.557330       1.00800           0   0.00000       0.00000    
     28868 TIP3     532      SWM4     H2       HDW      0.557330       1.00800           0   0.00000       0.00000    
     28869 TIP3     533      SWM4     OH2      ODW       1.71640       15.5994           0 -0.978253       1.30000    
     28870 TIP3     533      SWM4     DOH2     DOH2     -1.71640      0.400000           0   0.00000       0.00000    
     28871 TIP3     533      SWM4     OM       LPDW     -1.11466       0.00000          -1   0.00000       0.00000    
     28872 TIP3     533      SWM4     H1       HDW      0.557330       1.00800           0   0.00000       0.00000    
     28873 TIP3     533      SWM4     H2       HDW      0.557330       1.00800           0   0.00000       0.00000    
     28874 TIP3     534      SWM4     OH2      ODW       1.71640       15.5994           0 -0.978253       1.30000    
     28875 TIP3     534      SWM4     DOH2     DOH2     -1.71640      0.400000           0   0.00000       0.00000    
     28876 TIP3     534      SWM4     OM       LPDW     -1.11466       0.00000          -1   0.00000       0.00000    
     28877 TIP3     534      SWM4     H1       HDW      0.557330       1.00800           0   0.00000       0.00000    
     28878 TIP3     534      SWM4     H2       HDW      0.557330       1.00800           0   0.00000       0.00000    
     28879 TIP3     535      SWM4     OH2      ODW       1.71640       15.5994           0 -0.978253       1.30000    
     28880 TIP3     535      SWM4     DOH2     DOH2     -1.71640      0.400000           0   0.00000       0.00000    
     28881 TIP3     535      SWM4     OM       LPDW     -1.11466       0.00000          -1   0.00000       0.00000    
     28882 TIP3     535      SWM4     H1       HDW      0.557330       1.00800           0   0.00000       0.00000    
     28883 TIP3     535      SWM4     H2       HDW      0.557330       1.00800           0   0.00000       0.00000    
     28884 TIP3     536      SWM4     OH2      ODW       1.71640       15.5994           0 -0.978253       1.30000    
     28885 TIP3     536      SWM4     DOH2     DOH2     -1.71640      0.400000           0   0.00000       0.00000    
     28886 TIP3     536      SWM4     OM       LPDW     -1.11466       0.00000          -1   0.00000       0.00000    
     28887 TIP3     536      SWM4     H1       HDW      0.557330       1.00800           0   0.00000       0.00000    
     28888 TIP3     536      SWM4     H2       HDW      0.557330       1.00800           0   0.00000       0.00000    
     28889 TIP3     537      SWM4     OH2      ODW       1.71640       15.5994           0 -0.978253       1.30000    
     28890 TIP3     537      SWM4     DOH2     DOH2     -1.71640      0.400000           0   0.00000       0.00000    
     28891 TIP3     537      SWM4     OM       LPDW     -1.11466       0.00000          -1   0.00000       0.00000    
     28892 TIP3     537      SWM4     H1       HDW      0.557330       1.00800           0   0.00000       0.00000    
     28893 TIP3     537      SWM4     H2       HDW      0.557330       1.00800           0   0.00000       0.00000    
     28894 TIP3     538      SWM4     OH2      ODW       1.71640       15.5994           0 -0.978253       1.30000    
     28895 TIP3     538      SWM4     DOH2     DOH2     -1.71640      0.400000           0   0.00000       0.00000    
     28896 TIP3     538      SWM4     OM       LPDW     -1.11466       0.00000          -1   0.00000       0.00000    
     28897 TIP3     538      SWM4     H1       HDW      0.557330       1.00800           0   0.00000       0.00000    
     28898 TIP3     538      SWM4     H2       HDW      0.557330       1.00800           0   0.00000       0.00000    
     28899 TIP3     539      SWM4     OH2      ODW       1.71640       15.5994           0 -0.978253       1.30000    
     28900 TIP3     539      SWM4     DOH2     DOH2     -1.71640      0.400000           0   0.00000       0.00000    
     28901 TIP3     539      SWM4     OM       LPDW     -1.11466       0.00000          -1   0.00000       0.00000    
     28902 TIP3     539      SWM4     H1       HDW      0.557330       1.00800           0   0.00000       0.00000    
     28903 TIP3     539      SWM4     H2       HDW      0.557330       1.00800           0   0.00000       0.00000    
     28904 TIP3     540      SWM4     OH2      ODW       1.71640       15.5994           0 -0.978253       1.30000    
     28905 TIP3     540      SWM4     DOH2     DOH2     -1.71640      0.400000           0   0.00000       0.00000    
     28906 TIP3     540      SWM4     OM       LPDW     -1.11466       0.00000          -1   0.00000       0.00000    
     28907 TIP3     540      SWM4     H1       HDW      0.557330       1.00800           0   0.00000       0.00000    
     28908 TIP3     540      SWM4     H2       HDW      0.557330       1.00800           0   0.00000       0.00000    
     28909 TIP3     541      SWM4     OH2      ODW       1.71640       15.5994           0 -0.978253       1.30000    
     28910 TIP3     541      SWM4     DOH2     DOH2     -1.71640      0.400000           0   0.00000       0.00000    
     28911 TIP3     541      SWM4     OM       LPDW     -1.11466       0.00000          -1   0.00000       0.00000    
     28912 TIP3     541      SWM4     H1       HDW      0.557330       1.00800           0   0.00000       0.00000    
     28913 TIP3     541      SWM4     H2       HDW      0.557330       1.00800           0   0.00000       0.00000    
     28914 TIP3     542      SWM4     OH2      ODW       1.71640       15.5994           0 -0.978253       1.30000    
     28915 TIP3     542      SWM4     DOH2     DOH2     -1.71640      0.400000           0   0.00000       0.00000    
     28916 TIP3     542      SWM4     OM       LPDW     -1.11466       0.00000          -1   0.00000       0.00000    
     28917 TIP3     542      SWM4     H1       HDW      0.557330       1.00800           0   0.00000       0.00000    
     28918 TIP3     542      SWM4     H2       HDW      0.557330       1.00800           0   0.00000       0.00000    
     28919 TIP3     543      SWM4     OH2      ODW       1.71640       15.5994           0 -0.978253       1.30000    
     28920 TIP3     543      SWM4     DOH2     DOH2     -1.71640      0.400000           0   0.00000       0.00000    
     28921 TIP3     543      SWM4     OM       LPDW     -1.11466       0.00000          -1   0.00000       0.00000    
     28922 TIP3     543      SWM4     H1       HDW      0.557330       1.00800           0   0.00000       0.00000    
     28923 TIP3     543      SWM4     H2       HDW      0.557330       1.00800           0   0.00000       0.00000    
     28924 TIP3     544      SWM4     OH2      ODW       1.71640       15.5994           0 -0.978253       1.30000    
     28925 TIP3     544      SWM4     DOH2     DOH2     -1.71640      0.400000           0   0.00000       0.00000    
     28926 TIP3     544      SWM4     OM       LPDW     -1.11466       0.00000          -1   0.00000       0.00000    
     28927 TIP3     544      SWM4     H1       HDW      0.557330       1.00800           0   0.00000       0.00000    
     28928 TIP3     544      SWM4     H2       HDW      0.557330       1.00800           0   0.00000       0.00000    
     28929 TIP3     545      SWM4     OH2      ODW       1.71640       15.5994           0 -0.978253       1.30000    
     28930 TIP3     545      SWM4     DOH2     DOH2     -1.71640      0.400000           0   0.00000       0.00000    
     28931 TIP3     545      SWM4     OM       LPDW     -1.11466       0.00000          -1   0.00000       0.00000    
     28932 TIP3     545      SWM4     H1       HDW      0.557330       1.00800           0   0.00000       0.00000    
     28933 TIP3     545      SWM4     H2       HDW      0.557330       1.00800           0   0.00000       0.00000    
     28934 TIP3     546      SWM4     OH2      ODW       1.71640       15.5994           0 -0.978253       1.30000    
     28935 TIP3     546      SWM4     DOH2     DOH2     -1.71640      0.400000           0   0.00000       0.00000    
     28936 TIP3     546      SWM4     OM       LPDW     -1.11466       0.00000          -1   0.00000       0.00000    
     28937 TIP3     546      SWM4     H1       HDW      0.557330       1.00800           0   0.00000       0.00000    
     28938 TIP3     546      SWM4     H2       HDW      0.557330       1.00800           0   0.00000       0.00000    
     28939 TIP3     547      SWM4     OH2      ODW       1.71640       15.5994           0 -0.978253       1.30000    
     28940 TIP3     547      SWM4     DOH2     DOH2     -1.71640      0.400000           0   0.00000       0.00000    
     28941 TIP3     547      SWM4     OM       LPDW     -1.11466       0.00000          -1   0.00000       0.00000    
     28942 TIP3     547      SWM4     H1       HDW      0.557330       1.00800           0   0.00000       0.00000    
     28943 TIP3     547      SWM4     H2       HDW      0.557330       1.00800           0   0.00000       0.00000    
     28944 TIP3     548      SWM4     OH2      ODW       1.71640       15.5994           0 -0.978253       1.30000    
     28945 TIP3     548      SWM4     DOH2     DOH2     -1.71640      0.400000           0   0.00000       0.00000    
     28946 TIP3     548      SWM4     OM       LPDW     -1.11466       0.00000          -1   0.00000       0.00000    
     28947 TIP3     548      SWM4     H1       HDW      0.557330       1.00800           0   0.00000       0.00000    
     28948 TIP3     548      SWM4     H2       HDW      0.557330       1.00800           0   0.00000       0.00000    
     28949 TIP3     549      SWM4     OH2      ODW       1.71640       15.5994           0 -0.978253       1.30000    
     28950 TIP3     549      SWM4     DOH2     DOH2     -1.71640      0.400000           0   0.00000       0.00000    
     28951 TIP3     549      SWM4     OM       LPDW     -1.11466       0.00000          -1   0.00000       0.00000    
     28952 TIP3     549      SWM4     H1       HDW      0.557330       1.00800           0   0.00000       0.00000    
     28953 TIP3     549      SWM4     H2       HDW      0.557330       1.00800           0   0.00000       0.00000    
     28954 TIP3     550      SWM4     OH2      ODW       1.71640       15.5994           0 -0.978253       1.30000    
     28955 TIP3     550      SWM4     DOH2     DOH2     -1.71640      0.400000           0   0.00000       0.00000    
     28956 TIP3     550      SWM4     OM       LPDW     -1.11466       0.00000          -1   0.00000       0.00000    
     28957 TIP3     550      SWM4     H1       HDW      0.557330       1.00800           0   0.00000       0.00000    
     28958 TIP3     550      SWM4     H2       HDW      0.557330       1.00800           0   0.00000       0.00000    
     28959 TIP3     551      SWM4     OH2      ODW       1.71640       15.5994           0 -0.978253       1.30000    
     28960 TIP3     551      SWM4     DOH2     DOH2     -1.71640      0.400000           0   0.00000       0.00000    
     28961 TIP3     551      SWM4     OM       LPDW     -1.11466       0.00000          -1   0.00000       0.00000    
     28962 TIP3     551      SWM4     H1       HDW      0.557330       1.00800           0   0.00000       0.00000    
     28963 TIP3     551      SWM4     H2       HDW      0.557330       1.00800           0   0.00000       0.00000    
     28964 TIP3     552      SWM4     OH2      ODW       1.71640       15.5994           0 -0.978253       1.30000    
     28965 TIP3     552      SWM4     DOH2     DOH2     -1.71640      0.400000           0   0.00000       0.00000    
     28966 TIP3     552      SWM4     OM       LPDW     -1.11466       0.00000          -1   0.00000       0.00000    
     28967 TIP3     552      SWM4     H1       HDW      0.557330       1.00800           0   0.00000       0.00000    
     28968 TIP3     552      SWM4     H2       HDW      0.557330       1.00800           0   0.00000       0.00000    
     28969 TIP3     553      SWM4     OH2      ODW       1.71640       15.5994           0 -0.978253       1.30000    
     28970 TIP3     553      SWM4     DOH2     DOH2     -1.71640      0.400000           0   0.00000       0.00000    
     28971 TIP3     553      SWM4     OM       LPDW     -1.11466       0.00000          -1   0.00000       0.00000    
     28972 TIP3     553      SWM4     H1       HDW      0.557330       1.00800           0   0.00000       0.00000    
     28973 TIP3     553      SWM4     H2       HDW      0.557330       1.00800           0   0.00000       0.00000    
     28974 TIP3     554      SWM4     OH2      ODW       1.71640       15.5994           0 -0.978253       1.30000    
     28975 TIP3     554      SWM4     DOH2     DOH2     -1.71640      0.400000           0   0.00000       0.00000    
     28976 TIP3     554      SWM4     OM       LPDW     -1.11466       0.00000          -1   0.00000       0.00000    
     28977 TIP3     554      SWM4     H1       HDW      0.557330       1.00800           0   0.00000       0.00000    
     28978 TIP3     554      SWM4     H2       HDW      0.557330       1.00800           0   0.00000       0.00000    
     28979 TIP3     555      SWM4     OH2      ODW       1.71640       15.5994           0 -0.978253       1.30000    
     28980 TIP3     555      SWM4     DOH2     DOH2     -1.71640      0.400000           0   0.00000       0.00000    
     28981 TIP3     555      SWM4     OM       LPDW     -1.11466       0.00000          -1   0.00000       0.00000    
     28982 TIP3     555      SWM4     H1       HDW      0.557330       1.00800           0   0.00000       0.00000    
     28983 TIP3     555      SWM4     H2       HDW      0.557330       1.00800           0   0.00000       0.00000    
     28984 TIP3     556      SWM4     OH2      ODW       1.71640       15.5994           0 -0.978253       1.30000    
     28985 TIP3     556      SWM4     DOH2     DOH2     -1.71640      0.400000           0   0.00000       0.00000    
     28986 TIP3     556      SWM4     OM       LPDW     -1.11466       0.00000          -1   0.00000       0.00000    
     28987 TIP3     556      SWM4     H1       HDW      0.557330       1.00800           0   0.00000       0.00000    
     28988 TIP3     556      SWM4     H2       HDW      0.557330       1.00800           0   0.00000       0.00000    
     28989 TIP3     557      SWM4     OH2      ODW       1.71640       15.5994           0 -0.978253       1.30000    
     28990 TIP3     557      SWM4     DOH2     DOH2     -1.71640      0.400000           0   0.00000       0.00000    
     28991 TIP3     557      SWM4     OM       LPDW     -1.11466       0.00000          -1   0.00000       0.00000    
     28992 TIP3     557      SWM4     H1       HDW      0.557330       1.00800           0   0.00000       0.00000    
     28993 TIP3     557      SWM4     H2       HDW      0.557330       1.00800           0   0.00000       0.00000    
     28994 TIP3     558      SWM4     OH2      ODW       1.71640       15.5994           0 -0.978253       1.30000    
     28995 TIP3     558      SWM4     DOH2     DOH2     -1.71640      0.400000           0   0.00000       0.00000    
     28996 TIP3     558      SWM4     OM       LPDW     -1.11466       0.00000          -1   0.00000       0.00000    
     28997 TIP3     558      SWM4     H1       HDW      0.557330       1.00800           0   0.00000       0.00000    
     28998 TIP3     558      SWM4     H2       HDW      0.557330       1.00800           0   0.00000       0.00000    
     28999 TIP3     559      SWM4     OH2      ODW       1.71640       15.5994           0 -0.978253       1.30000    
     29000 TIP3     559      SWM4     DOH2     DOH2     -1.71640      0.400000           0   0.00000       0.00000    
     29001 TIP3     559      SWM4     OM       LPDW     -1.11466       0.00000          -1   0.00000       0.00000    
     29002 TIP3     559      SWM4     H1       HDW      0.557330       1.00800           0   0.00000       0.00000    
     29003 TIP3     559      SWM4     H2       HDW      0.557330       1.00800           0   0.00000       0.00000    
     29004 TIP3     560      SWM4     OH2      ODW       1.71640       15.5994           0 -0.978253       1.30000    
     29005 TIP3     560      SWM4     DOH2     DOH2     -1.71640      0.400000           0   0.00000       0.00000    
     29006 TIP3     560      SWM4     OM       LPDW     -1.11466       0.00000          -1   0.00000       0.00000    
     29007 TIP3     560      SWM4     H1       HDW      0.557330       1.00800           0   0.00000       0.00000    
     29008 TIP3     560      SWM4     H2       HDW      0.557330       1.00800           0   0.00000       0.00000    
     29009 TIP3     561      SWM4     OH2      ODW       1.71640       15.5994           0 -0.978253       1.30000    
     29010 TIP3     561      SWM4     DOH2     DOH2     -1.71640      0.400000           0   0.00000       0.00000    
     29011 TIP3     561      SWM4     OM       LPDW     -1.11466       0.00000          -1   0.00000       0.00000    
     29012 TIP3     561      SWM4     H1       HDW      0.557330       1.00800           0   0.00000       0.00000    
     29013 TIP3     561      SWM4     H2       HDW      0.557330       1.00800           0   0.00000       0.00000    
     29014 TIP3     562      SWM4     OH2      ODW       1.71640       15.5994           0 -0.978253       1.30000    
     29015 TIP3     562      SWM4     DOH2     DOH2     -1.71640      0.400000           0   0.00000       0.00000    
     29016 TIP3     562      SWM4     OM       LPDW     -1.11466       0.00000          -1   0.00000       0.00000    
     29017 TIP3     562      SWM4     H1       HDW      0.557330       1.00800           0   0.00000       0.00000    
     29018 TIP3     562      SWM4     H2       HDW      0.557330       1.00800           0   0.00000       0.00000    
     29019 TIP3     563      SWM4     OH2      ODW       1.71640       15.5994           0 -0.978253       1.30000    
     29020 TIP3     563      SWM4     DOH2     DOH2     -1.71640      0.400000           0   0.00000       0.00000    
     29021 TIP3     563      SWM4     OM       LPDW     -1.11466       0.00000          -1   0.00000       0.00000    
     29022 TIP3     563      SWM4     H1       HDW      0.557330       1.00800           0   0.00000       0.00000    
     29023 TIP3     563      SWM4     H2       HDW      0.557330       1.00800           0   0.00000       0.00000    
     29024 TIP3     564      SWM4     OH2      ODW       1.71640       15.5994           0 -0.978253       1.30000    
     29025 TIP3     564      SWM4     DOH2     DOH2     -1.71640      0.400000           0   0.00000       0.00000    
     29026 TIP3     564      SWM4     OM       LPDW     -1.11466       0.00000          -1   0.00000       0.00000    
     29027 TIP3     564      SWM4     H1       HDW      0.557330       1.00800           0   0.00000       0.00000    
     29028 TIP3     564      SWM4     H2       HDW      0.557330       1.00800           0   0.00000       0.00000    
     29029 TIP3     565      SWM4     OH2      ODW       1.71640       15.5994           0 -0.978253       1.30000    
     29030 TIP3     565      SWM4     DOH2     DOH2     -1.71640      0.400000           0   0.00000       0.00000    
     29031 TIP3     565      SWM4     OM       LPDW     -1.11466       0.00000          -1   0.00000       0.00000    
     29032 TIP3     565      SWM4     H1       HDW      0.557330       1.00800           0   0.00000       0.00000    
     29033 TIP3     565      SWM4     H2       HDW      0.557330       1.00800           0   0.00000       0.00000    
     29034 TIP3     566      SWM4     OH2      ODW       1.71640       15.5994           0 -0.978253       1.30000    
     29035 TIP3     566      SWM4     DOH2     DOH2     -1.71640      0.400000           0   0.00000       0.00000    
     29036 TIP3     566      SWM4     OM       LPDW     -1.11466       0.00000          -1   0.00000       0.00000    
     29037 TIP3     566      SWM4     H1       HDW      0.557330       1.00800           0   0.00000       0.00000    
     29038 TIP3     566      SWM4     H2       HDW      0.557330       1.00800           0   0.00000       0.00000    
     29039 TIP3     567      SWM4     OH2      ODW       1.71640       15.5994           0 -0.978253       1.30000    
     29040 TIP3     567      SWM4     DOH2     DOH2     -1.71640      0.400000           0   0.00000       0.00000    
     29041 TIP3     567      SWM4     OM       LPDW     -1.11466       0.00000          -1   0.00000       0.00000    
     29042 TIP3     567      SWM4     H1       HDW      0.557330       1.00800           0   0.00000       0.00000    
     29043 TIP3     567      SWM4     H2       HDW      0.557330       1.00800           0   0.00000       0.00000    
     29044 TIP3     568      SWM4     OH2      ODW       1.71640       15.5994           0 -0.978253       1.30000    
     29045 TIP3     568      SWM4     DOH2     DOH2     -1.71640      0.400000           0   0.00000       0.00000    
     29046 TIP3     568      SWM4     OM       LPDW     -1.11466       0.00000          -1   0.00000       0.00000    
     29047 TIP3     568      SWM4     H1       HDW      0.557330       1.00800           0   0.00000       0.00000    
     29048 TIP3     568      SWM4     H2       HDW      0.557330       1.00800           0   0.00000       0.00000    
     29049 TIP3     569      SWM4     OH2      ODW       1.71640       15.5994           0 -0.978253       1.30000    
     29050 TIP3     569      SWM4     DOH2     DOH2     -1.71640      0.400000           0   0.00000       0.00000    
     29051 TIP3     569      SWM4     OM       LPDW     -1.11466       0.00000          -1   0.00000       0.00000    
     29052 TIP3     569      SWM4     H1       HDW      0.557330       1.00800           0   0.00000       0.00000    
     29053 TIP3     569      SWM4     H2       HDW      0.557330       1.00800           0   0.00000       0.00000    
     29054 TIP3     570      SWM4     OH2      ODW       1.71640       15.5994           0 -0.978253       1.30000    
     29055 TIP3     570      SWM4     DOH2     DOH2     -1.71640      0.400000           0   0.00000       0.00000    
     29056 TIP3     570      SWM4     OM       LPDW     -1.11466       0.00000          -1   0.00000       0.00000    
     29057 TIP3     570      SWM4     H1       HDW      0.557330       1.00800           0   0.00000       0.00000    
     29058 TIP3     570      SWM4     H2       HDW      0.557330       1.00800           0   0.00000       0.00000    
     29059 TIP3     571      SWM4     OH2      ODW       1.71640       15.5994           0 -0.978253       1.30000    
     29060 TIP3     571      SWM4     DOH2     DOH2     -1.71640      0.400000           0   0.00000       0.00000    
     29061 TIP3     571      SWM4     OM       LPDW     -1.11466       0.00000          -1   0.00000       0.00000    
     29062 TIP3     571      SWM4     H1       HDW      0.557330       1.00800           0   0.00000       0.00000    
     29063 TIP3     571      SWM4     H2       HDW      0.557330       1.00800           0   0.00000       0.00000    
     29064 TIP3     572      SWM4     OH2      ODW       1.71640       15.5994           0 -0.978253       1.30000    
     29065 TIP3     572      SWM4     DOH2     DOH2     -1.71640      0.400000           0   0.00000       0.00000    
     29066 TIP3     572      SWM4     OM       LPDW     -1.11466       0.00000          -1   0.00000       0.00000    
     29067 TIP3     572      SWM4     H1       HDW      0.557330       1.00800           0   0.00000       0.00000    
     29068 TIP3     572      SWM4     H2       HDW      0.557330       1.00800           0   0.00000       0.00000    
     29069 TIP3     573      SWM4     OH2      ODW       1.71640       15.5994           0 -0.978253       1.30000    
     29070 TIP3     573      SWM4     DOH2     DOH2     -1.71640      0.400000           0   0.00000       0.00000    
     29071 TIP3     573      SWM4     OM       LPDW     -1.11466       0.00000          -1   0.00000       0.00000    
     29072 TIP3     573      SWM4     H1       HDW      0.557330       1.00800           0   0.00000       0.00000    
     29073 TIP3     573      SWM4     H2       HDW      0.557330       1.00800           0   0.00000       0.00000    
     29074 TIP3     574      SWM4     OH2      ODW       1.71640       15.5994           0 -0.978253       1.30000    
     29075 TIP3     574      SWM4     DOH2     DOH2     -1.71640      0.400000           0   0.00000       0.00000    
     29076 TIP3     574      SWM4     OM       LPDW     -1.11466       0.00000          -1   0.00000       0.00000    
     29077 TIP3     574      SWM4     H1       HDW      0.557330       1.00800           0   0.00000       0.00000    
     29078 TIP3     574      SWM4     H2       HDW      0.557330       1.00800           0   0.00000       0.00000    
     29079 TIP3     575      SWM4     OH2      ODW       1.71640       15.5994           0 -0.978253       1.30000    
     29080 TIP3     575      SWM4     DOH2     DOH2     -1.71640      0.400000           0   0.00000       0.00000    
     29081 TIP3     575      SWM4     OM       LPDW     -1.11466       0.00000          -1   0.00000       0.00000    
     29082 TIP3     575      SWM4     H1       HDW      0.557330       1.00800           0   0.00000       0.00000    
     29083 TIP3     575      SWM4     H2       HDW      0.557330       1.00800           0   0.00000       0.00000    
     29084 TIP3     576      SWM4     OH2      ODW       1.71640       15.5994           0 -0.978253       1.30000    
     29085 TIP3     576      SWM4     DOH2     DOH2     -1.71640      0.400000           0   0.00000       0.00000    
     29086 TIP3     576      SWM4     OM       LPDW     -1.11466       0.00000          -1   0.00000       0.00000    
     29087 TIP3     576      SWM4     H1       HDW      0.557330       1.00800           0   0.00000       0.00000    
     29088 TIP3     576      SWM4     H2       HDW      0.557330       1.00800           0   0.00000       0.00000    
     29089 TIP3     577      SWM4     OH2      ODW       1.71640       15.5994           0 -0.978253       1.30000    
     29090 TIP3     577      SWM4     DOH2     DOH2     -1.71640      0.400000           0   0.00000       0.00000    
     29091 TIP3     577      SWM4     OM       LPDW     -1.11466       0.00000          -1   0.00000       0.00000    
     29092 TIP3     577      SWM4     H1       HDW      0.557330       1.00800           0   0.00000       0.00000    
     29093 TIP3     577      SWM4     H2       HDW      0.557330       1.00800           0   0.00000       0.00000    
     29094 TIP3     578      SWM4     OH2      ODW       1.71640       15.5994           0 -0.978253       1.30000    
     29095 TIP3     578      SWM4     DOH2     DOH2     -1.71640      0.400000           0   0.00000       0.00000    
     29096 TIP3     578      SWM4     OM       LPDW     -1.11466       0.00000          -1   0.00000       0.00000    
     29097 TIP3     578      SWM4     H1       HDW      0.557330       1.00800           0   0.00000       0.00000    
     29098 TIP3     578      SWM4     H2       HDW      0.557330       1.00800           0   0.00000       0.00000    
     29099 TIP3     579      SWM4     OH2      ODW       1.71640       15.5994           0 -0.978253       1.30000    
     29100 TIP3     579      SWM4     DOH2     DOH2     -1.71640      0.400000           0   0.00000       0.00000    
     29101 TIP3     579      SWM4     OM       LPDW     -1.11466       0.00000          -1   0.00000       0.00000    
     29102 TIP3     579      SWM4     H1       HDW      0.557330       1.00800           0   0.00000       0.00000    
     29103 TIP3     579      SWM4     H2       HDW      0.557330       1.00800           0   0.00000       0.00000    
     29104 TIP3     580      SWM4     OH2      ODW       1.71640       15.5994           0 -0.978253       1.30000    
     29105 TIP3     580      SWM4     DOH2     DOH2     -1.71640      0.400000           0   0.00000       0.00000    
     29106 TIP3     580      SWM4     OM       LPDW     -1.11466       0.00000          -1   0.00000       0.00000    
     29107 TIP3     580      SWM4     H1       HDW      0.557330       1.00800           0   0.00000       0.00000    
     29108 TIP3     580      SWM4     H2       HDW      0.557330       1.00800           0   0.00000       0.00000    
     29109 TIP3     581      SWM4     OH2      ODW       1.71640       15.5994           0 -0.978253       1.30000    
     29110 TIP3     581      SWM4     DOH2     DOH2     -1.71640      0.400000           0   0.00000       0.00000    
     29111 TIP3     581      SWM4     OM       LPDW     -1.11466       0.00000          -1   0.00000       0.00000    
     29112 TIP3     581      SWM4     H1       HDW      0.557330       1.00800           0   0.00000       0.00000    
     29113 TIP3     581      SWM4     H2       HDW      0.557330       1.00800           0   0.00000       0.00000    
     29114 TIP3     582      SWM4     OH2      ODW       1.71640       15.5994           0 -0.978253       1.30000    
     29115 TIP3     582      SWM4     DOH2     DOH2     -1.71640      0.400000           0   0.00000       0.00000    
     29116 TIP3     582      SWM4     OM       LPDW     -1.11466       0.00000          -1   0.00000       0.00000    
     29117 TIP3     582      SWM4     H1       HDW      0.557330       1.00800           0   0.00000       0.00000    
     29118 TIP3     582      SWM4     H2       HDW      0.557330       1.00800           0   0.00000       0.00000    
     29119 TIP3     583      SWM4     OH2      ODW       1.71640       15.5994           0 -0.978253       1.30000    
     29120 TIP3     583      SWM4     DOH2     DOH2     -1.71640      0.400000           0   0.00000       0.00000    
     29121 TIP3     583      SWM4     OM       LPDW     -1.11466       0.00000          -1   0.00000       0.00000    
     29122 TIP3     583      SWM4     H1       HDW      0.557330       1.00800           0   0.00000       0.00000    
     29123 TIP3     583      SWM4     H2       HDW      0.557330       1.00800           0   0.00000       0.00000    
     29124 TIP3     584      SWM4     OH2      ODW       1.71640       15.5994           0 -0.978253       1.30000    
     29125 TIP3     584      SWM4     DOH2     DOH2     -1.71640      0.400000           0   0.00000       0.00000    
     29126 TIP3     584      SWM4     OM       LPDW     -1.11466       0.00000          -1   0.00000       0.00000    
     29127 TIP3     584      SWM4     H1       HDW      0.557330       1.00800           0   0.00000       0.00000    
     29128 TIP3     584      SWM4     H2       HDW      0.557330       1.00800           0   0.00000       0.00000    
     29129 TIP3     585      SWM4     OH2      ODW       1.71640       15.5994           0 -0.978253       1.30000    
     29130 TIP3     585      SWM4     DOH2     DOH2     -1.71640      0.400000           0   0.00000       0.00000    
     29131 TIP3     585      SWM4     OM       LPDW     -1.11466       0.00000          -1   0.00000       0.00000    
     29132 TIP3     585      SWM4     H1       HDW      0.557330       1.00800           0   0.00000       0.00000    
     29133 TIP3     585      SWM4     H2       HDW      0.557330       1.00800           0   0.00000       0.00000    
     29134 TIP3     586      SWM4     OH2      ODW       1.71640       15.5994           0 -0.978253       1.30000    
     29135 TIP3     586      SWM4     DOH2     DOH2     -1.71640      0.400000           0   0.00000       0.00000    
     29136 TIP3     586      SWM4     OM       LPDW     -1.11466       0.00000          -1   0.00000       0.00000    
     29137 TIP3     586      SWM4     H1       HDW      0.557330       1.00800           0   0.00000       0.00000    
     29138 TIP3     586      SWM4     H2       HDW      0.557330       1.00800           0   0.00000       0.00000    
     29139 TIP3     587      SWM4     OH2      ODW       1.71640       15.5994           0 -0.978253       1.30000    
     29140 TIP3     587      SWM4     DOH2     DOH2     -1.71640      0.400000           0   0.00000       0.00000    
     29141 TIP3     587      SWM4     OM       LPDW     -1.11466       0.00000          -1   0.00000       0.00000    
     29142 TIP3     587      SWM4     H1       HDW      0.557330       1.00800           0   0.00000       0.00000    
     29143 TIP3     587      SWM4     H2       HDW      0.557330       1.00800           0   0.00000       0.00000    
     29144 TIP3     588      SWM4     OH2      ODW       1.71640       15.5994           0 -0.978253       1.30000    
     29145 TIP3     588      SWM4     DOH2     DOH2     -1.71640      0.400000           0   0.00000       0.00000    
     29146 TIP3     588      SWM4     OM       LPDW     -1.11466       0.00000          -1   0.00000       0.00000    
     29147 TIP3     588      SWM4     H1       HDW      0.557330       1.00800           0   0.00000       0.00000    
     29148 TIP3     588      SWM4     H2       HDW      0.557330       1.00800           0   0.00000       0.00000    
     29149 TIP3     589      SWM4     OH2      ODW       1.71640       15.5994           0 -0.978253       1.30000    
     29150 TIP3     589      SWM4     DOH2     DOH2     -1.71640      0.400000           0   0.00000       0.00000    
     29151 TIP3     589      SWM4     OM       LPDW     -1.11466       0.00000          -1   0.00000       0.00000    
     29152 TIP3     589      SWM4     H1       HDW      0.557330       1.00800           0   0.00000       0.00000    
     29153 TIP3     589      SWM4     H2       HDW      0.557330       1.00800           0   0.00000       0.00000    
     29154 TIP3     590      SWM4     OH2      ODW       1.71640       15.5994           0 -0.978253       1.30000    
     29155 TIP3     590      SWM4     DOH2     DOH2     -1.71640      0.400000           0   0.00000       0.00000    
     29156 TIP3     590      SWM4     OM       LPDW     -1.11466       0.00000          -1   0.00000       0.00000    
     29157 TIP3     590      SWM4     H1       HDW      0.557330       1.00800           0   0.00000       0.00000    
     29158 TIP3     590      SWM4     H2       HDW      0.557330       1.00800           0   0.00000       0.00000    
     29159 TIP3     591      SWM4     OH2      ODW       1.71640       15.5994           0 -0.978253       1.30000    
     29160 TIP3     591      SWM4     DOH2     DOH2     -1.71640      0.400000           0   0.00000       0.00000    
     29161 TIP3     591      SWM4     OM       LPDW     -1.11466       0.00000          -1   0.00000       0.00000    
     29162 TIP3     591      SWM4     H1       HDW      0.557330       1.00800           0   0.00000       0.00000    
     29163 TIP3     591      SWM4     H2       HDW      0.557330       1.00800           0   0.00000       0.00000    
     29164 TIP3     592      SWM4     OH2      ODW       1.71640       15.5994           0 -0.978253       1.30000    
     29165 TIP3     592      SWM4     DOH2     DOH2     -1.71640      0.400000           0   0.00000       0.00000    
     29166 TIP3     592      SWM4     OM       LPDW     -1.11466       0.00000          -1   0.00000       0.00000    
     29167 TIP3     592      SWM4     H1       HDW      0.557330       1.00800           0   0.00000       0.00000    
     29168 TIP3     592      SWM4     H2       HDW      0.557330       1.00800           0   0.00000       0.00000    
     29169 TIP3     593      SWM4     OH2      ODW       1.71640       15.5994           0 -0.978253       1.30000    
     29170 TIP3     593      SWM4     DOH2     DOH2     -1.71640      0.400000           0   0.00000       0.00000    
     29171 TIP3     593      SWM4     OM       LPDW     -1.11466       0.00000          -1   0.00000       0.00000    
     29172 TIP3     593      SWM4     H1       HDW      0.557330       1.00800           0   0.00000       0.00000    
     29173 TIP3     593      SWM4     H2       HDW      0.557330       1.00800           0   0.00000       0.00000    
     29174 TIP3     594      SWM4     OH2      ODW       1.71640       15.5994           0 -0.978253       1.30000    
     29175 TIP3     594      SWM4     DOH2     DOH2     -1.71640      0.400000           0   0.00000       0.00000    
     29176 TIP3     594      SWM4     OM       LPDW     -1.11466       0.00000          -1   0.00000       0.00000    
     29177 TIP3     594      SWM4     H1       HDW      0.557330       1.00800           0   0.00000       0.00000    
     29178 TIP3     594      SWM4     H2       HDW      0.557330       1.00800           0   0.00000       0.00000    
     29179 TIP3     595      SWM4     OH2      ODW       1.71640       15.5994           0 -0.978253       1.30000    
     29180 TIP3     595      SWM4     DOH2     DOH2     -1.71640      0.400000           0   0.00000       0.00000    
     29181 TIP3     595      SWM4     OM       LPDW     -1.11466       0.00000          -1   0.00000       0.00000    
     29182 TIP3     595      SWM4     H1       HDW      0.557330       1.00800           0   0.00000       0.00000    
     29183 TIP3     595      SWM4     H2       HDW      0.557330       1.00800           0   0.00000       0.00000    
     29184 TIP3     596      SWM4     OH2      ODW       1.71640       15.5994           0 -0.978253       1.30000    
     29185 TIP3     596      SWM4     DOH2     DOH2     -1.71640      0.400000           0   0.00000       0.00000    
     29186 TIP3     596      SWM4     OM       LPDW     -1.11466       0.00000          -1   0.00000       0.00000    
     29187 TIP3     596      SWM4     H1       HDW      0.557330       1.00800           0   0.00000       0.00000    
     29188 TIP3     596      SWM4     H2       HDW      0.557330       1.00800           0   0.00000       0.00000    
     29189 TIP3     597      SWM4     OH2      ODW       1.71640       15.5994           0 -0.978253       1.30000    
     29190 TIP3     597      SWM4     DOH2     DOH2     -1.71640      0.400000           0   0.00000       0.00000    
     29191 TIP3     597      SWM4     OM       LPDW     -1.11466       0.00000          -1   0.00000       0.00000    
     29192 TIP3     597      SWM4     H1       HDW      0.557330       1.00800           0   0.00000       0.00000    
     29193 TIP3     597      SWM4     H2       HDW      0.557330       1.00800           0   0.00000       0.00000    
     29194 TIP3     598      SWM4     OH2      ODW       1.71640       15.5994           0 -0.978253       1.30000    
     29195 TIP3     598      SWM4     DOH2     DOH2     -1.71640      0.400000           0   0.00000       0.00000    
     29196 TIP3     598      SWM4     OM       LPDW     -1.11466       0.00000          -1   0.00000       0.00000    
     29197 TIP3     598      SWM4     H1       HDW      0.557330       1.00800           0   0.00000       0.00000    
     29198 TIP3     598      SWM4     H2       HDW      0.557330       1.00800           0   0.00000       0.00000    
     29199 TIP3     599      SWM4     OH2      ODW       1.71640       15.5994           0 -0.978253       1.30000    
     29200 TIP3     599      SWM4     DOH2     DOH2     -1.71640      0.400000           0   0.00000       0.00000    
     29201 TIP3     599      SWM4     OM       LPDW     -1.11466       0.00000          -1   0.00000       0.00000    
     29202 TIP3     599      SWM4     H1       HDW      0.557330       1.00800           0   0.00000       0.00000    
     29203 TIP3     599      SWM4     H2       HDW      0.557330       1.00800           0   0.00000       0.00000    
     29204 TIP3     600      SWM4     OH2      ODW       1.71640       15.5994           0 -0.978253       1.30000    
     29205 TIP3     600      SWM4     DOH2     DOH2     -1.71640      0.400000           0   0.00000       0.00000    
     29206 TIP3     600      SWM4     OM       LPDW     -1.11466       0.00000          -1   0.00000       0.00000    
     29207 TIP3     600      SWM4     H1       HDW      0.557330       1.00800           0   0.00000       0.00000    
     29208 TIP3     600      SWM4     H2       HDW      0.557330       1.00800           0   0.00000       0.00000    
     29209 TIP3     601      SWM4     OH2      ODW       1.71640       15.5994           0 -0.978253       1.30000    
     29210 TIP3     601      SWM4     DOH2     DOH2     -1.71640      0.400000           0   0.00000       0.00000    
     29211 TIP3     601      SWM4     OM       LPDW     -1.11466       0.00000          -1   0.00000       0.00000    
     29212 TIP3     601      SWM4     H1       HDW      0.557330       1.00800           0   0.00000       0.00000    
     29213 TIP3     601      SWM4     H2       HDW      0.557330       1.00800           0   0.00000       0.00000    
     29214 TIP3     602      SWM4     OH2      ODW       1.71640       15.5994           0 -0.978253       1.30000    
     29215 TIP3     602      SWM4     DOH2     DOH2     -1.71640      0.400000           0   0.00000       0.00000    
     29216 TIP3     602      SWM4     OM       LPDW     -1.11466       0.00000          -1   0.00000       0.00000    
     29217 TIP3     602      SWM4     H1       HDW      0.557330       1.00800           0   0.00000       0.00000    
     29218 TIP3     602      SWM4     H2       HDW      0.557330       1.00800           0   0.00000       0.00000    
     29219 TIP3     603      SWM4     OH2      ODW       1.71640       15.5994           0 -0.978253       1.30000    
     29220 TIP3     603      SWM4     DOH2     DOH2     -1.71640      0.400000           0   0.00000       0.00000    
     29221 TIP3     603      SWM4     OM       LPDW     -1.11466       0.00000          -1   0.00000       0.00000    
     29222 TIP3     603      SWM4     H1       HDW      0.557330       1.00800           0   0.00000       0.00000    
     29223 TIP3     603      SWM4     H2       HDW      0.557330       1.00800           0   0.00000       0.00000    
     29224 TIP3     604      SWM4     OH2      ODW       1.71640       15.5994           0 -0.978253       1.30000    
     29225 TIP3     604      SWM4     DOH2     DOH2     -1.71640      0.400000           0   0.00000       0.00000    
     29226 TIP3     604      SWM4     OM       LPDW     -1.11466       0.00000          -1   0.00000       0.00000    
     29227 TIP3     604      SWM4     H1       HDW      0.557330       1.00800           0   0.00000       0.00000    
     29228 TIP3     604      SWM4     H2       HDW      0.557330       1.00800           0   0.00000       0.00000    
     29229 TIP3     605      SWM4     OH2      ODW       1.71640       15.5994           0 -0.978253       1.30000    
     29230 TIP3     605      SWM4     DOH2     DOH2     -1.71640      0.400000           0   0.00000       0.00000    
     29231 TIP3     605      SWM4     OM       LPDW     -1.11466       0.00000          -1   0.00000       0.00000    
     29232 TIP3     605      SWM4     H1       HDW      0.557330       1.00800           0   0.00000       0.00000    
     29233 TIP3     605      SWM4     H2       HDW      0.557330       1.00800           0   0.00000       0.00000    
     29234 TIP3     606      SWM4     OH2      ODW       1.71640       15.5994           0 -0.978253       1.30000    
     29235 TIP3     606      SWM4     DOH2     DOH2     -1.71640      0.400000           0   0.00000       0.00000    
     29236 TIP3     606      SWM4     OM       LPDW     -1.11466       0.00000          -1   0.00000       0.00000    
     29237 TIP3     606      SWM4     H1       HDW      0.557330       1.00800           0   0.00000       0.00000    
     29238 TIP3     606      SWM4     H2       HDW      0.557330       1.00800           0   0.00000       0.00000    
     29239 TIP3     607      SWM4     OH2      ODW       1.71640       15.5994           0 -0.978253       1.30000    
     29240 TIP3     607      SWM4     DOH2     DOH2     -1.71640      0.400000           0   0.00000       0.00000    
     29241 TIP3     607      SWM4     OM       LPDW     -1.11466       0.00000          -1   0.00000       0.00000    
     29242 TIP3     607      SWM4     H1       HDW      0.557330       1.00800           0   0.00000       0.00000    
     29243 TIP3     607      SWM4     H2       HDW      0.557330       1.00800           0   0.00000       0.00000    
     29244 TIP3     608      SWM4     OH2      ODW       1.71640       15.5994           0 -0.978253       1.30000    
     29245 TIP3     608      SWM4     DOH2     DOH2     -1.71640      0.400000           0   0.00000       0.00000    
     29246 TIP3     608      SWM4     OM       LPDW     -1.11466       0.00000          -1   0.00000       0.00000    
     29247 TIP3     608      SWM4     H1       HDW      0.557330       1.00800           0   0.00000       0.00000    
     29248 TIP3     608      SWM4     H2       HDW      0.557330       1.00800           0   0.00000       0.00000    
     29249 TIP3     609      SWM4     OH2      ODW       1.71640       15.5994           0 -0.978253       1.30000    
     29250 TIP3     609      SWM4     DOH2     DOH2     -1.71640      0.400000           0   0.00000       0.00000    
     29251 TIP3     609      SWM4     OM       LPDW     -1.11466       0.00000          -1   0.00000       0.00000    
     29252 TIP3     609      SWM4     H1       HDW      0.557330       1.00800           0   0.00000       0.00000    
     29253 TIP3     609      SWM4     H2       HDW      0.557330       1.00800           0   0.00000       0.00000    
     29254 TIP3     610      SWM4     OH2      ODW       1.71640       15.5994           0 -0.978253       1.30000    
     29255 TIP3     610      SWM4     DOH2     DOH2     -1.71640      0.400000           0   0.00000       0.00000    
     29256 TIP3     610      SWM4     OM       LPDW     -1.11466       0.00000          -1   0.00000       0.00000    
     29257 TIP3     610      SWM4     H1       HDW      0.557330       1.00800           0   0.00000       0.00000    
     29258 TIP3     610      SWM4     H2       HDW      0.557330       1.00800           0   0.00000       0.00000    
     29259 TIP3     611      SWM4     OH2      ODW       1.71640       15.5994           0 -0.978253       1.30000    
     29260 TIP3     611      SWM4     DOH2     DOH2     -1.71640      0.400000           0   0.00000       0.00000    
     29261 TIP3     611      SWM4     OM       LPDW     -1.11466       0.00000          -1   0.00000       0.00000    
     29262 TIP3     611      SWM4     H1       HDW      0.557330       1.00800           0   0.00000       0.00000    
     29263 TIP3     611      SWM4     H2       HDW      0.557330       1.00800           0   0.00000       0.00000    
     29264 TIP3     612      SWM4     OH2      ODW       1.71640       15.5994           0 -0.978253       1.30000    
     29265 TIP3     612      SWM4     DOH2     DOH2     -1.71640      0.400000           0   0.00000       0.00000    
     29266 TIP3     612      SWM4     OM       LPDW     -1.11466       0.00000          -1   0.00000       0.00000    
     29267 TIP3     612      SWM4     H1       HDW      0.557330       1.00800           0   0.00000       0.00000    
     29268 TIP3     612      SWM4     H2       HDW      0.557330       1.00800           0   0.00000       0.00000    
     29269 TIP3     613      SWM4     OH2      ODW       1.71640       15.5994           0 -0.978253       1.30000    
     29270 TIP3     613      SWM4     DOH2     DOH2     -1.71640      0.400000           0   0.00000       0.00000    
     29271 TIP3     613      SWM4     OM       LPDW     -1.11466       0.00000          -1   0.00000       0.00000    
     29272 TIP3     613      SWM4     H1       HDW      0.557330       1.00800           0   0.00000       0.00000    
     29273 TIP3     613      SWM4     H2       HDW      0.557330       1.00800           0   0.00000       0.00000    
     29274 TIP3     614      SWM4     OH2      ODW       1.71640       15.5994           0 -0.978253       1.30000    
     29275 TIP3     614      SWM4     DOH2     DOH2     -1.71640      0.400000           0   0.00000       0.00000    
     29276 TIP3     614      SWM4     OM       LPDW     -1.11466       0.00000          -1   0.00000       0.00000    
     29277 TIP3     614      SWM4     H1       HDW      0.557330       1.00800           0   0.00000       0.00000    
     29278 TIP3     614      SWM4     H2       HDW      0.557330       1.00800           0   0.00000       0.00000    
     29279 TIP3     615      SWM4     OH2      ODW       1.71640       15.5994           0 -0.978253       1.30000    
     29280 TIP3     615      SWM4     DOH2     DOH2     -1.71640      0.400000           0   0.00000       0.00000    
     29281 TIP3     615      SWM4     OM       LPDW     -1.11466       0.00000          -1   0.00000       0.00000    
     29282 TIP3     615      SWM4     H1       HDW      0.557330       1.00800           0   0.00000       0.00000    
     29283 TIP3     615      SWM4     H2       HDW      0.557330       1.00800           0   0.00000       0.00000    
     29284 TIP3     616      SWM4     OH2      ODW       1.71640       15.5994           0 -0.978253       1.30000    
     29285 TIP3     616      SWM4     DOH2     DOH2     -1.71640      0.400000           0   0.00000       0.00000    
     29286 TIP3     616      SWM4     OM       LPDW     -1.11466       0.00000          -1   0.00000       0.00000    
     29287 TIP3     616      SWM4     H1       HDW      0.557330       1.00800           0   0.00000       0.00000    
     29288 TIP3     616      SWM4     H2       HDW      0.557330       1.00800           0   0.00000       0.00000    
     29289 TIP3     617      SWM4     OH2      ODW       1.71640       15.5994           0 -0.978253       1.30000    
     29290 TIP3     617      SWM4     DOH2     DOH2     -1.71640      0.400000           0   0.00000       0.00000    
     29291 TIP3     617      SWM4     OM       LPDW     -1.11466       0.00000          -1   0.00000       0.00000    
     29292 TIP3     617      SWM4     H1       HDW      0.557330       1.00800           0   0.00000       0.00000    
     29293 TIP3     617      SWM4     H2       HDW      0.557330       1.00800           0   0.00000       0.00000    
     29294 TIP3     618      SWM4     OH2      ODW       1.71640       15.5994           0 -0.978253       1.30000    
     29295 TIP3     618      SWM4     DOH2     DOH2     -1.71640      0.400000           0   0.00000       0.00000    
     29296 TIP3     618      SWM4     OM       LPDW     -1.11466       0.00000          -1   0.00000       0.00000    
     29297 TIP3     618      SWM4     H1       HDW      0.557330       1.00800           0   0.00000       0.00000    
     29298 TIP3     618      SWM4     H2       HDW      0.557330       1.00800           0   0.00000       0.00000    
     29299 TIP3     619      SWM4     OH2      ODW       1.71640       15.5994           0 -0.978253       1.30000    
     29300 TIP3     619      SWM4     DOH2     DOH2     -1.71640      0.400000           0   0.00000       0.00000    
     29301 TIP3     619      SWM4     OM       LPDW     -1.11466       0.00000          -1   0.00000       0.00000    
     29302 TIP3     619      SWM4     H1       HDW      0.557330       1.00800           0   0.00000       0.00000    
     29303 TIP3     619      SWM4     H2       HDW      0.557330       1.00800           0   0.00000       0.00000    
     29304 TIP3     620      SWM4     OH2      ODW       1.71640       15.5994           0 -0.978253       1.30000    
     29305 TIP3     620      SWM4     DOH2     DOH2     -1.71640      0.400000           0   0.00000       0.00000    
     29306 TIP3     620      SWM4     OM       LPDW     -1.11466       0.00000          -1   0.00000       0.00000    
     29307 TIP3     620      SWM4     H1       HDW      0.557330       1.00800           0   0.00000       0.00000    
     29308 TIP3     620      SWM4     H2       HDW      0.557330       1.00800           0   0.00000       0.00000    
     29309 TIP3     621      SWM4     OH2      ODW       1.71640       15.5994           0 -0.978253       1.30000    
     29310 TIP3     621      SWM4     DOH2     DOH2     -1.71640      0.400000           0   0.00000       0.00000    
     29311 TIP3     621      SWM4     OM       LPDW     -1.11466       0.00000          -1   0.00000       0.00000    
     29312 TIP3     621      SWM4     H1       HDW      0.557330       1.00800           0   0.00000       0.00000    
     29313 TIP3     621      SWM4     H2       HDW      0.557330       1.00800           0   0.00000       0.00000    
     29314 TIP3     622      SWM4     OH2      ODW       1.71640       15.5994           0 -0.978253       1.30000    
     29315 TIP3     622      SWM4     DOH2     DOH2     -1.71640      0.400000           0   0.00000       0.00000    
     29316 TIP3     622      SWM4     OM       LPDW     -1.11466       0.00000          -1   0.00000       0.00000    
     29317 TIP3     622      SWM4     H1       HDW      0.557330       1.00800           0   0.00000       0.00000    
     29318 TIP3     622      SWM4     H2       HDW      0.557330       1.00800           0   0.00000       0.00000    
     29319 TIP3     623      SWM4     OH2      ODW       1.71640       15.5994           0 -0.978253       1.30000    
     29320 TIP3     623      SWM4     DOH2     DOH2     -1.71640      0.400000           0   0.00000       0.00000    
     29321 TIP3     623      SWM4     OM       LPDW     -1.11466       0.00000          -1   0.00000       0.00000    
     29322 TIP3     623      SWM4     H1       HDW      0.557330       1.00800           0   0.00000       0.00000    
     29323 TIP3     623      SWM4     H2       HDW      0.557330       1.00800           0   0.00000       0.00000    
     29324 TIP3     624      SWM4     OH2      ODW       1.71640       15.5994           0 -0.978253       1.30000    
     29325 TIP3     624      SWM4     DOH2     DOH2     -1.71640      0.400000           0   0.00000       0.00000    
     29326 TIP3     624      SWM4     OM       LPDW     -1.11466       0.00000          -1   0.00000       0.00000    
     29327 TIP3     624      SWM4     H1       HDW      0.557330       1.00800           0   0.00000       0.00000    
     29328 TIP3     624      SWM4     H2       HDW      0.557330       1.00800           0   0.00000       0.00000    
     29329 TIP3     625      SWM4     OH2      ODW       1.71640       15.5994           0 -0.978253       1.30000    
     29330 TIP3     625      SWM4     DOH2     DOH2     -1.71640      0.400000           0   0.00000       0.00000    
     29331 TIP3     625      SWM4     OM       LPDW     -1.11466       0.00000          -1   0.00000       0.00000    
     29332 TIP3     625      SWM4     H1       HDW      0.557330       1.00800           0   0.00000       0.00000    
     29333 TIP3     625      SWM4     H2       HDW      0.557330       1.00800           0   0.00000       0.00000    
     29334 TIP3     626      SWM4     OH2      ODW       1.71640       15.5994           0 -0.978253       1.30000    
     29335 TIP3     626      SWM4     DOH2     DOH2     -1.71640      0.400000           0   0.00000       0.00000    
     29336 TIP3     626      SWM4     OM       LPDW     -1.11466       0.00000          -1   0.00000       0.00000    
     29337 TIP3     626      SWM4     H1       HDW      0.557330       1.00800           0   0.00000       0.00000    
     29338 TIP3     626      SWM4     H2       HDW      0.557330       1.00800           0   0.00000       0.00000    
     29339 TIP3     627      SWM4     OH2      ODW       1.71640       15.5994           0 -0.978253       1.30000    
     29340 TIP3     627      SWM4     DOH2     DOH2     -1.71640      0.400000           0   0.00000       0.00000    
     29341 TIP3     627      SWM4     OM       LPDW     -1.11466       0.00000          -1   0.00000       0.00000    
     29342 TIP3     627      SWM4     H1       HDW      0.557330       1.00800           0   0.00000       0.00000    
     29343 TIP3     627      SWM4     H2       HDW      0.557330       1.00800           0   0.00000       0.00000    
     29344 TIP3     628      SWM4     OH2      ODW       1.71640       15.5994           0 -0.978253       1.30000    
     29345 TIP3     628      SWM4     DOH2     DOH2     -1.71640      0.400000           0   0.00000       0.00000    
     29346 TIP3     628      SWM4     OM       LPDW     -1.11466       0.00000          -1   0.00000       0.00000    
     29347 TIP3     628      SWM4     H1       HDW      0.557330       1.00800           0   0.00000       0.00000    
     29348 TIP3     628      SWM4     H2       HDW      0.557330       1.00800           0   0.00000       0.00000    
     29349 TIP3     629      SWM4     OH2      ODW       1.71640       15.5994           0 -0.978253       1.30000    
     29350 TIP3     629      SWM4     DOH2     DOH2     -1.71640      0.400000           0   0.00000       0.00000    
     29351 TIP3     629      SWM4     OM       LPDW     -1.11466       0.00000          -1   0.00000       0.00000    
     29352 TIP3     629      SWM4     H1       HDW      0.557330       1.00800           0   0.00000       0.00000    
     29353 TIP3     629      SWM4     H2       HDW      0.557330       1.00800           0   0.00000       0.00000    
     29354 TIP3     630      SWM4     OH2      ODW       1.71640       15.5994           0 -0.978253       1.30000    
     29355 TIP3     630      SWM4     DOH2     DOH2     -1.71640      0.400000           0   0.00000       0.00000    
     29356 TIP3     630      SWM4     OM       LPDW     -1.11466       0.00000          -1   0.00000       0.00000    
     29357 TIP3     630      SWM4     H1       HDW      0.557330       1.00800           0   0.00000       0.00000    
     29358 TIP3     630      SWM4     H2       HDW      0.557330       1.00800           0   0.00000       0.00000    
     29359 TIP3     631      SWM4     OH2      ODW       1.71640       15.5994           0 -0.978253       1.30000    
     29360 TIP3     631      SWM4     DOH2     DOH2     -1.71640      0.400000           0   0.00000       0.00000    
     29361 TIP3     631      SWM4     OM       LPDW     -1.11466       0.00000          -1   0.00000       0.00000    
     29362 TIP3     631      SWM4     H1       HDW      0.557330       1.00800           0   0.00000       0.00000    
     29363 TIP3     631      SWM4     H2       HDW      0.557330       1.00800           0   0.00000       0.00000    
     29364 TIP3     632      SWM4     OH2      ODW       1.71640       15.5994           0 -0.978253       1.30000    
     29365 TIP3     632      SWM4     DOH2     DOH2     -1.71640      0.400000           0   0.00000       0.00000    
     29366 TIP3     632      SWM4     OM       LPDW     -1.11466       0.00000          -1   0.00000       0.00000    
     29367 TIP3     632      SWM4     H1       HDW      0.557330       1.00800           0   0.00000       0.00000    
     29368 TIP3     632      SWM4     H2       HDW      0.557330       1.00800           0   0.00000       0.00000    
     29369 TIP3     633      SWM4     OH2      ODW       1.71640       15.5994           0 -0.978253       1.30000    
     29370 TIP3     633      SWM4     DOH2     DOH2     -1.71640      0.400000           0   0.00000       0.00000    
     29371 TIP3     633      SWM4     OM       LPDW     -1.11466       0.00000          -1   0.00000       0.00000    
     29372 TIP3     633      SWM4     H1       HDW      0.557330       1.00800           0   0.00000       0.00000    
     29373 TIP3     633      SWM4     H2       HDW      0.557330       1.00800           0   0.00000       0.00000    
     29374 TIP3     634      SWM4     OH2      ODW       1.71640       15.5994           0 -0.978253       1.30000    
     29375 TIP3     634      SWM4     DOH2     DOH2     -1.71640      0.400000           0   0.00000       0.00000    
     29376 TIP3     634      SWM4     OM       LPDW     -1.11466       0.00000          -1   0.00000       0.00000    
     29377 TIP3     634      SWM4     H1       HDW      0.557330       1.00800           0   0.00000       0.00000    
     29378 TIP3     634      SWM4     H2       HDW      0.557330       1.00800           0   0.00000       0.00000    
     29379 TIP3     635      SWM4     OH2      ODW       1.71640       15.5994           0 -0.978253       1.30000    
     29380 TIP3     635      SWM4     DOH2     DOH2     -1.71640      0.400000           0   0.00000       0.00000    
     29381 TIP3     635      SWM4     OM       LPDW     -1.11466       0.00000          -1   0.00000       0.00000    
     29382 TIP3     635      SWM4     H1       HDW      0.557330       1.00800           0   0.00000       0.00000    
     29383 TIP3     635      SWM4     H2       HDW      0.557330       1.00800           0   0.00000       0.00000    
     29384 TIP3     636      SWM4     OH2      ODW       1.71640       15.5994           0 -0.978253       1.30000    
     29385 TIP3     636      SWM4     DOH2     DOH2     -1.71640      0.400000           0   0.00000       0.00000    
     29386 TIP3     636      SWM4     OM       LPDW     -1.11466       0.00000          -1   0.00000       0.00000    
     29387 TIP3     636      SWM4     H1       HDW      0.557330       1.00800           0   0.00000       0.00000    
     29388 TIP3     636      SWM4     H2       HDW      0.557330       1.00800           0   0.00000       0.00000    
     29389 TIP3     637      SWM4     OH2      ODW       1.71640       15.5994           0 -0.978253       1.30000    
     29390 TIP3     637      SWM4     DOH2     DOH2     -1.71640      0.400000           0   0.00000       0.00000    
     29391 TIP3     637      SWM4     OM       LPDW     -1.11466       0.00000          -1   0.00000       0.00000    
     29392 TIP3     637      SWM4     H1       HDW      0.557330       1.00800           0   0.00000       0.00000    
     29393 TIP3     637      SWM4     H2       HDW      0.557330       1.00800           0   0.00000       0.00000    
     29394 TIP3     638      SWM4     OH2      ODW       1.71640       15.5994           0 -0.978253       1.30000    
     29395 TIP3     638      SWM4     DOH2     DOH2     -1.71640      0.400000           0   0.00000       0.00000    
     29396 TIP3     638      SWM4     OM       LPDW     -1.11466       0.00000          -1   0.00000       0.00000    
     29397 TIP3     638      SWM4     H1       HDW      0.557330       1.00800           0   0.00000       0.00000    
     29398 TIP3     638      SWM4     H2       HDW      0.557330       1.00800           0   0.00000       0.00000    
     29399 TIP3     639      SWM4     OH2      ODW       1.71640       15.5994           0 -0.978253       1.30000    
     29400 TIP3     639      SWM4     DOH2     DOH2     -1.71640      0.400000           0   0.00000       0.00000    
     29401 TIP3     639      SWM4     OM       LPDW     -1.11466       0.00000          -1   0.00000       0.00000    
     29402 TIP3     639      SWM4     H1       HDW      0.557330       1.00800           0   0.00000       0.00000    
     29403 TIP3     639      SWM4     H2       HDW      0.557330       1.00800           0   0.00000       0.00000    
     29404 TIP3     640      SWM4     OH2      ODW       1.71640       15.5994           0 -0.978253       1.30000    
     29405 TIP3     640      SWM4     DOH2     DOH2     -1.71640      0.400000           0   0.00000       0.00000    
     29406 TIP3     640      SWM4     OM       LPDW     -1.11466       0.00000          -1   0.00000       0.00000    
     29407 TIP3     640      SWM4     H1       HDW      0.557330       1.00800           0   0.00000       0.00000    
     29408 TIP3     640      SWM4     H2       HDW      0.557330       1.00800           0   0.00000       0.00000    
     29409 TIP3     641      SWM4     OH2      ODW       1.71640       15.5994           0 -0.978253       1.30000    
     29410 TIP3     641      SWM4     DOH2     DOH2     -1.71640      0.400000           0   0.00000       0.00000    
     29411 TIP3     641      SWM4     OM       LPDW     -1.11466       0.00000          -1   0.00000       0.00000    
     29412 TIP3     641      SWM4     H1       HDW      0.557330       1.00800           0   0.00000       0.00000    
     29413 TIP3     641      SWM4     H2       HDW      0.557330       1.00800           0   0.00000       0.00000    
     29414 TIP3     642      SWM4     OH2      ODW       1.71640       15.5994           0 -0.978253       1.30000    
     29415 TIP3     642      SWM4     DOH2     DOH2     -1.71640      0.400000           0   0.00000       0.00000    
     29416 TIP3     642      SWM4     OM       LPDW     -1.11466       0.00000          -1   0.00000       0.00000    
     29417 TIP3     642      SWM4     H1       HDW      0.557330       1.00800           0   0.00000       0.00000    
     29418 TIP3     642      SWM4     H2       HDW      0.557330       1.00800           0   0.00000       0.00000    
     29419 TIP3     643      SWM4     OH2      ODW       1.71640       15.5994           0 -0.978253       1.30000    
     29420 TIP3     643      SWM4     DOH2     DOH2     -1.71640      0.400000           0   0.00000       0.00000    
     29421 TIP3     643      SWM4     OM       LPDW     -1.11466       0.00000          -1   0.00000       0.00000    
     29422 TIP3     643      SWM4     H1       HDW      0.557330       1.00800           0   0.00000       0.00000    
     29423 TIP3     643      SWM4     H2       HDW      0.557330       1.00800           0   0.00000       0.00000    
     29424 TIP3     644      SWM4     OH2      ODW       1.71640       15.5994           0 -0.978253       1.30000    
     29425 TIP3     644      SWM4     DOH2     DOH2     -1.71640      0.400000           0   0.00000       0.00000    
     29426 TIP3     644      SWM4     OM       LPDW     -1.11466       0.00000          -1   0.00000       0.00000    
     29427 TIP3     644      SWM4     H1       HDW      0.557330       1.00800           0   0.00000       0.00000    
     29428 TIP3     644      SWM4     H2       HDW      0.557330       1.00800           0   0.00000       0.00000    
     29429 TIP3     645      SWM4     OH2      ODW       1.71640       15.5994           0 -0.978253       1.30000    
     29430 TIP3     645      SWM4     DOH2     DOH2     -1.71640      0.400000           0   0.00000       0.00000    
     29431 TIP3     645      SWM4     OM       LPDW     -1.11466       0.00000          -1   0.00000       0.00000    
     29432 TIP3     645      SWM4     H1       HDW      0.557330       1.00800           0   0.00000       0.00000    
     29433 TIP3     645      SWM4     H2       HDW      0.557330       1.00800           0   0.00000       0.00000    
     29434 TIP3     646      SWM4     OH2      ODW       1.71640       15.5994           0 -0.978253       1.30000    
     29435 TIP3     646      SWM4     DOH2     DOH2     -1.71640      0.400000           0   0.00000       0.00000    
     29436 TIP3     646      SWM4     OM       LPDW     -1.11466       0.00000          -1   0.00000       0.00000    
     29437 TIP3     646      SWM4     H1       HDW      0.557330       1.00800           0   0.00000       0.00000    
     29438 TIP3     646      SWM4     H2       HDW      0.557330       1.00800           0   0.00000       0.00000    
     29439 TIP3     647      SWM4     OH2      ODW       1.71640       15.5994           0 -0.978253       1.30000    
     29440 TIP3     647      SWM4     DOH2     DOH2     -1.71640      0.400000           0   0.00000       0.00000    
     29441 TIP3     647      SWM4     OM       LPDW     -1.11466       0.00000          -1   0.00000       0.00000    
     29442 TIP3     647      SWM4     H1       HDW      0.557330       1.00800           0   0.00000       0.00000    
     29443 TIP3     647      SWM4     H2       HDW      0.557330       1.00800           0   0.00000       0.00000    
     29444 TIP3     648      SWM4     OH2      ODW       1.71640       15.5994           0 -0.978253       1.30000    
     29445 TIP3     648      SWM4     DOH2     DOH2     -1.71640      0.400000           0   0.00000       0.00000    
     29446 TIP3     648      SWM4     OM       LPDW     -1.11466       0.00000          -1   0.00000       0.00000    
     29447 TIP3     648      SWM4     H1       HDW      0.557330       1.00800           0   0.00000       0.00000    
     29448 TIP3     648      SWM4     H2       HDW      0.557330       1.00800           0   0.00000       0.00000    
     29449 TIP3     649      SWM4     OH2      ODW       1.71640       15.5994           0 -0.978253       1.30000    
     29450 TIP3     649      SWM4     DOH2     DOH2     -1.71640      0.400000           0   0.00000       0.00000    
     29451 TIP3     649      SWM4     OM       LPDW     -1.11466       0.00000          -1   0.00000       0.00000    
     29452 TIP3     649      SWM4     H1       HDW      0.557330       1.00800           0   0.00000       0.00000    
     29453 TIP3     649      SWM4     H2       HDW      0.557330       1.00800           0   0.00000       0.00000    
     29454 TIP3     650      SWM4     OH2      ODW       1.71640       15.5994           0 -0.978253       1.30000    
     29455 TIP3     650      SWM4     DOH2     DOH2     -1.71640      0.400000           0   0.00000       0.00000    
     29456 TIP3     650      SWM4     OM       LPDW     -1.11466       0.00000          -1   0.00000       0.00000    
     29457 TIP3     650      SWM4     H1       HDW      0.557330       1.00800           0   0.00000       0.00000    
     29458 TIP3     650      SWM4     H2       HDW      0.557330       1.00800           0   0.00000       0.00000    
     29459 TIP3     651      SWM4     OH2      ODW       1.71640       15.5994           0 -0.978253       1.30000    
     29460 TIP3     651      SWM4     DOH2     DOH2     -1.71640      0.400000           0   0.00000       0.00000    
     29461 TIP3     651      SWM4     OM       LPDW     -1.11466       0.00000          -1   0.00000       0.00000    
     29462 TIP3     651      SWM4     H1       HDW      0.557330       1.00800           0   0.00000       0.00000    
     29463 TIP3     651      SWM4     H2       HDW      0.557330       1.00800           0   0.00000       0.00000    
     29464 TIP3     652      SWM4     OH2      ODW       1.71640       15.5994           0 -0.978253       1.30000    
     29465 TIP3     652      SWM4     DOH2     DOH2     -1.71640      0.400000           0   0.00000       0.00000    
     29466 TIP3     652      SWM4     OM       LPDW     -1.11466       0.00000          -1   0.00000       0.00000    
     29467 TIP3     652      SWM4     H1       HDW      0.557330       1.00800           0   0.00000       0.00000    
     29468 TIP3     652      SWM4     H2       HDW      0.557330       1.00800           0   0.00000       0.00000    
     29469 TIP3     653      SWM4     OH2      ODW       1.71640       15.5994           0 -0.978253       1.30000    
     29470 TIP3     653      SWM4     DOH2     DOH2     -1.71640      0.400000           0   0.00000       0.00000    
     29471 TIP3     653      SWM4     OM       LPDW     -1.11466       0.00000          -1   0.00000       0.00000    
     29472 TIP3     653      SWM4     H1       HDW      0.557330       1.00800           0   0.00000       0.00000    
     29473 TIP3     653      SWM4     H2       HDW      0.557330       1.00800           0   0.00000       0.00000    
     29474 TIP3     654      SWM4     OH2      ODW       1.71640       15.5994           0 -0.978253       1.30000    
     29475 TIP3     654      SWM4     DOH2     DOH2     -1.71640      0.400000           0   0.00000       0.00000    
     29476 TIP3     654      SWM4     OM       LPDW     -1.11466       0.00000          -1   0.00000       0.00000    
     29477 TIP3     654      SWM4     H1       HDW      0.557330       1.00800           0   0.00000       0.00000    
     29478 TIP3     654      SWM4     H2       HDW      0.557330       1.00800           0   0.00000       0.00000    
     29479 TIP3     655      SWM4     OH2      ODW       1.71640       15.5994           0 -0.978253       1.30000    
     29480 TIP3     655      SWM4     DOH2     DOH2     -1.71640      0.400000           0   0.00000       0.00000    
     29481 TIP3     655      SWM4     OM       LPDW     -1.11466       0.00000          -1   0.00000       0.00000    
     29482 TIP3     655      SWM4     H1       HDW      0.557330       1.00800           0   0.00000       0.00000    
     29483 TIP3     655      SWM4     H2       HDW      0.557330       1.00800           0   0.00000       0.00000    
     29484 TIP3     656      SWM4     OH2      ODW       1.71640       15.5994           0 -0.978253       1.30000    
     29485 TIP3     656      SWM4     DOH2     DOH2     -1.71640      0.400000           0   0.00000       0.00000    
     29486 TIP3     656      SWM4     OM       LPDW     -1.11466       0.00000          -1   0.00000       0.00000    
     29487 TIP3     656      SWM4     H1       HDW      0.557330       1.00800           0   0.00000       0.00000    
     29488 TIP3     656      SWM4     H2       HDW      0.557330       1.00800           0   0.00000       0.00000    
     29489 TIP3     657      SWM4     OH2      ODW       1.71640       15.5994           0 -0.978253       1.30000    
     29490 TIP3     657      SWM4     DOH2     DOH2     -1.71640      0.400000           0   0.00000       0.00000    
     29491 TIP3     657      SWM4     OM       LPDW     -1.11466       0.00000          -1   0.00000       0.00000    
     29492 TIP3     657      SWM4     H1       HDW      0.557330       1.00800           0   0.00000       0.00000    
     29493 TIP3     657      SWM4     H2       HDW      0.557330       1.00800           0   0.00000       0.00000    
     29494 TIP3     658      SWM4     OH2      ODW       1.71640       15.5994           0 -0.978253       1.30000    
     29495 TIP3     658      SWM4     DOH2     DOH2     -1.71640      0.400000           0   0.00000       0.00000    
     29496 TIP3     658      SWM4     OM       LPDW     -1.11466       0.00000          -1   0.00000       0.00000    
     29497 TIP3     658      SWM4     H1       HDW      0.557330       1.00800           0   0.00000       0.00000    
     29498 TIP3     658      SWM4     H2       HDW      0.557330       1.00800           0   0.00000       0.00000    
     29499 TIP3     659      SWM4     OH2      ODW       1.71640       15.5994           0 -0.978253       1.30000    
     29500 TIP3     659      SWM4     DOH2     DOH2     -1.71640      0.400000           0   0.00000       0.00000    
     29501 TIP3     659      SWM4     OM       LPDW     -1.11466       0.00000          -1   0.00000       0.00000    
     29502 TIP3     659      SWM4     H1       HDW      0.557330       1.00800           0   0.00000       0.00000    
     29503 TIP3     659      SWM4     H2       HDW      0.557330       1.00800           0   0.00000       0.00000    
     29504 TIP3     660      SWM4     OH2      ODW       1.71640       15.5994           0 -0.978253       1.30000    
     29505 TIP3     660      SWM4     DOH2     DOH2     -1.71640      0.400000           0   0.00000       0.00000    
     29506 TIP3     660      SWM4     OM       LPDW     -1.11466       0.00000          -1   0.00000       0.00000    
     29507 TIP3     660      SWM4     H1       HDW      0.557330       1.00800           0   0.00000       0.00000    
     29508 TIP3     660      SWM4     H2       HDW      0.557330       1.00800           0   0.00000       0.00000    
     29509 TIP3     661      SWM4     OH2      ODW       1.71640       15.5994           0 -0.978253       1.30000    
     29510 TIP3     661      SWM4     DOH2     DOH2     -1.71640      0.400000           0   0.00000       0.00000    
     29511 TIP3     661      SWM4     OM       LPDW     -1.11466       0.00000          -1   0.00000       0.00000    
     29512 TIP3     661      SWM4     H1       HDW      0.557330       1.00800           0   0.00000       0.00000    
     29513 TIP3     661      SWM4     H2       HDW      0.557330       1.00800           0   0.00000       0.00000    
     29514 TIP3     662      SWM4     OH2      ODW       1.71640       15.5994           0 -0.978253       1.30000    
     29515 TIP3     662      SWM4     DOH2     DOH2     -1.71640      0.400000           0   0.00000       0.00000    
     29516 TIP3     662      SWM4     OM       LPDW     -1.11466       0.00000          -1   0.00000       0.00000    
     29517 TIP3     662      SWM4     H1       HDW      0.557330       1.00800           0   0.00000       0.00000    
     29518 TIP3     662      SWM4     H2       HDW      0.557330       1.00800           0   0.00000       0.00000    
     29519 TIP3     663      SWM4     OH2      ODW       1.71640       15.5994           0 -0.978253       1.30000    
     29520 TIP3     663      SWM4     DOH2     DOH2     -1.71640      0.400000           0   0.00000       0.00000    
     29521 TIP3     663      SWM4     OM       LPDW     -1.11466       0.00000          -1   0.00000       0.00000    
     29522 TIP3     663      SWM4     H1       HDW      0.557330       1.00800           0   0.00000       0.00000    
     29523 TIP3     663      SWM4     H2       HDW      0.557330       1.00800           0   0.00000       0.00000    
     29524 TIP3     664      SWM4     OH2      ODW       1.71640       15.5994           0 -0.978253       1.30000    
     29525 TIP3     664      SWM4     DOH2     DOH2     -1.71640      0.400000           0   0.00000       0.00000    
     29526 TIP3     664      SWM4     OM       LPDW     -1.11466       0.00000          -1   0.00000       0.00000    
     29527 TIP3     664      SWM4     H1       HDW      0.557330       1.00800           0   0.00000       0.00000    
     29528 TIP3     664      SWM4     H2       HDW      0.557330       1.00800           0   0.00000       0.00000    
     29529 TIP3     665      SWM4     OH2      ODW       1.71640       15.5994           0 -0.978253       1.30000    
     29530 TIP3     665      SWM4     DOH2     DOH2     -1.71640      0.400000           0   0.00000       0.00000    
     29531 TIP3     665      SWM4     OM       LPDW     -1.11466       0.00000          -1   0.00000       0.00000    
     29532 TIP3     665      SWM4     H1       HDW      0.557330       1.00800           0   0.00000       0.00000    
     29533 TIP3     665      SWM4     H2       HDW      0.557330       1.00800           0   0.00000       0.00000    
     29534 TIP3     666      SWM4     OH2      ODW       1.71640       15.5994           0 -0.978253       1.30000    
     29535 TIP3     666      SWM4     DOH2     DOH2     -1.71640      0.400000           0   0.00000       0.00000    
     29536 TIP3     666      SWM4     OM       LPDW     -1.11466       0.00000          -1   0.00000       0.00000    
     29537 TIP3     666      SWM4     H1       HDW      0.557330       1.00800           0   0.00000       0.00000    
     29538 TIP3     666      SWM4     H2       HDW      0.557330       1.00800           0   0.00000       0.00000    
     29539 TIP3     667      SWM4     OH2      ODW       1.71640       15.5994           0 -0.978253       1.30000    
     29540 TIP3     667      SWM4     DOH2     DOH2     -1.71640      0.400000           0   0.00000       0.00000    
     29541 TIP3     667      SWM4     OM       LPDW     -1.11466       0.00000          -1   0.00000       0.00000    
     29542 TIP3     667      SWM4     H1       HDW      0.557330       1.00800           0   0.00000       0.00000    
     29543 TIP3     667      SWM4     H2       HDW      0.557330       1.00800           0   0.00000       0.00000    
     29544 TIP3     668      SWM4     OH2      ODW       1.71640       15.5994           0 -0.978253       1.30000    
     29545 TIP3     668      SWM4     DOH2     DOH2     -1.71640      0.400000           0   0.00000       0.00000    
     29546 TIP3     668      SWM4     OM       LPDW     -1.11466       0.00000          -1   0.00000       0.00000    
     29547 TIP3     668      SWM4     H1       HDW      0.557330       1.00800           0   0.00000       0.00000    
     29548 TIP3     668      SWM4     H2       HDW      0.557330       1.00800           0   0.00000       0.00000    
     29549 TIP3     669      SWM4     OH2      ODW       1.71640       15.5994           0 -0.978253       1.30000    
     29550 TIP3     669      SWM4     DOH2     DOH2     -1.71640      0.400000           0   0.00000       0.00000    
     29551 TIP3     669      SWM4     OM       LPDW     -1.11466       0.00000          -1   0.00000       0.00000    
     29552 TIP3     669      SWM4     H1       HDW      0.557330       1.00800           0   0.00000       0.00000    
     29553 TIP3     669      SWM4     H2       HDW      0.557330       1.00800           0   0.00000       0.00000    
     29554 TIP3     670      SWM4     OH2      ODW       1.71640       15.5994           0 -0.978253       1.30000    
     29555 TIP3     670      SWM4     DOH2     DOH2     -1.71640      0.400000           0   0.00000       0.00000    
     29556 TIP3     670      SWM4     OM       LPDW     -1.11466       0.00000          -1   0.00000       0.00000    
     29557 TIP3     670      SWM4     H1       HDW      0.557330       1.00800           0   0.00000       0.00000    
     29558 TIP3     670      SWM4     H2       HDW      0.557330       1.00800           0   0.00000       0.00000    
     29559 TIP3     671      SWM4     OH2      ODW       1.71640       15.5994           0 -0.978253       1.30000    
     29560 TIP3     671      SWM4     DOH2     DOH2     -1.71640      0.400000           0   0.00000       0.00000    
     29561 TIP3     671      SWM4     OM       LPDW     -1.11466       0.00000          -1   0.00000       0.00000    
     29562 TIP3     671      SWM4     H1       HDW      0.557330       1.00800           0   0.00000       0.00000    
     29563 TIP3     671      SWM4     H2       HDW      0.557330       1.00800           0   0.00000       0.00000    
     29564 TIP3     672      SWM4     OH2      ODW       1.71640       15.5994           0 -0.978253       1.30000    
     29565 TIP3     672      SWM4     DOH2     DOH2     -1.71640      0.400000           0   0.00000       0.00000    
     29566 TIP3     672      SWM4     OM       LPDW     -1.11466       0.00000          -1   0.00000       0.00000    
     29567 TIP3     672      SWM4     H1       HDW      0.557330       1.00800           0   0.00000       0.00000    
     29568 TIP3     672      SWM4     H2       HDW      0.557330       1.00800           0   0.00000       0.00000    
     29569 TIP3     673      SWM4     OH2      ODW       1.71640       15.5994           0 -0.978253       1.30000    
     29570 TIP3     673      SWM4     DOH2     DOH2     -1.71640      0.400000           0   0.00000       0.00000    
     29571 TIP3     673      SWM4     OM       LPDW     -1.11466       0.00000          -1   0.00000       0.00000    
     29572 TIP3     673      SWM4     H1       HDW      0.557330       1.00800           0   0.00000       0.00000    
     29573 TIP3     673      SWM4     H2       HDW      0.557330       1.00800           0   0.00000       0.00000    
     29574 TIP3     674      SWM4     OH2      ODW       1.71640       15.5994           0 -0.978253       1.30000    
     29575 TIP3     674      SWM4     DOH2     DOH2     -1.71640      0.400000           0   0.00000       0.00000    
     29576 TIP3     674      SWM4     OM       LPDW     -1.11466       0.00000          -1   0.00000       0.00000    
     29577 TIP3     674      SWM4     H1       HDW      0.557330       1.00800           0   0.00000       0.00000    
     29578 TIP3     674      SWM4     H2       HDW      0.557330       1.00800           0   0.00000       0.00000    
     29579 TIP3     675      SWM4     OH2      ODW       1.71640       15.5994           0 -0.978253       1.30000    
     29580 TIP3     675      SWM4     DOH2     DOH2     -1.71640      0.400000           0   0.00000       0.00000    
     29581 TIP3     675      SWM4     OM       LPDW     -1.11466       0.00000          -1   0.00000       0.00000    
     29582 TIP3     675      SWM4     H1       HDW      0.557330       1.00800           0   0.00000       0.00000    
     29583 TIP3     675      SWM4     H2       HDW      0.557330       1.00800           0   0.00000       0.00000    
     29584 TIP3     676      SWM4     OH2      ODW       1.71640       15.5994           0 -0.978253       1.30000    
     29585 TIP3     676      SWM4     DOH2     DOH2     -1.71640      0.400000           0   0.00000       0.00000    
     29586 TIP3     676      SWM4     OM       LPDW     -1.11466       0.00000          -1   0.00000       0.00000    
     29587 TIP3     676      SWM4     H1       HDW      0.557330       1.00800           0   0.00000       0.00000    
     29588 TIP3     676      SWM4     H2       HDW      0.557330       1.00800           0   0.00000       0.00000    
     29589 TIP3     677      SWM4     OH2      ODW       1.71640       15.5994           0 -0.978253       1.30000    
     29590 TIP3     677      SWM4     DOH2     DOH2     -1.71640      0.400000           0   0.00000       0.00000    
     29591 TIP3     677      SWM4     OM       LPDW     -1.11466       0.00000          -1   0.00000       0.00000    
     29592 TIP3     677      SWM4     H1       HDW      0.557330       1.00800           0   0.00000       0.00000    
     29593 TIP3     677      SWM4     H2       HDW      0.557330       1.00800           0   0.00000       0.00000    
     29594 TIP3     678      SWM4     OH2      ODW       1.71640       15.5994           0 -0.978253       1.30000    
     29595 TIP3     678      SWM4     DOH2     DOH2     -1.71640      0.400000           0   0.00000       0.00000    
     29596 TIP3     678      SWM4     OM       LPDW     -1.11466       0.00000          -1   0.00000       0.00000    
     29597 TIP3     678      SWM4     H1       HDW      0.557330       1.00800           0   0.00000       0.00000    
     29598 TIP3     678      SWM4     H2       HDW      0.557330       1.00800           0   0.00000       0.00000    
     29599 TIP3     679      SWM4     OH2      ODW       1.71640       15.5994           0 -0.978253       1.30000    
     29600 TIP3     679      SWM4     DOH2     DOH2     -1.71640      0.400000           0   0.00000       0.00000    
     29601 TIP3     679      SWM4     OM       LPDW     -1.11466       0.00000          -1   0.00000       0.00000    
     29602 TIP3     679      SWM4     H1       HDW      0.557330       1.00800           0   0.00000       0.00000    
     29603 TIP3     679      SWM4     H2       HDW      0.557330       1.00800           0   0.00000       0.00000    
     29604 TIP3     680      SWM4     OH2      ODW       1.71640       15.5994           0 -0.978253       1.30000    
     29605 TIP3     680      SWM4     DOH2     DOH2     -1.71640      0.400000           0   0.00000       0.00000    
     29606 TIP3     680      SWM4     OM       LPDW     -1.11466       0.00000          -1   0.00000       0.00000    
     29607 TIP3     680      SWM4     H1       HDW      0.557330       1.00800           0   0.00000       0.00000    
     29608 TIP3     680      SWM4     H2       HDW      0.557330       1.00800           0   0.00000       0.00000    
     29609 TIP3     681      SWM4     OH2      ODW       1.71640       15.5994           0 -0.978253       1.30000    
     29610 TIP3     681      SWM4     DOH2     DOH2     -1.71640      0.400000           0   0.00000       0.00000    
     29611 TIP3     681      SWM4     OM       LPDW     -1.11466       0.00000          -1   0.00000       0.00000    
     29612 TIP3     681      SWM4     H1       HDW      0.557330       1.00800           0   0.00000       0.00000    
     29613 TIP3     681      SWM4     H2       HDW      0.557330       1.00800           0   0.00000       0.00000    
     29614 TIP3     682      SWM4     OH2      ODW       1.71640       15.5994           0 -0.978253       1.30000    
     29615 TIP3     682      SWM4     DOH2     DOH2     -1.71640      0.400000           0   0.00000       0.00000    
     29616 TIP3     682      SWM4     OM       LPDW     -1.11466       0.00000          -1   0.00000       0.00000    
     29617 TIP3     682      SWM4     H1       HDW      0.557330       1.00800           0   0.00000       0.00000    
     29618 TIP3     682      SWM4     H2       HDW      0.557330       1.00800           0   0.00000       0.00000    
     29619 TIP3     683      SWM4     OH2      ODW       1.71640       15.5994           0 -0.978253       1.30000    
     29620 TIP3     683      SWM4     DOH2     DOH2     -1.71640      0.400000           0   0.00000       0.00000    
     29621 TIP3     683      SWM4     OM       LPDW     -1.11466       0.00000          -1   0.00000       0.00000    
     29622 TIP3     683      SWM4     H1       HDW      0.557330       1.00800           0   0.00000       0.00000    
     29623 TIP3     683      SWM4     H2       HDW      0.557330       1.00800           0   0.00000       0.00000    
     29624 TIP3     684      SWM4     OH2      ODW       1.71640       15.5994           0 -0.978253       1.30000    
     29625 TIP3     684      SWM4     DOH2     DOH2     -1.71640      0.400000           0   0.00000       0.00000    
     29626 TIP3     684      SWM4     OM       LPDW     -1.11466       0.00000          -1   0.00000       0.00000    
     29627 TIP3     684      SWM4     H1       HDW      0.557330       1.00800           0   0.00000       0.00000    
     29628 TIP3     684      SWM4     H2       HDW      0.557330       1.00800           0   0.00000       0.00000    
     29629 TIP3     685      SWM4     OH2      ODW       1.71640       15.5994           0 -0.978253       1.30000    
     29630 TIP3     685      SWM4     DOH2     DOH2     -1.71640      0.400000           0   0.00000       0.00000    
     29631 TIP3     685      SWM4     OM       LPDW     -1.11466       0.00000          -1   0.00000       0.00000    
     29632 TIP3     685      SWM4     H1       HDW      0.557330       1.00800           0   0.00000       0.00000    
     29633 TIP3     685      SWM4     H2       HDW      0.557330       1.00800           0   0.00000       0.00000    
     29634 TIP3     686      SWM4     OH2      ODW       1.71640       15.5994           0 -0.978253       1.30000    
     29635 TIP3     686      SWM4     DOH2     DOH2     -1.71640      0.400000           0   0.00000       0.00000    
     29636 TIP3     686      SWM4     OM       LPDW     -1.11466       0.00000          -1   0.00000       0.00000    
     29637 TIP3     686      SWM4     H1       HDW      0.557330       1.00800           0   0.00000       0.00000    
     29638 TIP3     686      SWM4     H2       HDW      0.557330       1.00800           0   0.00000       0.00000    
     29639 TIP3     687      SWM4     OH2      ODW       1.71640       15.5994           0 -0.978253       1.30000    
     29640 TIP3     687      SWM4     DOH2     DOH2     -1.71640      0.400000           0   0.00000       0.00000    
     29641 TIP3     687      SWM4     OM       LPDW     -1.11466       0.00000          -1   0.00000       0.00000    
     29642 TIP3     687      SWM4     H1       HDW      0.557330       1.00800           0   0.00000       0.00000    
     29643 TIP3     687      SWM4     H2       HDW      0.557330       1.00800           0   0.00000       0.00000    
     29644 TIP3     688      SWM4     OH2      ODW       1.71640       15.5994           0 -0.978253       1.30000    
     29645 TIP3     688      SWM4     DOH2     DOH2     -1.71640      0.400000           0   0.00000       0.00000    
     29646 TIP3     688      SWM4     OM       LPDW     -1.11466       0.00000          -1   0.00000       0.00000    
     29647 TIP3     688      SWM4     H1       HDW      0.557330       1.00800           0   0.00000       0.00000    
     29648 TIP3     688      SWM4     H2       HDW      0.557330       1.00800           0   0.00000       0.00000    
     29649 TIP3     689      SWM4     OH2      ODW       1.71640       15.5994           0 -0.978253       1.30000    
     29650 TIP3     689      SWM4     DOH2     DOH2     -1.71640      0.400000           0   0.00000       0.00000    
     29651 TIP3     689      SWM4     OM       LPDW     -1.11466       0.00000          -1   0.00000       0.00000    
     29652 TIP3     689      SWM4     H1       HDW      0.557330       1.00800           0   0.00000       0.00000    
     29653 TIP3     689      SWM4     H2       HDW      0.557330       1.00800           0   0.00000       0.00000    
     29654 TIP3     690      SWM4     OH2      ODW       1.71640       15.5994           0 -0.978253       1.30000    
     29655 TIP3     690      SWM4     DOH2     DOH2     -1.71640      0.400000           0   0.00000       0.00000    
     29656 TIP3     690      SWM4     OM       LPDW     -1.11466       0.00000          -1   0.00000       0.00000    
     29657 TIP3     690      SWM4     H1       HDW      0.557330       1.00800           0   0.00000       0.00000    
     29658 TIP3     690      SWM4     H2       HDW      0.557330       1.00800           0   0.00000       0.00000    
     29659 TIP3     691      SWM4     OH2      ODW       1.71640       15.5994           0 -0.978253       1.30000    
     29660 TIP3     691      SWM4     DOH2     DOH2     -1.71640      0.400000           0   0.00000       0.00000    
     29661 TIP3     691      SWM4     OM       LPDW     -1.11466       0.00000          -1   0.00000       0.00000    
     29662 TIP3     691      SWM4     H1       HDW      0.557330       1.00800           0   0.00000       0.00000    
     29663 TIP3     691      SWM4     H2       HDW      0.557330       1.00800           0   0.00000       0.00000    
     29664 TIP3     692      SWM4     OH2      ODW       1.71640       15.5994           0 -0.978253       1.30000    
     29665 TIP3     692      SWM4     DOH2     DOH2     -1.71640      0.400000           0   0.00000       0.00000    
     29666 TIP3     692      SWM4     OM       LPDW     -1.11466       0.00000          -1   0.00000       0.00000    
     29667 TIP3     692      SWM4     H1       HDW      0.557330       1.00800           0   0.00000       0.00000    
     29668 TIP3     692      SWM4     H2       HDW      0.557330       1.00800           0   0.00000       0.00000    
     29669 TIP3     693      SWM4     OH2      ODW       1.71640       15.5994           0 -0.978253       1.30000    
     29670 TIP3     693      SWM4     DOH2     DOH2     -1.71640      0.400000           0   0.00000       0.00000    
     29671 TIP3     693      SWM4     OM       LPDW     -1.11466       0.00000          -1   0.00000       0.00000    
     29672 TIP3     693      SWM4     H1       HDW      0.557330       1.00800           0   0.00000       0.00000    
     29673 TIP3     693      SWM4     H2       HDW      0.557330       1.00800           0   0.00000       0.00000    
     29674 TIP3     694      SWM4     OH2      ODW       1.71640       15.5994           0 -0.978253       1.30000    
     29675 TIP3     694      SWM4     DOH2     DOH2     -1.71640      0.400000           0   0.00000       0.00000    
     29676 TIP3     694      SWM4     OM       LPDW     -1.11466       0.00000          -1   0.00000       0.00000    
     29677 TIP3     694      SWM4     H1       HDW      0.557330       1.00800           0   0.00000       0.00000    
     29678 TIP3     694      SWM4     H2       HDW      0.557330       1.00800           0   0.00000       0.00000    
     29679 TIP3     695      SWM4     OH2      ODW       1.71640       15.5994           0 -0.978253       1.30000    
     29680 TIP3     695      SWM4     DOH2     DOH2     -1.71640      0.400000           0   0.00000       0.00000    
     29681 TIP3     695      SWM4     OM       LPDW     -1.11466       0.00000          -1   0.00000       0.00000    
     29682 TIP3     695      SWM4     H1       HDW      0.557330       1.00800           0   0.00000       0.00000    
     29683 TIP3     695      SWM4     H2       HDW      0.557330       1.00800           0   0.00000       0.00000    
     29684 TIP3     696      SWM4     OH2      ODW       1.71640       15.5994           0 -0.978253       1.30000    
     29685 TIP3     696      SWM4     DOH2     DOH2     -1.71640      0.400000           0   0.00000       0.00000    
     29686 TIP3     696      SWM4     OM       LPDW     -1.11466       0.00000          -1   0.00000       0.00000    
     29687 TIP3     696      SWM4     H1       HDW      0.557330       1.00800           0   0.00000       0.00000    
     29688 TIP3     696      SWM4     H2       HDW      0.557330       1.00800           0   0.00000       0.00000    
     29689 TIP3     697      SWM4     OH2      ODW       1.71640       15.5994           0 -0.978253       1.30000    
     29690 TIP3     697      SWM4     DOH2     DOH2     -1.71640      0.400000           0   0.00000       0.00000    
     29691 TIP3     697      SWM4     OM       LPDW     -1.11466       0.00000          -1   0.00000       0.00000    
     29692 TIP3     697      SWM4     H1       HDW      0.557330       1.00800           0   0.00000       0.00000    
     29693 TIP3     697      SWM4     H2       HDW      0.557330       1.00800           0   0.00000       0.00000    
     29694 TIP3     698      SWM4     OH2      ODW       1.71640       15.5994           0 -0.978253       1.30000    
     29695 TIP3     698      SWM4     DOH2     DOH2     -1.71640      0.400000           0   0.00000       0.00000    
     29696 TIP3     698      SWM4     OM       LPDW     -1.11466       0.00000          -1   0.00000       0.00000    
     29697 TIP3     698      SWM4     H1       HDW      0.557330       1.00800           0   0.00000       0.00000    
     29698 TIP3     698      SWM4     H2       HDW      0.557330       1.00800           0   0.00000       0.00000    
     29699 TIP3     699      SWM4     OH2      ODW       1.71640       15.5994           0 -0.978253       1.30000    
     29700 TIP3     699      SWM4     DOH2     DOH2     -1.71640      0.400000           0   0.00000       0.00000    
     29701 TIP3     699      SWM4     OM       LPDW     -1.11466       0.00000          -1   0.00000       0.00000    
     29702 TIP3     699      SWM4     H1       HDW      0.557330       1.00800           0   0.00000       0.00000    
     29703 TIP3     699      SWM4     H2       HDW      0.557330       1.00800           0   0.00000       0.00000    
     29704 TIP3     700      SWM4     OH2      ODW       1.71640       15.5994           0 -0.978253       1.30000    
     29705 TIP3     700      SWM4     DOH2     DOH2     -1.71640      0.400000           0   0.00000       0.00000    
     29706 TIP3     700      SWM4     OM       LPDW     -1.11466       0.00000          -1   0.00000       0.00000    
     29707 TIP3     700      SWM4     H1       HDW      0.557330       1.00800           0   0.00000       0.00000    
     29708 TIP3     700      SWM4     H2       HDW      0.557330       1.00800           0   0.00000       0.00000    
     29709 TIP3     701      SWM4     OH2      ODW       1.71640       15.5994           0 -0.978253       1.30000    
     29710 TIP3     701      SWM4     DOH2     DOH2     -1.71640      0.400000           0   0.00000       0.00000    
     29711 TIP3     701      SWM4     OM       LPDW     -1.11466       0.00000          -1   0.00000       0.00000    
     29712 TIP3     701      SWM4     H1       HDW      0.557330       1.00800           0   0.00000       0.00000    
     29713 TIP3     701      SWM4     H2       HDW      0.557330       1.00800           0   0.00000       0.00000    
     29714 TIP3     702      SWM4     OH2      ODW       1.71640       15.5994           0 -0.978253       1.30000    
     29715 TIP3     702      SWM4     DOH2     DOH2     -1.71640      0.400000           0   0.00000       0.00000    
     29716 TIP3     702      SWM4     OM       LPDW     -1.11466       0.00000          -1   0.00000       0.00000    
     29717 TIP3     702      SWM4     H1       HDW      0.557330       1.00800           0   0.00000       0.00000    
     29718 TIP3     702      SWM4     H2       HDW      0.557330       1.00800           0   0.00000       0.00000    
     29719 TIP3     703      SWM4     OH2      ODW       1.71640       15.5994           0 -0.978253       1.30000    
     29720 TIP3     703      SWM4     DOH2     DOH2     -1.71640      0.400000           0   0.00000       0.00000    
     29721 TIP3     703      SWM4     OM       LPDW     -1.11466       0.00000          -1   0.00000       0.00000    
     29722 TIP3     703      SWM4     H1       HDW      0.557330       1.00800           0   0.00000       0.00000    
     29723 TIP3     703      SWM4     H2       HDW      0.557330       1.00800           0   0.00000       0.00000    
     29724 TIP3     704      SWM4     OH2      ODW       1.71640       15.5994           0 -0.978253       1.30000    
     29725 TIP3     704      SWM4     DOH2     DOH2     -1.71640      0.400000           0   0.00000       0.00000    
     29726 TIP3     704      SWM4     OM       LPDW     -1.11466       0.00000          -1   0.00000       0.00000    
     29727 TIP3     704      SWM4     H1       HDW      0.557330       1.00800           0   0.00000       0.00000    
     29728 TIP3     704      SWM4     H2       HDW      0.557330       1.00800           0   0.00000       0.00000    
     29729 TIP3     705      SWM4     OH2      ODW       1.71640       15.5994           0 -0.978253       1.30000    
     29730 TIP3     705      SWM4     DOH2     DOH2     -1.71640      0.400000           0   0.00000       0.00000    
     29731 TIP3     705      SWM4     OM       LPDW     -1.11466       0.00000          -1   0.00000       0.00000    
     29732 TIP3     705      SWM4     H1       HDW      0.557330       1.00800           0   0.00000       0.00000    
     29733 TIP3     705      SWM4     H2       HDW      0.557330       1.00800           0   0.00000       0.00000    
     29734 TIP3     706      SWM4     OH2      ODW       1.71640       15.5994           0 -0.978253       1.30000    
     29735 TIP3     706      SWM4     DOH2     DOH2     -1.71640      0.400000           0   0.00000       0.00000    
     29736 TIP3     706      SWM4     OM       LPDW     -1.11466       0.00000          -1   0.00000       0.00000    
     29737 TIP3     706      SWM4     H1       HDW      0.557330       1.00800           0   0.00000       0.00000    
     29738 TIP3     706      SWM4     H2       HDW      0.557330       1.00800           0   0.00000       0.00000    
     29739 TIP3     707      SWM4     OH2      ODW       1.71640       15.5994           0 -0.978253       1.30000    
     29740 TIP3     707      SWM4     DOH2     DOH2     -1.71640      0.400000           0   0.00000       0.00000    
     29741 TIP3     707      SWM4     OM       LPDW     -1.11466       0.00000          -1   0.00000       0.00000    
     29742 TIP3     707      SWM4     H1       HDW      0.557330       1.00800           0   0.00000       0.00000    
     29743 TIP3     707      SWM4     H2       HDW      0.557330       1.00800           0   0.00000       0.00000    
     29744 TIP3     708      SWM4     OH2      ODW       1.71640       15.5994           0 -0.978253       1.30000    
     29745 TIP3     708      SWM4     DOH2     DOH2     -1.71640      0.400000           0   0.00000       0.00000    
     29746 TIP3     708      SWM4     OM       LPDW     -1.11466       0.00000          -1   0.00000       0.00000    
     29747 TIP3     708      SWM4     H1       HDW      0.557330       1.00800           0   0.00000       0.00000    
     29748 TIP3     708      SWM4     H2       HDW      0.557330       1.00800           0   0.00000       0.00000    
     29749 TIP3     709      SWM4     OH2      ODW       1.71640       15.5994           0 -0.978253       1.30000    
     29750 TIP3     709      SWM4     DOH2     DOH2     -1.71640      0.400000           0   0.00000       0.00000    
     29751 TIP3     709      SWM4     OM       LPDW     -1.11466       0.00000          -1   0.00000       0.00000    
     29752 TIP3     709      SWM4     H1       HDW      0.557330       1.00800           0   0.00000       0.00000    
     29753 TIP3     709      SWM4     H2       HDW      0.557330       1.00800           0   0.00000       0.00000    
     29754 TIP3     710      SWM4     OH2      ODW       1.71640       15.5994           0 -0.978253       1.30000    
     29755 TIP3     710      SWM4     DOH2     DOH2     -1.71640      0.400000           0   0.00000       0.00000    
     29756 TIP3     710      SWM4     OM       LPDW     -1.11466       0.00000          -1   0.00000       0.00000    
     29757 TIP3     710      SWM4     H1       HDW      0.557330       1.00800           0   0.00000       0.00000    
     29758 TIP3     710      SWM4     H2       HDW      0.557330       1.00800           0   0.00000       0.00000    
     29759 TIP3     711      SWM4     OH2      ODW       1.71640       15.5994           0 -0.978253       1.30000    
     29760 TIP3     711      SWM4     DOH2     DOH2     -1.71640      0.400000           0   0.00000       0.00000    
     29761 TIP3     711      SWM4     OM       LPDW     -1.11466       0.00000          -1   0.00000       0.00000    
     29762 TIP3     711      SWM4     H1       HDW      0.557330       1.00800           0   0.00000       0.00000    
     29763 TIP3     711      SWM4     H2       HDW      0.557330       1.00800           0   0.00000       0.00000    
     29764 TIP3     712      SWM4     OH2      ODW       1.71640       15.5994           0 -0.978253       1.30000    
     29765 TIP3     712      SWM4     DOH2     DOH2     -1.71640      0.400000           0   0.00000       0.00000    
     29766 TIP3     712      SWM4     OM       LPDW     -1.11466       0.00000          -1   0.00000       0.00000    
     29767 TIP3     712      SWM4     H1       HDW      0.557330       1.00800           0   0.00000       0.00000    
     29768 TIP3     712      SWM4     H2       HDW      0.557330       1.00800           0   0.00000       0.00000    
     29769 TIP3     713      SWM4     OH2      ODW       1.71640       15.5994           0 -0.978253       1.30000    
     29770 TIP3     713      SWM4     DOH2     DOH2     -1.71640      0.400000           0   0.00000       0.00000    
     29771 TIP3     713      SWM4     OM       LPDW     -1.11466       0.00000          -1   0.00000       0.00000    
     29772 TIP3     713      SWM4     H1       HDW      0.557330       1.00800           0   0.00000       0.00000    
     29773 TIP3     713      SWM4     H2       HDW      0.557330       1.00800           0   0.00000       0.00000    
     29774 TIP3     714      SWM4     OH2      ODW       1.71640       15.5994           0 -0.978253       1.30000    
     29775 TIP3     714      SWM4     DOH2     DOH2     -1.71640      0.400000           0   0.00000       0.00000    
     29776 TIP3     714      SWM4     OM       LPDW     -1.11466       0.00000          -1   0.00000       0.00000    
     29777 TIP3     714      SWM4     H1       HDW      0.557330       1.00800           0   0.00000       0.00000    
     29778 TIP3     714      SWM4     H2       HDW      0.557330       1.00800           0   0.00000       0.00000    
     29779 TIP3     715      SWM4     OH2      ODW       1.71640       15.5994           0 -0.978253       1.30000    
     29780 TIP3     715      SWM4     DOH2     DOH2     -1.71640      0.400000           0   0.00000       0.00000    
     29781 TIP3     715      SWM4     OM       LPDW     -1.11466       0.00000          -1   0.00000       0.00000    
     29782 TIP3     715      SWM4     H1       HDW      0.557330       1.00800           0   0.00000       0.00000    
     29783 TIP3     715      SWM4     H2       HDW      0.557330       1.00800           0   0.00000       0.00000    
     29784 TIP3     716      SWM4     OH2      ODW       1.71640       15.5994           0 -0.978253       1.30000    
     29785 TIP3     716      SWM4     DOH2     DOH2     -1.71640      0.400000           0   0.00000       0.00000    
     29786 TIP3     716      SWM4     OM       LPDW     -1.11466       0.00000          -1   0.00000       0.00000    
     29787 TIP3     716      SWM4     H1       HDW      0.557330       1.00800           0   0.00000       0.00000    
     29788 TIP3     716      SWM4     H2       HDW      0.557330       1.00800           0   0.00000       0.00000    
     29789 TIP3     717      SWM4     OH2      ODW       1.71640       15.5994           0 -0.978253       1.30000    
     29790 TIP3     717      SWM4     DOH2     DOH2     -1.71640      0.400000           0   0.00000       0.00000    
     29791 TIP3     717      SWM4     OM       LPDW     -1.11466       0.00000          -1   0.00000       0.00000    
     29792 TIP3     717      SWM4     H1       HDW      0.557330       1.00800           0   0.00000       0.00000    
     29793 TIP3     717      SWM4     H2       HDW      0.557330       1.00800           0   0.00000       0.00000    
     29794 TIP3     718      SWM4     OH2      ODW       1.71640       15.5994           0 -0.978253       1.30000    
     29795 TIP3     718      SWM4     DOH2     DOH2     -1.71640      0.400000           0   0.00000       0.00000    
     29796 TIP3     718      SWM4     OM       LPDW     -1.11466       0.00000          -1   0.00000       0.00000    
     29797 TIP3     718      SWM4     H1       HDW      0.557330       1.00800           0   0.00000       0.00000    
     29798 TIP3     718      SWM4     H2       HDW      0.557330       1.00800           0   0.00000       0.00000    
     29799 TIP3     719      SWM4     OH2      ODW       1.71640       15.5994           0 -0.978253       1.30000    
     29800 TIP3     719      SWM4     DOH2     DOH2     -1.71640      0.400000           0   0.00000       0.00000    
     29801 TIP3     719      SWM4     OM       LPDW     -1.11466       0.00000          -1   0.00000       0.00000    
     29802 TIP3     719      SWM4     H1       HDW      0.557330       1.00800           0   0.00000       0.00000    
     29803 TIP3     719      SWM4     H2       HDW      0.557330       1.00800           0   0.00000       0.00000    
     29804 TIP3     720      SWM4     OH2      ODW       1.71640       15.5994           0 -0.978253       1.30000    
     29805 TIP3     720      SWM4     DOH2     DOH2     -1.71640      0.400000           0   0.00000       0.00000    
     29806 TIP3     720      SWM4     OM       LPDW     -1.11466       0.00000          -1   0.00000       0.00000    
     29807 TIP3     720      SWM4     H1       HDW      0.557330       1.00800           0   0.00000       0.00000    
     29808 TIP3     720      SWM4     H2       HDW      0.557330       1.00800           0   0.00000       0.00000    
     29809 TIP3     721      SWM4     OH2      ODW       1.71640       15.5994           0 -0.978253       1.30000    
     29810 TIP3     721      SWM4     DOH2     DOH2     -1.71640      0.400000           0   0.00000       0.00000    
     29811 TIP3     721      SWM4     OM       LPDW     -1.11466       0.00000          -1   0.00000       0.00000    
     29812 TIP3     721      SWM4     H1       HDW      0.557330       1.00800           0   0.00000       0.00000    
     29813 TIP3     721      SWM4     H2       HDW      0.557330       1.00800           0   0.00000       0.00000    
     29814 TIP3     722      SWM4     OH2      ODW       1.71640       15.5994           0 -0.978253       1.30000    
     29815 TIP3     722      SWM4     DOH2     DOH2     -1.71640      0.400000           0   0.00000       0.00000    
     29816 TIP3     722      SWM4     OM       LPDW     -1.11466       0.00000          -1   0.00000       0.00000    
     29817 TIP3     722      SWM4     H1       HDW      0.557330       1.00800           0   0.00000       0.00000    
     29818 TIP3     722      SWM4     H2       HDW      0.557330       1.00800           0   0.00000       0.00000    
     29819 TIP3     723      SWM4     OH2      ODW       1.71640       15.5994           0 -0.978253       1.30000    
     29820 TIP3     723      SWM4     DOH2     DOH2     -1.71640      0.400000           0   0.00000       0.00000    
     29821 TIP3     723      SWM4     OM       LPDW     -1.11466       0.00000          -1   0.00000       0.00000    
     29822 TIP3     723      SWM4     H1       HDW      0.557330       1.00800           0   0.00000       0.00000    
     29823 TIP3     723      SWM4     H2       HDW      0.557330       1.00800           0   0.00000       0.00000    
     29824 TIP3     724      SWM4     OH2      ODW       1.71640       15.5994           0 -0.978253       1.30000    
     29825 TIP3     724      SWM4     DOH2     DOH2     -1.71640      0.400000           0   0.00000       0.00000    
     29826 TIP3     724      SWM4     OM       LPDW     -1.11466       0.00000          -1   0.00000       0.00000    
     29827 TIP3     724      SWM4     H1       HDW      0.557330       1.00800           0   0.00000       0.00000    
     29828 TIP3     724      SWM4     H2       HDW      0.557330       1.00800           0   0.00000       0.00000    
     29829 TIP3     725      SWM4     OH2      ODW       1.71640       15.5994           0 -0.978253       1.30000    
     29830 TIP3     725      SWM4     DOH2     DOH2     -1.71640      0.400000           0   0.00000       0.00000    
     29831 TIP3     725      SWM4     OM       LPDW     -1.11466       0.00000          -1   0.00000       0.00000    
     29832 TIP3     725      SWM4     H1       HDW      0.557330       1.00800           0   0.00000       0.00000    
     29833 TIP3     725      SWM4     H2       HDW      0.557330       1.00800           0   0.00000       0.00000    
     29834 TIP3     726      SWM4     OH2      ODW       1.71640       15.5994           0 -0.978253       1.30000    
     29835 TIP3     726      SWM4     DOH2     DOH2     -1.71640      0.400000           0   0.00000       0.00000    
     29836 TIP3     726      SWM4     OM       LPDW     -1.11466       0.00000          -1   0.00000       0.00000    
     29837 TIP3     726      SWM4     H1       HDW      0.557330       1.00800           0   0.00000       0.00000    
     29838 TIP3     726      SWM4     H2       HDW      0.557330       1.00800           0   0.00000       0.00000    
     29839 TIP3     727      SWM4     OH2      ODW       1.71640       15.5994           0 -0.978253       1.30000    
     29840 TIP3     727      SWM4     DOH2     DOH2     -1.71640      0.400000           0   0.00000       0.00000    
     29841 TIP3     727      SWM4     OM       LPDW     -1.11466       0.00000          -1   0.00000       0.00000    
     29842 TIP3     727      SWM4     H1       HDW      0.557330       1.00800           0   0.00000       0.00000    
     29843 TIP3     727      SWM4     H2       HDW      0.557330       1.00800           0   0.00000       0.00000    
     29844 TIP3     728      SWM4     OH2      ODW       1.71640       15.5994           0 -0.978253       1.30000    
     29845 TIP3     728      SWM4     DOH2     DOH2     -1.71640      0.400000           0   0.00000       0.00000    
     29846 TIP3     728      SWM4     OM       LPDW     -1.11466       0.00000          -1   0.00000       0.00000    
     29847 TIP3     728      SWM4     H1       HDW      0.557330       1.00800           0   0.00000       0.00000    
     29848 TIP3     728      SWM4     H2       HDW      0.557330       1.00800           0   0.00000       0.00000    
     29849 TIP3     729      SWM4     OH2      ODW       1.71640       15.5994           0 -0.978253       1.30000    
     29850 TIP3     729      SWM4     DOH2     DOH2     -1.71640      0.400000           0   0.00000       0.00000    
     29851 TIP3     729      SWM4     OM       LPDW     -1.11466       0.00000          -1   0.00000       0.00000    
     29852 TIP3     729      SWM4     H1       HDW      0.557330       1.00800           0   0.00000       0.00000    
     29853 TIP3     729      SWM4     H2       HDW      0.557330       1.00800           0   0.00000       0.00000    
     29854 TIP3     730      SWM4     OH2      ODW       1.71640       15.5994           0 -0.978253       1.30000    
     29855 TIP3     730      SWM4     DOH2     DOH2     -1.71640      0.400000           0   0.00000       0.00000    
     29856 TIP3     730      SWM4     OM       LPDW     -1.11466       0.00000          -1   0.00000       0.00000    
     29857 TIP3     730      SWM4     H1       HDW      0.557330       1.00800           0   0.00000       0.00000    
     29858 TIP3     730      SWM4     H2       HDW      0.557330       1.00800           0   0.00000       0.00000    
     29859 TIP3     731      SWM4     OH2      ODW       1.71640       15.5994           0 -0.978253       1.30000    
     29860 TIP3     731      SWM4     DOH2     DOH2     -1.71640      0.400000           0   0.00000       0.00000    
     29861 TIP3     731      SWM4     OM       LPDW     -1.11466       0.00000          -1   0.00000       0.00000    
     29862 TIP3     731      SWM4     H1       HDW      0.557330       1.00800           0   0.00000       0.00000    
     29863 TIP3     731      SWM4     H2       HDW      0.557330       1.00800           0   0.00000       0.00000    
     29864 TIP3     732      SWM4     OH2      ODW       1.71640       15.5994           0 -0.978253       1.30000    
     29865 TIP3     732      SWM4     DOH2     DOH2     -1.71640      0.400000           0   0.00000       0.00000    
     29866 TIP3     732      SWM4     OM       LPDW     -1.11466       0.00000          -1   0.00000       0.00000    
     29867 TIP3     732      SWM4     H1       HDW      0.557330       1.00800           0   0.00000       0.00000    
     29868 TIP3     732      SWM4     H2       HDW      0.557330       1.00800           0   0.00000       0.00000    
     29869 TIP3     733      SWM4     OH2      ODW       1.71640       15.5994           0 -0.978253       1.30000    
     29870 TIP3     733      SWM4     DOH2     DOH2     -1.71640      0.400000           0   0.00000       0.00000    
     29871 TIP3     733      SWM4     OM       LPDW     -1.11466       0.00000          -1   0.00000       0.00000    
     29872 TIP3     733      SWM4     H1       HDW      0.557330       1.00800           0   0.00000       0.00000    
     29873 TIP3     733      SWM4     H2       HDW      0.557330       1.00800           0   0.00000       0.00000    
     29874 TIP3     734      SWM4     OH2      ODW       1.71640       15.5994           0 -0.978253       1.30000    
     29875 TIP3     734      SWM4     DOH2     DOH2     -1.71640      0.400000           0   0.00000       0.00000    
     29876 TIP3     734      SWM4     OM       LPDW     -1.11466       0.00000          -1   0.00000       0.00000    
     29877 TIP3     734      SWM4     H1       HDW      0.557330       1.00800           0   0.00000       0.00000    
     29878 TIP3     734      SWM4     H2       HDW      0.557330       1.00800           0   0.00000       0.00000    
     29879 TIP3     735      SWM4     OH2      ODW       1.71640       15.5994           0 -0.978253       1.30000    
     29880 TIP3     735      SWM4     DOH2     DOH2     -1.71640      0.400000           0   0.00000       0.00000    
     29881 TIP3     735      SWM4     OM       LPDW     -1.11466       0.00000          -1   0.00000       0.00000    
     29882 TIP3     735      SWM4     H1       HDW      0.557330       1.00800           0   0.00000       0.00000    
     29883 TIP3     735      SWM4     H2       HDW      0.557330       1.00800           0   0.00000       0.00000    
     29884 TIP3     736      SWM4     OH2      ODW       1.71640       15.5994           0 -0.978253       1.30000    
     29885 TIP3     736      SWM4     DOH2     DOH2     -1.71640      0.400000           0   0.00000       0.00000    
     29886 TIP3     736      SWM4     OM       LPDW     -1.11466       0.00000          -1   0.00000       0.00000    
     29887 TIP3     736      SWM4     H1       HDW      0.557330       1.00800           0   0.00000       0.00000    
     29888 TIP3     736      SWM4     H2       HDW      0.557330       1.00800           0   0.00000       0.00000    
     29889 TIP3     737      SWM4     OH2      ODW       1.71640       15.5994           0 -0.978253       1.30000    
     29890 TIP3     737      SWM4     DOH2     DOH2     -1.71640      0.400000           0   0.00000       0.00000    
     29891 TIP3     737      SWM4     OM       LPDW     -1.11466       0.00000          -1   0.00000       0.00000    
     29892 TIP3     737      SWM4     H1       HDW      0.557330       1.00800           0   0.00000       0.00000    
     29893 TIP3     737      SWM4     H2       HDW      0.557330       1.00800           0   0.00000       0.00000    
     29894 TIP3     738      SWM4     OH2      ODW       1.71640       15.5994           0 -0.978253       1.30000    
     29895 TIP3     738      SWM4     DOH2     DOH2     -1.71640      0.400000           0   0.00000       0.00000    
     29896 TIP3     738      SWM4     OM       LPDW     -1.11466       0.00000          -1   0.00000       0.00000    
     29897 TIP3     738      SWM4     H1       HDW      0.557330       1.00800           0   0.00000       0.00000    
     29898 TIP3     738      SWM4     H2       HDW      0.557330       1.00800           0   0.00000       0.00000    
     29899 TIP3     739      SWM4     OH2      ODW       1.71640       15.5994           0 -0.978253       1.30000    
     29900 TIP3     739      SWM4     DOH2     DOH2     -1.71640      0.400000           0   0.00000       0.00000    
     29901 TIP3     739      SWM4     OM       LPDW     -1.11466       0.00000          -1   0.00000       0.00000    
     29902 TIP3     739      SWM4     H1       HDW      0.557330       1.00800           0   0.00000       0.00000    
     29903 TIP3     739      SWM4     H2       HDW      0.557330       1.00800           0   0.00000       0.00000    
     29904 TIP3     740      SWM4     OH2      ODW       1.71640       15.5994           0 -0.978253       1.30000    
     29905 TIP3     740      SWM4     DOH2     DOH2     -1.71640      0.400000           0   0.00000       0.00000    
     29906 TIP3     740      SWM4     OM       LPDW     -1.11466       0.00000          -1   0.00000       0.00000    
     29907 TIP3     740      SWM4     H1       HDW      0.557330       1.00800           0   0.00000       0.00000    
     29908 TIP3     740      SWM4     H2       HDW      0.557330       1.00800           0   0.00000       0.00000    
     29909 TIP3     741      SWM4     OH2      ODW       1.71640       15.5994           0 -0.978253       1.30000    
     29910 TIP3     741      SWM4     DOH2     DOH2     -1.71640      0.400000           0   0.00000       0.00000    
     29911 TIP3     741      SWM4     OM       LPDW     -1.11466       0.00000          -1   0.00000       0.00000    
     29912 TIP3     741      SWM4     H1       HDW      0.557330       1.00800           0   0.00000       0.00000    
     29913 TIP3     741      SWM4     H2       HDW      0.557330       1.00800           0   0.00000       0.00000    
     29914 TIP3     742      SWM4     OH2      ODW       1.71640       15.5994           0 -0.978253       1.30000    
     29915 TIP3     742      SWM4     DOH2     DOH2     -1.71640      0.400000           0   0.00000       0.00000    
     29916 TIP3     742      SWM4     OM       LPDW     -1.11466       0.00000          -1   0.00000       0.00000    
     29917 TIP3     742      SWM4     H1       HDW      0.557330       1.00800           0   0.00000       0.00000    
     29918 TIP3     742      SWM4     H2       HDW      0.557330       1.00800           0   0.00000       0.00000    
     29919 TIP3     743      SWM4     OH2      ODW       1.71640       15.5994           0 -0.978253       1.30000    
     29920 TIP3     743      SWM4     DOH2     DOH2     -1.71640      0.400000           0   0.00000       0.00000    
     29921 TIP3     743      SWM4     OM       LPDW     -1.11466       0.00000          -1   0.00000       0.00000    
     29922 TIP3     743      SWM4     H1       HDW      0.557330       1.00800           0   0.00000       0.00000    
     29923 TIP3     743      SWM4     H2       HDW      0.557330       1.00800           0   0.00000       0.00000    
     29924 TIP3     744      SWM4     OH2      ODW       1.71640       15.5994           0 -0.978253       1.30000    
     29925 TIP3     744      SWM4     DOH2     DOH2     -1.71640      0.400000           0   0.00000       0.00000    
     29926 TIP3     744      SWM4     OM       LPDW     -1.11466       0.00000          -1   0.00000       0.00000    
     29927 TIP3     744      SWM4     H1       HDW      0.557330       1.00800           0   0.00000       0.00000    
     29928 TIP3     744      SWM4     H2       HDW      0.557330       1.00800           0   0.00000       0.00000    
     29929 TIP3     745      SWM4     OH2      ODW       1.71640       15.5994           0 -0.978253       1.30000    
     29930 TIP3     745      SWM4     DOH2     DOH2     -1.71640      0.400000           0   0.00000       0.00000    
     29931 TIP3     745      SWM4     OM       LPDW     -1.11466       0.00000          -1   0.00000       0.00000    
     29932 TIP3     745      SWM4     H1       HDW      0.557330       1.00800           0   0.00000       0.00000    
     29933 TIP3     745      SWM4     H2       HDW      0.557330       1.00800           0   0.00000       0.00000    
     29934 TIP3     746      SWM4     OH2      ODW       1.71640       15.5994           0 -0.978253       1.30000    
     29935 TIP3     746      SWM4     DOH2     DOH2     -1.71640      0.400000           0   0.00000       0.00000    
     29936 TIP3     746      SWM4     OM       LPDW     -1.11466       0.00000          -1   0.00000       0.00000    
     29937 TIP3     746      SWM4     H1       HDW      0.557330       1.00800           0   0.00000       0.00000    
     29938 TIP3     746      SWM4     H2       HDW      0.557330       1.00800           0   0.00000       0.00000    
     29939 TIP3     747      SWM4     OH2      ODW       1.71640       15.5994           0 -0.978253       1.30000    
     29940 TIP3     747      SWM4     DOH2     DOH2     -1.71640      0.400000           0   0.00000       0.00000    
     29941 TIP3     747      SWM4     OM       LPDW     -1.11466       0.00000          -1   0.00000       0.00000    
     29942 TIP3     747      SWM4     H1       HDW      0.557330       1.00800           0   0.00000       0.00000    
     29943 TIP3     747      SWM4     H2       HDW      0.557330       1.00800           0   0.00000       0.00000    
     29944 TIP3     748      SWM4     OH2      ODW       1.71640       15.5994           0 -0.978253       1.30000    
     29945 TIP3     748      SWM4     DOH2     DOH2     -1.71640      0.400000           0   0.00000       0.00000    
     29946 TIP3     748      SWM4     OM       LPDW     -1.11466       0.00000          -1   0.00000       0.00000    
     29947 TIP3     748      SWM4     H1       HDW      0.557330       1.00800           0   0.00000       0.00000    
     29948 TIP3     748      SWM4     H2       HDW      0.557330       1.00800           0   0.00000       0.00000    
     29949 TIP3     749      SWM4     OH2      ODW       1.71640       15.5994           0 -0.978253       1.30000    
     29950 TIP3     749      SWM4     DOH2     DOH2     -1.71640      0.400000           0   0.00000       0.00000    
     29951 TIP3     749      SWM4     OM       LPDW     -1.11466       0.00000          -1   0.00000       0.00000    
     29952 TIP3     749      SWM4     H1       HDW      0.557330       1.00800           0   0.00000       0.00000    
     29953 TIP3     749      SWM4     H2       HDW      0.557330       1.00800           0   0.00000       0.00000    
     29954 TIP3     750      SWM4     OH2      ODW       1.71640       15.5994           0 -0.978253       1.30000    
     29955 TIP3     750      SWM4     DOH2     DOH2     -1.71640      0.400000           0   0.00000       0.00000    
     29956 TIP3     750      SWM4     OM       LPDW     -1.11466       0.00000          -1   0.00000       0.00000    
     29957 TIP3     750      SWM4     H1       HDW      0.557330       1.00800           0   0.00000       0.00000    
     29958 TIP3     750      SWM4     H2       HDW      0.557330       1.00800           0   0.00000       0.00000    
     29959 TIP3     751      SWM4     OH2      ODW       1.71640       15.5994           0 -0.978253       1.30000    
     29960 TIP3     751      SWM4     DOH2     DOH2     -1.71640      0.400000           0   0.00000       0.00000    
     29961 TIP3     751      SWM4     OM       LPDW     -1.11466       0.00000          -1   0.00000       0.00000    
     29962 TIP3     751      SWM4     H1       HDW      0.557330       1.00800           0   0.00000       0.00000    
     29963 TIP3     751      SWM4     H2       HDW      0.557330       1.00800           0   0.00000       0.00000    
     29964 TIP3     752      SWM4     OH2      ODW       1.71640       15.5994           0 -0.978253       1.30000    
     29965 TIP3     752      SWM4     DOH2     DOH2     -1.71640      0.400000           0   0.00000       0.00000    
     29966 TIP3     752      SWM4     OM       LPDW     -1.11466       0.00000          -1   0.00000       0.00000    
     29967 TIP3     752      SWM4     H1       HDW      0.557330       1.00800           0   0.00000       0.00000    
     29968 TIP3     752      SWM4     H2       HDW      0.557330       1.00800           0   0.00000       0.00000    
     29969 TIP3     753      SWM4     OH2      ODW       1.71640       15.5994           0 -0.978253       1.30000    
     29970 TIP3     753      SWM4     DOH2     DOH2     -1.71640      0.400000           0   0.00000       0.00000    
     29971 TIP3     753      SWM4     OM       LPDW     -1.11466       0.00000          -1   0.00000       0.00000    
     29972 TIP3     753      SWM4     H1       HDW      0.557330       1.00800           0   0.00000       0.00000    
     29973 TIP3     753      SWM4     H2       HDW      0.557330       1.00800           0   0.00000       0.00000    
     29974 TIP3     754      SWM4     OH2      ODW       1.71640       15.5994           0 -0.978253       1.30000    
     29975 TIP3     754      SWM4     DOH2     DOH2     -1.71640      0.400000           0   0.00000       0.00000    
     29976 TIP3     754      SWM4     OM       LPDW     -1.11466       0.00000          -1   0.00000       0.00000    
     29977 TIP3     754      SWM4     H1       HDW      0.557330       1.00800           0   0.00000       0.00000    
     29978 TIP3     754      SWM4     H2       HDW      0.557330       1.00800           0   0.00000       0.00000    
     29979 TIP3     755      SWM4     OH2      ODW       1.71640       15.5994           0 -0.978253       1.30000    
     29980 TIP3     755      SWM4     DOH2     DOH2     -1.71640      0.400000           0   0.00000       0.00000    
     29981 TIP3     755      SWM4     OM       LPDW     -1.11466       0.00000          -1   0.00000       0.00000    
     29982 TIP3     755      SWM4     H1       HDW      0.557330       1.00800           0   0.00000       0.00000    
     29983 TIP3     755      SWM4     H2       HDW      0.557330       1.00800           0   0.00000       0.00000    
     29984 TIP3     756      SWM4     OH2      ODW       1.71640       15.5994           0 -0.978253       1.30000    
     29985 TIP3     756      SWM4     DOH2     DOH2     -1.71640      0.400000           0   0.00000       0.00000    
     29986 TIP3     756      SWM4     OM       LPDW     -1.11466       0.00000          -1   0.00000       0.00000    
     29987 TIP3     756      SWM4     H1       HDW      0.557330       1.00800           0   0.00000       0.00000    
     29988 TIP3     756      SWM4     H2       HDW      0.557330       1.00800           0   0.00000       0.00000    
     29989 TIP3     757      SWM4     OH2      ODW       1.71640       15.5994           0 -0.978253       1.30000    
     29990 TIP3     757      SWM4     DOH2     DOH2     -1.71640      0.400000           0   0.00000       0.00000    
     29991 TIP3     757      SWM4     OM       LPDW     -1.11466       0.00000          -1   0.00000       0.00000    
     29992 TIP3     757      SWM4     H1       HDW      0.557330       1.00800           0   0.00000       0.00000    
     29993 TIP3     757      SWM4     H2       HDW      0.557330       1.00800           0   0.00000       0.00000    
     29994 TIP3     758      SWM4     OH2      ODW       1.71640       15.5994           0 -0.978253       1.30000    
     29995 TIP3     758      SWM4     DOH2     DOH2     -1.71640      0.400000           0   0.00000       0.00000    
     29996 TIP3     758      SWM4     OM       LPDW     -1.11466       0.00000          -1   0.00000       0.00000    
     29997 TIP3     758      SWM4     H1       HDW      0.557330       1.00800           0   0.00000       0.00000    
     29998 TIP3     758      SWM4     H2       HDW      0.557330       1.00800           0   0.00000       0.00000    
     29999 TIP3     759      SWM4     OH2      ODW       1.71640       15.5994           0 -0.978253       1.30000    
     30000 TIP3     759      SWM4     DOH2     DOH2     -1.71640      0.400000           0   0.00000       0.00000    
     30001 TIP3     759      SWM4     OM       LPDW     -1.11466       0.00000          -1   0.00000       0.00000    
     30002 TIP3     759      SWM4     H1       HDW      0.557330       1.00800           0   0.00000       0.00000    
     30003 TIP3     759      SWM4     H2       HDW      0.557330       1.00800           0   0.00000       0.00000    
     30004 TIP3     760      SWM4     OH2      ODW       1.71640       15.5994           0 -0.978253       1.30000    
     30005 TIP3     760      SWM4     DOH2     DOH2     -1.71640      0.400000           0   0.00000       0.00000    
     30006 TIP3     760      SWM4     OM       LPDW     -1.11466       0.00000          -1   0.00000       0.00000    
     30007 TIP3     760      SWM4     H1       HDW      0.557330       1.00800           0   0.00000       0.00000    
     30008 TIP3     760      SWM4     H2       HDW      0.557330       1.00800           0   0.00000       0.00000    
     30009 TIP3     761      SWM4     OH2      ODW       1.71640       15.5994           0 -0.978253       1.30000    
     30010 TIP3     761      SWM4     DOH2     DOH2     -1.71640      0.400000           0   0.00000       0.00000    
     30011 TIP3     761      SWM4     OM       LPDW     -1.11466       0.00000          -1   0.00000       0.00000    
     30012 TIP3     761      SWM4     H1       HDW      0.557330       1.00800           0   0.00000       0.00000    
     30013 TIP3     761      SWM4     H2       HDW      0.557330       1.00800           0   0.00000       0.00000    
     30014 TIP3     762      SWM4     OH2      ODW       1.71640       15.5994           0 -0.978253       1.30000    
     30015 TIP3     762      SWM4     DOH2     DOH2     -1.71640      0.400000           0   0.00000       0.00000    
     30016 TIP3     762      SWM4     OM       LPDW     -1.11466       0.00000          -1   0.00000       0.00000    
     30017 TIP3     762      SWM4     H1       HDW      0.557330       1.00800           0   0.00000       0.00000    
     30018 TIP3     762      SWM4     H2       HDW      0.557330       1.00800           0   0.00000       0.00000    
     30019 TIP3     763      SWM4     OH2      ODW       1.71640       15.5994           0 -0.978253       1.30000    
     30020 TIP3     763      SWM4     DOH2     DOH2     -1.71640      0.400000           0   0.00000       0.00000    
     30021 TIP3     763      SWM4     OM       LPDW     -1.11466       0.00000          -1   0.00000       0.00000    
     30022 TIP3     763      SWM4     H1       HDW      0.557330       1.00800           0   0.00000       0.00000    
     30023 TIP3     763      SWM4     H2       HDW      0.557330       1.00800           0   0.00000       0.00000    
     30024 TIP3     764      SWM4     OH2      ODW       1.71640       15.5994           0 -0.978253       1.30000    
     30025 TIP3     764      SWM4     DOH2     DOH2     -1.71640      0.400000           0   0.00000       0.00000    
     30026 TIP3     764      SWM4     OM       LPDW     -1.11466       0.00000          -1   0.00000       0.00000    
     30027 TIP3     764      SWM4     H1       HDW      0.557330       1.00800           0   0.00000       0.00000    
     30028 TIP3     764      SWM4     H2       HDW      0.557330       1.00800           0   0.00000       0.00000    
     30029 TIP3     765      SWM4     OH2      ODW       1.71640       15.5994           0 -0.978253       1.30000    
     30030 TIP3     765      SWM4     DOH2     DOH2     -1.71640      0.400000           0   0.00000       0.00000    
     30031 TIP3     765      SWM4     OM       LPDW     -1.11466       0.00000          -1   0.00000       0.00000    
     30032 TIP3     765      SWM4     H1       HDW      0.557330       1.00800           0   0.00000       0.00000    
     30033 TIP3     765      SWM4     H2       HDW      0.557330       1.00800           0   0.00000       0.00000    
     30034 TIP3     766      SWM4     OH2      ODW       1.71640       15.5994           0 -0.978253       1.30000    
     30035 TIP3     766      SWM4     DOH2     DOH2     -1.71640      0.400000           0   0.00000       0.00000    
     30036 TIP3     766      SWM4     OM       LPDW     -1.11466       0.00000          -1   0.00000       0.00000    
     30037 TIP3     766      SWM4     H1       HDW      0.557330       1.00800           0   0.00000       0.00000    
     30038 TIP3     766      SWM4     H2       HDW      0.557330       1.00800           0   0.00000       0.00000    
     30039 TIP3     767      SWM4     OH2      ODW       1.71640       15.5994           0 -0.978253       1.30000    
     30040 TIP3     767      SWM4     DOH2     DOH2     -1.71640      0.400000           0   0.00000       0.00000    
     30041 TIP3     767      SWM4     OM       LPDW     -1.11466       0.00000          -1   0.00000       0.00000    
     30042 TIP3     767      SWM4     H1       HDW      0.557330       1.00800           0   0.00000       0.00000    
     30043 TIP3     767      SWM4     H2       HDW      0.557330       1.00800           0   0.00000       0.00000    
     30044 TIP3     768      SWM4     OH2      ODW       1.71640       15.5994           0 -0.978253       1.30000    
     30045 TIP3     768      SWM4     DOH2     DOH2     -1.71640      0.400000           0   0.00000       0.00000    
     30046 TIP3     768      SWM4     OM       LPDW     -1.11466       0.00000          -1   0.00000       0.00000    
     30047 TIP3     768      SWM4     H1       HDW      0.557330       1.00800           0   0.00000       0.00000    
     30048 TIP3     768      SWM4     H2       HDW      0.557330       1.00800           0   0.00000       0.00000    
     30049 TIP3     769      SWM4     OH2      ODW       1.71640       15.5994           0 -0.978253       1.30000    
     30050 TIP3     769      SWM4     DOH2     DOH2     -1.71640      0.400000           0   0.00000       0.00000    
     30051 TIP3     769      SWM4     OM       LPDW     -1.11466       0.00000          -1   0.00000       0.00000    
     30052 TIP3     769      SWM4     H1       HDW      0.557330       1.00800           0   0.00000       0.00000    
     30053 TIP3     769      SWM4     H2       HDW      0.557330       1.00800           0   0.00000       0.00000    
     30054 TIP3     770      SWM4     OH2      ODW       1.71640       15.5994           0 -0.978253       1.30000    
     30055 TIP3     770      SWM4     DOH2     DOH2     -1.71640      0.400000           0   0.00000       0.00000    
     30056 TIP3     770      SWM4     OM       LPDW     -1.11466       0.00000          -1   0.00000       0.00000    
     30057 TIP3     770      SWM4     H1       HDW      0.557330       1.00800           0   0.00000       0.00000    
     30058 TIP3     770      SWM4     H2       HDW      0.557330       1.00800           0   0.00000       0.00000    
     30059 TIP3     771      SWM4     OH2      ODW       1.71640       15.5994           0 -0.978253       1.30000    
     30060 TIP3     771      SWM4     DOH2     DOH2     -1.71640      0.400000           0   0.00000       0.00000    
     30061 TIP3     771      SWM4     OM       LPDW     -1.11466       0.00000          -1   0.00000       0.00000    
     30062 TIP3     771      SWM4     H1       HDW      0.557330       1.00800           0   0.00000       0.00000    
     30063 TIP3     771      SWM4     H2       HDW      0.557330       1.00800           0   0.00000       0.00000    
     30064 TIP3     772      SWM4     OH2      ODW       1.71640       15.5994           0 -0.978253       1.30000    
     30065 TIP3     772      SWM4     DOH2     DOH2     -1.71640      0.400000           0   0.00000       0.00000    
     30066 TIP3     772      SWM4     OM       LPDW     -1.11466       0.00000          -1   0.00000       0.00000    
     30067 TIP3     772      SWM4     H1       HDW      0.557330       1.00800           0   0.00000       0.00000    
     30068 TIP3     772      SWM4     H2       HDW      0.557330       1.00800           0   0.00000       0.00000    
     30069 TIP3     773      SWM4     OH2      ODW       1.71640       15.5994           0 -0.978253       1.30000    
     30070 TIP3     773      SWM4     DOH2     DOH2     -1.71640      0.400000           0   0.00000       0.00000    
     30071 TIP3     773      SWM4     OM       LPDW     -1.11466       0.00000          -1   0.00000       0.00000    
     30072 TIP3     773      SWM4     H1       HDW      0.557330       1.00800           0   0.00000       0.00000    
     30073 TIP3     773      SWM4     H2       HDW      0.557330       1.00800           0   0.00000       0.00000    
     30074 TIP3     774      SWM4     OH2      ODW       1.71640       15.5994           0 -0.978253       1.30000    
     30075 TIP3     774      SWM4     DOH2     DOH2     -1.71640      0.400000           0   0.00000       0.00000    
     30076 TIP3     774      SWM4     OM       LPDW     -1.11466       0.00000          -1   0.00000       0.00000    
     30077 TIP3     774      SWM4     H1       HDW      0.557330       1.00800           0   0.00000       0.00000    
     30078 TIP3     774      SWM4     H2       HDW      0.557330       1.00800           0   0.00000       0.00000    
     30079 TIP3     775      SWM4     OH2      ODW       1.71640       15.5994           0 -0.978253       1.30000    
     30080 TIP3     775      SWM4     DOH2     DOH2     -1.71640      0.400000           0   0.00000       0.00000    
     30081 TIP3     775      SWM4     OM       LPDW     -1.11466       0.00000          -1   0.00000       0.00000    
     30082 TIP3     775      SWM4     H1       HDW      0.557330       1.00800           0   0.00000       0.00000    
     30083 TIP3     775      SWM4     H2       HDW      0.557330       1.00800           0   0.00000       0.00000    
     30084 TIP3     776      SWM4     OH2      ODW       1.71640       15.5994           0 -0.978253       1.30000    
     30085 TIP3     776      SWM4     DOH2     DOH2     -1.71640      0.400000           0   0.00000       0.00000    
     30086 TIP3     776      SWM4     OM       LPDW     -1.11466       0.00000          -1   0.00000       0.00000    
     30087 TIP3     776      SWM4     H1       HDW      0.557330       1.00800           0   0.00000       0.00000    
     30088 TIP3     776      SWM4     H2       HDW      0.557330       1.00800           0   0.00000       0.00000    
     30089 TIP3     777      SWM4     OH2      ODW       1.71640       15.5994           0 -0.978253       1.30000    
     30090 TIP3     777      SWM4     DOH2     DOH2     -1.71640      0.400000           0   0.00000       0.00000    
     30091 TIP3     777      SWM4     OM       LPDW     -1.11466       0.00000          -1   0.00000       0.00000    
     30092 TIP3     777      SWM4     H1       HDW      0.557330       1.00800           0   0.00000       0.00000    
     30093 TIP3     777      SWM4     H2       HDW      0.557330       1.00800           0   0.00000       0.00000    
     30094 TIP3     778      SWM4     OH2      ODW       1.71640       15.5994           0 -0.978253       1.30000    
     30095 TIP3     778      SWM4     DOH2     DOH2     -1.71640      0.400000           0   0.00000       0.00000    
     30096 TIP3     778      SWM4     OM       LPDW     -1.11466       0.00000          -1   0.00000       0.00000    
     30097 TIP3     778      SWM4     H1       HDW      0.557330       1.00800           0   0.00000       0.00000    
     30098 TIP3     778      SWM4     H2       HDW      0.557330       1.00800           0   0.00000       0.00000    
     30099 TIP3     779      SWM4     OH2      ODW       1.71640       15.5994           0 -0.978253       1.30000    
     30100 TIP3     779      SWM4     DOH2     DOH2     -1.71640      0.400000           0   0.00000       0.00000    
     30101 TIP3     779      SWM4     OM       LPDW     -1.11466       0.00000          -1   0.00000       0.00000    
     30102 TIP3     779      SWM4     H1       HDW      0.557330       1.00800           0   0.00000       0.00000    
     30103 TIP3     779      SWM4     H2       HDW      0.557330       1.00800           0   0.00000       0.00000    
     30104 TIP3     780      SWM4     OH2      ODW       1.71640       15.5994           0 -0.978253       1.30000    
     30105 TIP3     780      SWM4     DOH2     DOH2     -1.71640      0.400000           0   0.00000       0.00000    
     30106 TIP3     780      SWM4     OM       LPDW     -1.11466       0.00000          -1   0.00000       0.00000    
     30107 TIP3     780      SWM4     H1       HDW      0.557330       1.00800           0   0.00000       0.00000    
     30108 TIP3     780      SWM4     H2       HDW      0.557330       1.00800           0   0.00000       0.00000    
     30109 TIP3     781      SWM4     OH2      ODW       1.71640       15.5994           0 -0.978253       1.30000    
     30110 TIP3     781      SWM4     DOH2     DOH2     -1.71640      0.400000           0   0.00000       0.00000    
     30111 TIP3     781      SWM4     OM       LPDW     -1.11466       0.00000          -1   0.00000       0.00000    
     30112 TIP3     781      SWM4     H1       HDW      0.557330       1.00800           0   0.00000       0.00000    
     30113 TIP3     781      SWM4     H2       HDW      0.557330       1.00800           0   0.00000       0.00000    
     30114 TIP3     782      SWM4     OH2      ODW       1.71640       15.5994           0 -0.978253       1.30000    
     30115 TIP3     782      SWM4     DOH2     DOH2     -1.71640      0.400000           0   0.00000       0.00000    
     30116 TIP3     782      SWM4     OM       LPDW     -1.11466       0.00000          -1   0.00000       0.00000    
     30117 TIP3     782      SWM4     H1       HDW      0.557330       1.00800           0   0.00000       0.00000    
     30118 TIP3     782      SWM4     H2       HDW      0.557330       1.00800           0   0.00000       0.00000    
     30119 TIP3     783      SWM4     OH2      ODW       1.71640       15.5994           0 -0.978253       1.30000    
     30120 TIP3     783      SWM4     DOH2     DOH2     -1.71640      0.400000           0   0.00000       0.00000    
     30121 TIP3     783      SWM4     OM       LPDW     -1.11466       0.00000          -1   0.00000       0.00000    
     30122 TIP3     783      SWM4     H1       HDW      0.557330       1.00800           0   0.00000       0.00000    
     30123 TIP3     783      SWM4     H2       HDW      0.557330       1.00800           0   0.00000       0.00000    
     30124 TIP3     784      SWM4     OH2      ODW       1.71640       15.5994           0 -0.978253       1.30000    
     30125 TIP3     784      SWM4     DOH2     DOH2     -1.71640      0.400000           0   0.00000       0.00000    
     30126 TIP3     784      SWM4     OM       LPDW     -1.11466       0.00000          -1   0.00000       0.00000    
     30127 TIP3     784      SWM4     H1       HDW      0.557330       1.00800           0   0.00000       0.00000    
     30128 TIP3     784      SWM4     H2       HDW      0.557330       1.00800           0   0.00000       0.00000    
     30129 TIP3     785      SWM4     OH2      ODW       1.71640       15.5994           0 -0.978253       1.30000    
     30130 TIP3     785      SWM4     DOH2     DOH2     -1.71640      0.400000           0   0.00000       0.00000    
     30131 TIP3     785      SWM4     OM       LPDW     -1.11466       0.00000          -1   0.00000       0.00000    
     30132 TIP3     785      SWM4     H1       HDW      0.557330       1.00800           0   0.00000       0.00000    
     30133 TIP3     785      SWM4     H2       HDW      0.557330       1.00800           0   0.00000       0.00000    
     30134 TIP3     786      SWM4     OH2      ODW       1.71640       15.5994           0 -0.978253       1.30000    
     30135 TIP3     786      SWM4     DOH2     DOH2     -1.71640      0.400000           0   0.00000       0.00000    
     30136 TIP3     786      SWM4     OM       LPDW     -1.11466       0.00000          -1   0.00000       0.00000    
     30137 TIP3     786      SWM4     H1       HDW      0.557330       1.00800           0   0.00000       0.00000    
     30138 TIP3     786      SWM4     H2       HDW      0.557330       1.00800           0   0.00000       0.00000    
     30139 TIP3     787      SWM4     OH2      ODW       1.71640       15.5994           0 -0.978253       1.30000    
     30140 TIP3     787      SWM4     DOH2     DOH2     -1.71640      0.400000           0   0.00000       0.00000    
     30141 TIP3     787      SWM4     OM       LPDW     -1.11466       0.00000          -1   0.00000       0.00000    
     30142 TIP3     787      SWM4     H1       HDW      0.557330       1.00800           0   0.00000       0.00000    
     30143 TIP3     787      SWM4     H2       HDW      0.557330       1.00800           0   0.00000       0.00000    
     30144 TIP3     788      SWM4     OH2      ODW       1.71640       15.5994           0 -0.978253       1.30000    
     30145 TIP3     788      SWM4     DOH2     DOH2     -1.71640      0.400000           0   0.00000       0.00000    
     30146 TIP3     788      SWM4     OM       LPDW     -1.11466       0.00000          -1   0.00000       0.00000    
     30147 TIP3     788      SWM4     H1       HDW      0.557330       1.00800           0   0.00000       0.00000    
     30148 TIP3     788      SWM4     H2       HDW      0.557330       1.00800           0   0.00000       0.00000    
     30149 TIP3     789      SWM4     OH2      ODW       1.71640       15.5994           0 -0.978253       1.30000    
     30150 TIP3     789      SWM4     DOH2     DOH2     -1.71640      0.400000           0   0.00000       0.00000    
     30151 TIP3     789      SWM4     OM       LPDW     -1.11466       0.00000          -1   0.00000       0.00000    
     30152 TIP3     789      SWM4     H1       HDW      0.557330       1.00800           0   0.00000       0.00000    
     30153 TIP3     789      SWM4     H2       HDW      0.557330       1.00800           0   0.00000       0.00000    
     30154 TIP3     790      SWM4     OH2      ODW       1.71640       15.5994           0 -0.978253       1.30000    
     30155 TIP3     790      SWM4     DOH2     DOH2     -1.71640      0.400000           0   0.00000       0.00000    
     30156 TIP3     790      SWM4     OM       LPDW     -1.11466       0.00000          -1   0.00000       0.00000    
     30157 TIP3     790      SWM4     H1       HDW      0.557330       1.00800           0   0.00000       0.00000    
     30158 TIP3     790      SWM4     H2       HDW      0.557330       1.00800           0   0.00000       0.00000    
     30159 TIP3     791      SWM4     OH2      ODW       1.71640       15.5994           0 -0.978253       1.30000    
     30160 TIP3     791      SWM4     DOH2     DOH2     -1.71640      0.400000           0   0.00000       0.00000    
     30161 TIP3     791      SWM4     OM       LPDW     -1.11466       0.00000          -1   0.00000       0.00000    
     30162 TIP3     791      SWM4     H1       HDW      0.557330       1.00800           0   0.00000       0.00000    
     30163 TIP3     791      SWM4     H2       HDW      0.557330       1.00800           0   0.00000       0.00000    
     30164 TIP3     792      SWM4     OH2      ODW       1.71640       15.5994           0 -0.978253       1.30000    
     30165 TIP3     792      SWM4     DOH2     DOH2     -1.71640      0.400000           0   0.00000       0.00000    
     30166 TIP3     792      SWM4     OM       LPDW     -1.11466       0.00000          -1   0.00000       0.00000    
     30167 TIP3     792      SWM4     H1       HDW      0.557330       1.00800           0   0.00000       0.00000    
     30168 TIP3     792      SWM4     H2       HDW      0.557330       1.00800           0   0.00000       0.00000    
     30169 TIP3     793      SWM4     OH2      ODW       1.71640       15.5994           0 -0.978253       1.30000    
     30170 TIP3     793      SWM4     DOH2     DOH2     -1.71640      0.400000           0   0.00000       0.00000    
     30171 TIP3     793      SWM4     OM       LPDW     -1.11466       0.00000          -1   0.00000       0.00000    
     30172 TIP3     793      SWM4     H1       HDW      0.557330       1.00800           0   0.00000       0.00000    
     30173 TIP3     793      SWM4     H2       HDW      0.557330       1.00800           0   0.00000       0.00000    
     30174 TIP3     794      SWM4     OH2      ODW       1.71640       15.5994           0 -0.978253       1.30000    
     30175 TIP3     794      SWM4     DOH2     DOH2     -1.71640      0.400000           0   0.00000       0.00000    
     30176 TIP3     794      SWM4     OM       LPDW     -1.11466       0.00000          -1   0.00000       0.00000    
     30177 TIP3     794      SWM4     H1       HDW      0.557330       1.00800           0   0.00000       0.00000    
     30178 TIP3     794      SWM4     H2       HDW      0.557330       1.00800           0   0.00000       0.00000    
     30179 TIP3     795      SWM4     OH2      ODW       1.71640       15.5994           0 -0.978253       1.30000    
     30180 TIP3     795      SWM4     DOH2     DOH2     -1.71640      0.400000           0   0.00000       0.00000    
     30181 TIP3     795      SWM4     OM       LPDW     -1.11466       0.00000          -1   0.00000       0.00000    
     30182 TIP3     795      SWM4     H1       HDW      0.557330       1.00800           0   0.00000       0.00000    
     30183 TIP3     795      SWM4     H2       HDW      0.557330       1.00800           0   0.00000       0.00000    
     30184 TIP3     796      SWM4     OH2      ODW       1.71640       15.5994           0 -0.978253       1.30000    
     30185 TIP3     796      SWM4     DOH2     DOH2     -1.71640      0.400000           0   0.00000       0.00000    
     30186 TIP3     796      SWM4     OM       LPDW     -1.11466       0.00000          -1   0.00000       0.00000    
     30187 TIP3     796      SWM4     H1       HDW      0.557330       1.00800           0   0.00000       0.00000    
     30188 TIP3     796      SWM4     H2       HDW      0.557330       1.00800           0   0.00000       0.00000    
     30189 TIP3     797      SWM4     OH2      ODW       1.71640       15.5994           0 -0.978253       1.30000    
     30190 TIP3     797      SWM4     DOH2     DOH2     -1.71640      0.400000           0   0.00000       0.00000    
     30191 TIP3     797      SWM4     OM       LPDW     -1.11466       0.00000          -1   0.00000       0.00000    
     30192 TIP3     797      SWM4     H1       HDW      0.557330       1.00800           0   0.00000       0.00000    
     30193 TIP3     797      SWM4     H2       HDW      0.557330       1.00800           0   0.00000       0.00000    
     30194 TIP3     798      SWM4     OH2      ODW       1.71640       15.5994           0 -0.978253       1.30000    
     30195 TIP3     798      SWM4     DOH2     DOH2     -1.71640      0.400000           0   0.00000       0.00000    
     30196 TIP3     798      SWM4     OM       LPDW     -1.11466       0.00000          -1   0.00000       0.00000    
     30197 TIP3     798      SWM4     H1       HDW      0.557330       1.00800           0   0.00000       0.00000    
     30198 TIP3     798      SWM4     H2       HDW      0.557330       1.00800           0   0.00000       0.00000    
     30199 TIP3     799      SWM4     OH2      ODW       1.71640       15.5994           0 -0.978253       1.30000    
     30200 TIP3     799      SWM4     DOH2     DOH2     -1.71640      0.400000           0   0.00000       0.00000    
     30201 TIP3     799      SWM4     OM       LPDW     -1.11466       0.00000          -1   0.00000       0.00000    
     30202 TIP3     799      SWM4     H1       HDW      0.557330       1.00800           0   0.00000       0.00000    
     30203 TIP3     799      SWM4     H2       HDW      0.557330       1.00800           0   0.00000       0.00000    
     30204 TIP3     800      SWM4     OH2      ODW       1.71640       15.5994           0 -0.978253       1.30000    
     30205 TIP3     800      SWM4     DOH2     DOH2     -1.71640      0.400000           0   0.00000       0.00000    
     30206 TIP3     800      SWM4     OM       LPDW     -1.11466       0.00000          -1   0.00000       0.00000    
     30207 TIP3     800      SWM4     H1       HDW      0.557330       1.00800           0   0.00000       0.00000    
     30208 TIP3     800      SWM4     H2       HDW      0.557330       1.00800           0   0.00000       0.00000    
     30209 TIP3     801      SWM4     OH2      ODW       1.71640       15.5994           0 -0.978253       1.30000    
     30210 TIP3     801      SWM4     DOH2     DOH2     -1.71640      0.400000           0   0.00000       0.00000    
     30211 TIP3     801      SWM4     OM       LPDW     -1.11466       0.00000          -1   0.00000       0.00000    
     30212 TIP3     801      SWM4     H1       HDW      0.557330       1.00800           0   0.00000       0.00000    
     30213 TIP3     801      SWM4     H2       HDW      0.557330       1.00800           0   0.00000       0.00000    
     30214 TIP3     802      SWM4     OH2      ODW       1.71640       15.5994           0 -0.978253       1.30000    
     30215 TIP3     802      SWM4     DOH2     DOH2     -1.71640      0.400000           0   0.00000       0.00000    
     30216 TIP3     802      SWM4     OM       LPDW     -1.11466       0.00000          -1   0.00000       0.00000    
     30217 TIP3     802      SWM4     H1       HDW      0.557330       1.00800           0   0.00000       0.00000    
     30218 TIP3     802      SWM4     H2       HDW      0.557330       1.00800           0   0.00000       0.00000    
     30219 TIP3     803      SWM4     OH2      ODW       1.71640       15.5994           0 -0.978253       1.30000    
     30220 TIP3     803      SWM4     DOH2     DOH2     -1.71640      0.400000           0   0.00000       0.00000    
     30221 TIP3     803      SWM4     OM       LPDW     -1.11466       0.00000          -1   0.00000       0.00000    
     30222 TIP3     803      SWM4     H1       HDW      0.557330       1.00800           0   0.00000       0.00000    
     30223 TIP3     803      SWM4     H2       HDW      0.557330       1.00800           0   0.00000       0.00000    
     30224 TIP3     804      SWM4     OH2      ODW       1.71640       15.5994           0 -0.978253       1.30000    
     30225 TIP3     804      SWM4     DOH2     DOH2     -1.71640      0.400000           0   0.00000       0.00000    
     30226 TIP3     804      SWM4     OM       LPDW     -1.11466       0.00000          -1   0.00000       0.00000    
     30227 TIP3     804      SWM4     H1       HDW      0.557330       1.00800           0   0.00000       0.00000    
     30228 TIP3     804      SWM4     H2       HDW      0.557330       1.00800           0   0.00000       0.00000    
     30229 TIP3     805      SWM4     OH2      ODW       1.71640       15.5994           0 -0.978253       1.30000    
     30230 TIP3     805      SWM4     DOH2     DOH2     -1.71640      0.400000           0   0.00000       0.00000    
     30231 TIP3     805      SWM4     OM       LPDW     -1.11466       0.00000          -1   0.00000       0.00000    
     30232 TIP3     805      SWM4     H1       HDW      0.557330       1.00800           0   0.00000       0.00000    
     30233 TIP3     805      SWM4     H2       HDW      0.557330       1.00800           0   0.00000       0.00000    
     30234 TIP3     806      SWM4     OH2      ODW       1.71640       15.5994           0 -0.978253       1.30000    
     30235 TIP3     806      SWM4     DOH2     DOH2     -1.71640      0.400000           0   0.00000       0.00000    
     30236 TIP3     806      SWM4     OM       LPDW     -1.11466       0.00000          -1   0.00000       0.00000    
     30237 TIP3     806      SWM4     H1       HDW      0.557330       1.00800           0   0.00000       0.00000    
     30238 TIP3     806      SWM4     H2       HDW      0.557330       1.00800           0   0.00000       0.00000    
     30239 TIP3     807      SWM4     OH2      ODW       1.71640       15.5994           0 -0.978253       1.30000    
     30240 TIP3     807      SWM4     DOH2     DOH2     -1.71640      0.400000           0   0.00000       0.00000    
     30241 TIP3     807      SWM4     OM       LPDW     -1.11466       0.00000          -1   0.00000       0.00000    
     30242 TIP3     807      SWM4     H1       HDW      0.557330       1.00800           0   0.00000       0.00000    
     30243 TIP3     807      SWM4     H2       HDW      0.557330       1.00800           0   0.00000       0.00000    
     30244 TIP3     808      SWM4     OH2      ODW       1.71640       15.5994           0 -0.978253       1.30000    
     30245 TIP3     808      SWM4     DOH2     DOH2     -1.71640      0.400000           0   0.00000       0.00000    
     30246 TIP3     808      SWM4     OM       LPDW     -1.11466       0.00000          -1   0.00000       0.00000    
     30247 TIP3     808      SWM4     H1       HDW      0.557330       1.00800           0   0.00000       0.00000    
     30248 TIP3     808      SWM4     H2       HDW      0.557330       1.00800           0   0.00000       0.00000    
     30249 TIP3     809      SWM4     OH2      ODW       1.71640       15.5994           0 -0.978253       1.30000    
     30250 TIP3     809      SWM4     DOH2     DOH2     -1.71640      0.400000           0   0.00000       0.00000    
     30251 TIP3     809      SWM4     OM       LPDW     -1.11466       0.00000          -1   0.00000       0.00000    
     30252 TIP3     809      SWM4     H1       HDW      0.557330       1.00800           0   0.00000       0.00000    
     30253 TIP3     809      SWM4     H2       HDW      0.557330       1.00800           0   0.00000       0.00000    
     30254 TIP3     810      SWM4     OH2      ODW       1.71640       15.5994           0 -0.978253       1.30000    
     30255 TIP3     810      SWM4     DOH2     DOH2     -1.71640      0.400000           0   0.00000       0.00000    
     30256 TIP3     810      SWM4     OM       LPDW     -1.11466       0.00000          -1   0.00000       0.00000    
     30257 TIP3     810      SWM4     H1       HDW      0.557330       1.00800           0   0.00000       0.00000    
     30258 TIP3     810      SWM4     H2       HDW      0.557330       1.00800           0   0.00000       0.00000    
     30259 TIP3     811      SWM4     OH2      ODW       1.71640       15.5994           0 -0.978253       1.30000    
     30260 TIP3     811      SWM4     DOH2     DOH2     -1.71640      0.400000           0   0.00000       0.00000    
     30261 TIP3     811      SWM4     OM       LPDW     -1.11466       0.00000          -1   0.00000       0.00000    
     30262 TIP3     811      SWM4     H1       HDW      0.557330       1.00800           0   0.00000       0.00000    
     30263 TIP3     811      SWM4     H2       HDW      0.557330       1.00800           0   0.00000       0.00000    
     30264 TIP3     812      SWM4     OH2      ODW       1.71640       15.5994           0 -0.978253       1.30000    
     30265 TIP3     812      SWM4     DOH2     DOH2     -1.71640      0.400000           0   0.00000       0.00000    
     30266 TIP3     812      SWM4     OM       LPDW     -1.11466       0.00000          -1   0.00000       0.00000    
     30267 TIP3     812      SWM4     H1       HDW      0.557330       1.00800           0   0.00000       0.00000    
     30268 TIP3     812      SWM4     H2       HDW      0.557330       1.00800           0   0.00000       0.00000    
     30269 TIP3     813      SWM4     OH2      ODW       1.71640       15.5994           0 -0.978253       1.30000    
     30270 TIP3     813      SWM4     DOH2     DOH2     -1.71640      0.400000           0   0.00000       0.00000    
     30271 TIP3     813      SWM4     OM       LPDW     -1.11466       0.00000          -1   0.00000       0.00000    
     30272 TIP3     813      SWM4     H1       HDW      0.557330       1.00800           0   0.00000       0.00000    
     30273 TIP3     813      SWM4     H2       HDW      0.557330       1.00800           0   0.00000       0.00000    
     30274 TIP3     814      SWM4     OH2      ODW       1.71640       15.5994           0 -0.978253       1.30000    
     30275 TIP3     814      SWM4     DOH2     DOH2     -1.71640      0.400000           0   0.00000       0.00000    
     30276 TIP3     814      SWM4     OM       LPDW     -1.11466       0.00000          -1   0.00000       0.00000    
     30277 TIP3     814      SWM4     H1       HDW      0.557330       1.00800           0   0.00000       0.00000    
     30278 TIP3     814      SWM4     H2       HDW      0.557330       1.00800           0   0.00000       0.00000    
     30279 TIP3     815      SWM4     OH2      ODW       1.71640       15.5994           0 -0.978253       1.30000    
     30280 TIP3     815      SWM4     DOH2     DOH2     -1.71640      0.400000           0   0.00000       0.00000    
     30281 TIP3     815      SWM4     OM       LPDW     -1.11466       0.00000          -1   0.00000       0.00000    
     30282 TIP3     815      SWM4     H1       HDW      0.557330       1.00800           0   0.00000       0.00000    
     30283 TIP3     815      SWM4     H2       HDW      0.557330       1.00800           0   0.00000       0.00000    
     30284 TIP3     816      SWM4     OH2      ODW       1.71640       15.5994           0 -0.978253       1.30000    
     30285 TIP3     816      SWM4     DOH2     DOH2     -1.71640      0.400000           0   0.00000       0.00000    
     30286 TIP3     816      SWM4     OM       LPDW     -1.11466       0.00000          -1   0.00000       0.00000    
     30287 TIP3     816      SWM4     H1       HDW      0.557330       1.00800           0   0.00000       0.00000    
     30288 TIP3     816      SWM4     H2       HDW      0.557330       1.00800           0   0.00000       0.00000    
     30289 TIP3     817      SWM4     OH2      ODW       1.71640       15.5994           0 -0.978253       1.30000    
     30290 TIP3     817      SWM4     DOH2     DOH2     -1.71640      0.400000           0   0.00000       0.00000    
     30291 TIP3     817      SWM4     OM       LPDW     -1.11466       0.00000          -1   0.00000       0.00000    
     30292 TIP3     817      SWM4     H1       HDW      0.557330       1.00800           0   0.00000       0.00000    
     30293 TIP3     817      SWM4     H2       HDW      0.557330       1.00800           0   0.00000       0.00000    
     30294 TIP3     818      SWM4     OH2      ODW       1.71640       15.5994           0 -0.978253       1.30000    
     30295 TIP3     818      SWM4     DOH2     DOH2     -1.71640      0.400000           0   0.00000       0.00000    
     30296 TIP3     818      SWM4     OM       LPDW     -1.11466       0.00000          -1   0.00000       0.00000    
     30297 TIP3     818      SWM4     H1       HDW      0.557330       1.00800           0   0.00000       0.00000    
     30298 TIP3     818      SWM4     H2       HDW      0.557330       1.00800           0   0.00000       0.00000    
     30299 TIP3     819      SWM4     OH2      ODW       1.71640       15.5994           0 -0.978253       1.30000    
     30300 TIP3     819      SWM4     DOH2     DOH2     -1.71640      0.400000           0   0.00000       0.00000    
     30301 TIP3     819      SWM4     OM       LPDW     -1.11466       0.00000          -1   0.00000       0.00000    
     30302 TIP3     819      SWM4     H1       HDW      0.557330       1.00800           0   0.00000       0.00000    
     30303 TIP3     819      SWM4     H2       HDW      0.557330       1.00800           0   0.00000       0.00000    
     30304 TIP3     820      SWM4     OH2      ODW       1.71640       15.5994           0 -0.978253       1.30000    
     30305 TIP3     820      SWM4     DOH2     DOH2     -1.71640      0.400000           0   0.00000       0.00000    
     30306 TIP3     820      SWM4     OM       LPDW     -1.11466       0.00000          -1   0.00000       0.00000    
     30307 TIP3     820      SWM4     H1       HDW      0.557330       1.00800           0   0.00000       0.00000    
     30308 TIP3     820      SWM4     H2       HDW      0.557330       1.00800           0   0.00000       0.00000    
     30309 TIP3     821      SWM4     OH2      ODW       1.71640       15.5994           0 -0.978253       1.30000    
     30310 TIP3     821      SWM4     DOH2     DOH2     -1.71640      0.400000           0   0.00000       0.00000    
     30311 TIP3     821      SWM4     OM       LPDW     -1.11466       0.00000          -1   0.00000       0.00000    
     30312 TIP3     821      SWM4     H1       HDW      0.557330       1.00800           0   0.00000       0.00000    
     30313 TIP3     821      SWM4     H2       HDW      0.557330       1.00800           0   0.00000       0.00000    
     30314 TIP3     822      SWM4     OH2      ODW       1.71640       15.5994           0 -0.978253       1.30000    
     30315 TIP3     822      SWM4     DOH2     DOH2     -1.71640      0.400000           0   0.00000       0.00000    
     30316 TIP3     822      SWM4     OM       LPDW     -1.11466       0.00000          -1   0.00000       0.00000    
     30317 TIP3     822      SWM4     H1       HDW      0.557330       1.00800           0   0.00000       0.00000    
     30318 TIP3     822      SWM4     H2       HDW      0.557330       1.00800           0   0.00000       0.00000    
     30319 TIP3     823      SWM4     OH2      ODW       1.71640       15.5994           0 -0.978253       1.30000    
     30320 TIP3     823      SWM4     DOH2     DOH2     -1.71640      0.400000           0   0.00000       0.00000    
     30321 TIP3     823      SWM4     OM       LPDW     -1.11466       0.00000          -1   0.00000       0.00000    
     30322 TIP3     823      SWM4     H1       HDW      0.557330       1.00800           0   0.00000       0.00000    
     30323 TIP3     823      SWM4     H2       HDW      0.557330       1.00800           0   0.00000       0.00000    
     30324 TIP3     824      SWM4     OH2      ODW       1.71640       15.5994           0 -0.978253       1.30000    
     30325 TIP3     824      SWM4     DOH2     DOH2     -1.71640      0.400000           0   0.00000       0.00000    
     30326 TIP3     824      SWM4     OM       LPDW     -1.11466       0.00000          -1   0.00000       0.00000    
     30327 TIP3     824      SWM4     H1       HDW      0.557330       1.00800           0   0.00000       0.00000    
     30328 TIP3     824      SWM4     H2       HDW      0.557330       1.00800           0   0.00000       0.00000    
     30329 TIP3     825      SWM4     OH2      ODW       1.71640       15.5994           0 -0.978253       1.30000    
     30330 TIP3     825      SWM4     DOH2     DOH2     -1.71640      0.400000           0   0.00000       0.00000    
     30331 TIP3     825      SWM4     OM       LPDW     -1.11466       0.00000          -1   0.00000       0.00000    
     30332 TIP3     825      SWM4     H1       HDW      0.557330       1.00800           0   0.00000       0.00000    
     30333 TIP3     825      SWM4     H2       HDW      0.557330       1.00800           0   0.00000       0.00000    
     30334 TIP3     826      SWM4     OH2      ODW       1.71640       15.5994           0 -0.978253       1.30000    
     30335 TIP3     826      SWM4     DOH2     DOH2     -1.71640      0.400000           0   0.00000       0.00000    
     30336 TIP3     826      SWM4     OM       LPDW     -1.11466       0.00000          -1   0.00000       0.00000    
     30337 TIP3     826      SWM4     H1       HDW      0.557330       1.00800           0   0.00000       0.00000    
     30338 TIP3     826      SWM4     H2       HDW      0.557330       1.00800           0   0.00000       0.00000    
     30339 TIP3     827      SWM4     OH2      ODW       1.71640       15.5994           0 -0.978253       1.30000    
     30340 TIP3     827      SWM4     DOH2     DOH2     -1.71640      0.400000           0   0.00000       0.00000    
     30341 TIP3     827      SWM4     OM       LPDW     -1.11466       0.00000          -1   0.00000       0.00000    
     30342 TIP3     827      SWM4     H1       HDW      0.557330       1.00800           0   0.00000       0.00000    
     30343 TIP3     827      SWM4     H2       HDW      0.557330       1.00800           0   0.00000       0.00000    
     30344 TIP3     828      SWM4     OH2      ODW       1.71640       15.5994           0 -0.978253       1.30000    
     30345 TIP3     828      SWM4     DOH2     DOH2     -1.71640      0.400000           0   0.00000       0.00000    
     30346 TIP3     828      SWM4     OM       LPDW     -1.11466       0.00000          -1   0.00000       0.00000    
     30347 TIP3     828      SWM4     H1       HDW      0.557330       1.00800           0   0.00000       0.00000    
     30348 TIP3     828      SWM4     H2       HDW      0.557330       1.00800           0   0.00000       0.00000    
     30349 TIP3     829      SWM4     OH2      ODW       1.71640       15.5994           0 -0.978253       1.30000    
     30350 TIP3     829      SWM4     DOH2     DOH2     -1.71640      0.400000           0   0.00000       0.00000    
     30351 TIP3     829      SWM4     OM       LPDW     -1.11466       0.00000          -1   0.00000       0.00000    
     30352 TIP3     829      SWM4     H1       HDW      0.557330       1.00800           0   0.00000       0.00000    
     30353 TIP3     829      SWM4     H2       HDW      0.557330       1.00800           0   0.00000       0.00000    
     30354 TIP3     830      SWM4     OH2      ODW       1.71640       15.5994           0 -0.978253       1.30000    
     30355 TIP3     830      SWM4     DOH2     DOH2     -1.71640      0.400000           0   0.00000       0.00000    
     30356 TIP3     830      SWM4     OM       LPDW     -1.11466       0.00000          -1   0.00000       0.00000    
     30357 TIP3     830      SWM4     H1       HDW      0.557330       1.00800           0   0.00000       0.00000    
     30358 TIP3     830      SWM4     H2       HDW      0.557330       1.00800           0   0.00000       0.00000    
     30359 TIP3     831      SWM4     OH2      ODW       1.71640       15.5994           0 -0.978253       1.30000    
     30360 TIP3     831      SWM4     DOH2     DOH2     -1.71640      0.400000           0   0.00000       0.00000    
     30361 TIP3     831      SWM4     OM       LPDW     -1.11466       0.00000          -1   0.00000       0.00000    
     30362 TIP3     831      SWM4     H1       HDW      0.557330       1.00800           0   0.00000       0.00000    
     30363 TIP3     831      SWM4     H2       HDW      0.557330       1.00800           0   0.00000       0.00000    
     30364 TIP3     832      SWM4     OH2      ODW       1.71640       15.5994           0 -0.978253       1.30000    
     30365 TIP3     832      SWM4     DOH2     DOH2     -1.71640      0.400000           0   0.00000       0.00000    
     30366 TIP3     832      SWM4     OM       LPDW     -1.11466       0.00000          -1   0.00000       0.00000    
     30367 TIP3     832      SWM4     H1       HDW      0.557330       1.00800           0   0.00000       0.00000    
     30368 TIP3     832      SWM4     H2       HDW      0.557330       1.00800           0   0.00000       0.00000    
     30369 TIP3     833      SWM4     OH2      ODW       1.71640       15.5994           0 -0.978253       1.30000    
     30370 TIP3     833      SWM4     DOH2     DOH2     -1.71640      0.400000           0   0.00000       0.00000    
     30371 TIP3     833      SWM4     OM       LPDW     -1.11466       0.00000          -1   0.00000       0.00000    
     30372 TIP3     833      SWM4     H1       HDW      0.557330       1.00800           0   0.00000       0.00000    
     30373 TIP3     833      SWM4     H2       HDW      0.557330       1.00800           0   0.00000       0.00000    
     30374 TIP3     834      SWM4     OH2      ODW       1.71640       15.5994           0 -0.978253       1.30000    
     30375 TIP3     834      SWM4     DOH2     DOH2     -1.71640      0.400000           0   0.00000       0.00000    
     30376 TIP3     834      SWM4     OM       LPDW     -1.11466       0.00000          -1   0.00000       0.00000    
     30377 TIP3     834      SWM4     H1       HDW      0.557330       1.00800           0   0.00000       0.00000    
     30378 TIP3     834      SWM4     H2       HDW      0.557330       1.00800           0   0.00000       0.00000    
     30379 TIP3     835      SWM4     OH2      ODW       1.71640       15.5994           0 -0.978253       1.30000    
     30380 TIP3     835      SWM4     DOH2     DOH2     -1.71640      0.400000           0   0.00000       0.00000    
     30381 TIP3     835      SWM4     OM       LPDW     -1.11466       0.00000          -1   0.00000       0.00000    
     30382 TIP3     835      SWM4     H1       HDW      0.557330       1.00800           0   0.00000       0.00000    
     30383 TIP3     835      SWM4     H2       HDW      0.557330       1.00800           0   0.00000       0.00000    
     30384 TIP3     836      SWM4     OH2      ODW       1.71640       15.5994           0 -0.978253       1.30000    
     30385 TIP3     836      SWM4     DOH2     DOH2     -1.71640      0.400000           0   0.00000       0.00000    
     30386 TIP3     836      SWM4     OM       LPDW     -1.11466       0.00000          -1   0.00000       0.00000    
     30387 TIP3     836      SWM4     H1       HDW      0.557330       1.00800           0   0.00000       0.00000    
     30388 TIP3     836      SWM4     H2       HDW      0.557330       1.00800           0   0.00000       0.00000    
     30389 TIP3     837      SWM4     OH2      ODW       1.71640       15.5994           0 -0.978253       1.30000    
     30390 TIP3     837      SWM4     DOH2     DOH2     -1.71640      0.400000           0   0.00000       0.00000    
     30391 TIP3     837      SWM4     OM       LPDW     -1.11466       0.00000          -1   0.00000       0.00000    
     30392 TIP3     837      SWM4     H1       HDW      0.557330       1.00800           0   0.00000       0.00000    
     30393 TIP3     837      SWM4     H2       HDW      0.557330       1.00800           0   0.00000       0.00000    
     30394 TIP3     838      SWM4     OH2      ODW       1.71640       15.5994           0 -0.978253       1.30000    
     30395 TIP3     838      SWM4     DOH2     DOH2     -1.71640      0.400000           0   0.00000       0.00000    
     30396 TIP3     838      SWM4     OM       LPDW     -1.11466       0.00000          -1   0.00000       0.00000    
     30397 TIP3     838      SWM4     H1       HDW      0.557330       1.00800           0   0.00000       0.00000    
     30398 TIP3     838      SWM4     H2       HDW      0.557330       1.00800           0   0.00000       0.00000    
     30399 TIP3     839      SWM4     OH2      ODW       1.71640       15.5994           0 -0.978253       1.30000    
     30400 TIP3     839      SWM4     DOH2     DOH2     -1.71640      0.400000           0   0.00000       0.00000    
     30401 TIP3     839      SWM4     OM       LPDW     -1.11466       0.00000          -1   0.00000       0.00000    
     30402 TIP3     839      SWM4     H1       HDW      0.557330       1.00800           0   0.00000       0.00000    
     30403 TIP3     839      SWM4     H2       HDW      0.557330       1.00800           0   0.00000       0.00000    
     30404 TIP3     840      SWM4     OH2      ODW       1.71640       15.5994           0 -0.978253       1.30000    
     30405 TIP3     840      SWM4     DOH2     DOH2     -1.71640      0.400000           0   0.00000       0.00000    
     30406 TIP3     840      SWM4     OM       LPDW     -1.11466       0.00000          -1   0.00000       0.00000    
     30407 TIP3     840      SWM4     H1       HDW      0.557330       1.00800           0   0.00000       0.00000    
     30408 TIP3     840      SWM4     H2       HDW      0.557330       1.00800           0   0.00000       0.00000    
     30409 TIP3     841      SWM4     OH2      ODW       1.71640       15.5994           0 -0.978253       1.30000    
     30410 TIP3     841      SWM4     DOH2     DOH2     -1.71640      0.400000           0   0.00000       0.00000    
     30411 TIP3     841      SWM4     OM       LPDW     -1.11466       0.00000          -1   0.00000       0.00000    
     30412 TIP3     841      SWM4     H1       HDW      0.557330       1.00800           0   0.00000       0.00000    
     30413 TIP3     841      SWM4     H2       HDW      0.557330       1.00800           0   0.00000       0.00000    
     30414 TIP3     842      SWM4     OH2      ODW       1.71640       15.5994           0 -0.978253       1.30000    
     30415 TIP3     842      SWM4     DOH2     DOH2     -1.71640      0.400000           0   0.00000       0.00000    
     30416 TIP3     842      SWM4     OM       LPDW     -1.11466       0.00000          -1   0.00000       0.00000    
     30417 TIP3     842      SWM4     H1       HDW      0.557330       1.00800           0   0.00000       0.00000    
     30418 TIP3     842      SWM4     H2       HDW      0.557330       1.00800           0   0.00000       0.00000    
     30419 TIP3     843      SWM4     OH2      ODW       1.71640       15.5994           0 -0.978253       1.30000    
     30420 TIP3     843      SWM4     DOH2     DOH2     -1.71640      0.400000           0   0.00000       0.00000    
     30421 TIP3     843      SWM4     OM       LPDW     -1.11466       0.00000          -1   0.00000       0.00000    
     30422 TIP3     843      SWM4     H1       HDW      0.557330       1.00800           0   0.00000       0.00000    
     30423 TIP3     843      SWM4     H2       HDW      0.557330       1.00800           0   0.00000       0.00000    
     30424 TIP3     844      SWM4     OH2      ODW       1.71640       15.5994           0 -0.978253       1.30000    
     30425 TIP3     844      SWM4     DOH2     DOH2     -1.71640      0.400000           0   0.00000       0.00000    
     30426 TIP3     844      SWM4     OM       LPDW     -1.11466       0.00000          -1   0.00000       0.00000    
     30427 TIP3     844      SWM4     H1       HDW      0.557330       1.00800           0   0.00000       0.00000    
     30428 TIP3     844      SWM4     H2       HDW      0.557330       1.00800           0   0.00000       0.00000    
     30429 TIP3     845      SWM4     OH2      ODW       1.71640       15.5994           0 -0.978253       1.30000    
     30430 TIP3     845      SWM4     DOH2     DOH2     -1.71640      0.400000           0   0.00000       0.00000    
     30431 TIP3     845      SWM4     OM       LPDW     -1.11466       0.00000          -1   0.00000       0.00000    
     30432 TIP3     845      SWM4     H1       HDW      0.557330       1.00800           0   0.00000       0.00000    
     30433 TIP3     845      SWM4     H2       HDW      0.557330       1.00800           0   0.00000       0.00000    
     30434 TIP3     846      SWM4     OH2      ODW       1.71640       15.5994           0 -0.978253       1.30000    
     30435 TIP3     846      SWM4     DOH2     DOH2     -1.71640      0.400000           0   0.00000       0.00000    
     30436 TIP3     846      SWM4     OM       LPDW     -1.11466       0.00000          -1   0.00000       0.00000    
     30437 TIP3     846      SWM4     H1       HDW      0.557330       1.00800           0   0.00000       0.00000    
     30438 TIP3     846      SWM4     H2       HDW      0.557330       1.00800           0   0.00000       0.00000    
     30439 TIP3     847      SWM4     OH2      ODW       1.71640       15.5994           0 -0.978253       1.30000    
     30440 TIP3     847      SWM4     DOH2     DOH2     -1.71640      0.400000           0   0.00000       0.00000    
     30441 TIP3     847      SWM4     OM       LPDW     -1.11466       0.00000          -1   0.00000       0.00000    
     30442 TIP3     847      SWM4     H1       HDW      0.557330       1.00800           0   0.00000       0.00000    
     30443 TIP3     847      SWM4     H2       HDW      0.557330       1.00800           0   0.00000       0.00000    
     30444 TIP3     848      SWM4     OH2      ODW       1.71640       15.5994           0 -0.978253       1.30000    
     30445 TIP3     848      SWM4     DOH2     DOH2     -1.71640      0.400000           0   0.00000       0.00000    
     30446 TIP3     848      SWM4     OM       LPDW     -1.11466       0.00000          -1   0.00000       0.00000    
     30447 TIP3     848      SWM4     H1       HDW      0.557330       1.00800           0   0.00000       0.00000    
     30448 TIP3     848      SWM4     H2       HDW      0.557330       1.00800           0   0.00000       0.00000    
     30449 TIP3     849      SWM4     OH2      ODW       1.71640       15.5994           0 -0.978253       1.30000    
     30450 TIP3     849      SWM4     DOH2     DOH2     -1.71640      0.400000           0   0.00000       0.00000    
     30451 TIP3     849      SWM4     OM       LPDW     -1.11466       0.00000          -1   0.00000       0.00000    
     30452 TIP3     849      SWM4     H1       HDW      0.557330       1.00800           0   0.00000       0.00000    
     30453 TIP3     849      SWM4     H2       HDW      0.557330       1.00800           0   0.00000       0.00000    
     30454 TIP3     850      SWM4     OH2      ODW       1.71640       15.5994           0 -0.978253       1.30000    
     30455 TIP3     850      SWM4     DOH2     DOH2     -1.71640      0.400000           0   0.00000       0.00000    
     30456 TIP3     850      SWM4     OM       LPDW     -1.11466       0.00000          -1   0.00000       0.00000    
     30457 TIP3     850      SWM4     H1       HDW      0.557330       1.00800           0   0.00000       0.00000    
     30458 TIP3     850      SWM4     H2       HDW      0.557330       1.00800           0   0.00000       0.00000    
     30459 TIP3     851      SWM4     OH2      ODW       1.71640       15.5994           0 -0.978253       1.30000    
     30460 TIP3     851      SWM4     DOH2     DOH2     -1.71640      0.400000           0   0.00000       0.00000    
     30461 TIP3     851      SWM4     OM       LPDW     -1.11466       0.00000          -1   0.00000       0.00000    
     30462 TIP3     851      SWM4     H1       HDW      0.557330       1.00800           0   0.00000       0.00000    
     30463 TIP3     851      SWM4     H2       HDW      0.557330       1.00800           0   0.00000       0.00000    
     30464 TIP3     852      SWM4     OH2      ODW       1.71640       15.5994           0 -0.978253       1.30000    
     30465 TIP3     852      SWM4     DOH2     DOH2     -1.71640      0.400000           0   0.00000       0.00000    
     30466 TIP3     852      SWM4     OM       LPDW     -1.11466       0.00000          -1   0.00000       0.00000    
     30467 TIP3     852      SWM4     H1       HDW      0.557330       1.00800           0   0.00000       0.00000    
     30468 TIP3     852      SWM4     H2       HDW      0.557330       1.00800           0   0.00000       0.00000    
     30469 TIP3     853      SWM4     OH2      ODW       1.71640       15.5994           0 -0.978253       1.30000    
     30470 TIP3     853      SWM4     DOH2     DOH2     -1.71640      0.400000           0   0.00000       0.00000    
     30471 TIP3     853      SWM4     OM       LPDW     -1.11466       0.00000          -1   0.00000       0.00000    
     30472 TIP3     853      SWM4     H1       HDW      0.557330       1.00800           0   0.00000       0.00000    
     30473 TIP3     853      SWM4     H2       HDW      0.557330       1.00800           0   0.00000       0.00000    
     30474 TIP3     854      SWM4     OH2      ODW       1.71640       15.5994           0 -0.978253       1.30000    
     30475 TIP3     854      SWM4     DOH2     DOH2     -1.71640      0.400000           0   0.00000       0.00000    
     30476 TIP3     854      SWM4     OM       LPDW     -1.11466       0.00000          -1   0.00000       0.00000    
     30477 TIP3     854      SWM4     H1       HDW      0.557330       1.00800           0   0.00000       0.00000    
     30478 TIP3     854      SWM4     H2       HDW      0.557330       1.00800           0   0.00000       0.00000    
     30479 TIP3     855      SWM4     OH2      ODW       1.71640       15.5994           0 -0.978253       1.30000    
     30480 TIP3     855      SWM4     DOH2     DOH2     -1.71640      0.400000           0   0.00000       0.00000    
     30481 TIP3     855      SWM4     OM       LPDW     -1.11466       0.00000          -1   0.00000       0.00000    
     30482 TIP3     855      SWM4     H1       HDW      0.557330       1.00800           0   0.00000       0.00000    
     30483 TIP3     855      SWM4     H2       HDW      0.557330       1.00800           0   0.00000       0.00000    
     30484 TIP3     856      SWM4     OH2      ODW       1.71640       15.5994           0 -0.978253       1.30000    
     30485 TIP3     856      SWM4     DOH2     DOH2     -1.71640      0.400000           0   0.00000       0.00000    
     30486 TIP3     856      SWM4     OM       LPDW     -1.11466       0.00000          -1   0.00000       0.00000    
     30487 TIP3     856      SWM4     H1       HDW      0.557330       1.00800           0   0.00000       0.00000    
     30488 TIP3     856      SWM4     H2       HDW      0.557330       1.00800           0   0.00000       0.00000    
     30489 TIP3     857      SWM4     OH2      ODW       1.71640       15.5994           0 -0.978253       1.30000    
     30490 TIP3     857      SWM4     DOH2     DOH2     -1.71640      0.400000           0   0.00000       0.00000    
     30491 TIP3     857      SWM4     OM       LPDW     -1.11466       0.00000          -1   0.00000       0.00000    
     30492 TIP3     857      SWM4     H1       HDW      0.557330       1.00800           0   0.00000       0.00000    
     30493 TIP3     857      SWM4     H2       HDW      0.557330       1.00800           0   0.00000       0.00000    
     30494 TIP3     858      SWM4     OH2      ODW       1.71640       15.5994           0 -0.978253       1.30000    
     30495 TIP3     858      SWM4     DOH2     DOH2     -1.71640      0.400000           0   0.00000       0.00000    
     30496 TIP3     858      SWM4     OM       LPDW     -1.11466       0.00000          -1   0.00000       0.00000    
     30497 TIP3     858      SWM4     H1       HDW      0.557330       1.00800           0   0.00000       0.00000    
     30498 TIP3     858      SWM4     H2       HDW      0.557330       1.00800           0   0.00000       0.00000    
     30499 TIP3     859      SWM4     OH2      ODW       1.71640       15.5994           0 -0.978253       1.30000    
     30500 TIP3     859      SWM4     DOH2     DOH2     -1.71640      0.400000           0   0.00000       0.00000    
     30501 TIP3     859      SWM4     OM       LPDW     -1.11466       0.00000          -1   0.00000       0.00000    
     30502 TIP3     859      SWM4     H1       HDW      0.557330       1.00800           0   0.00000       0.00000    
     30503 TIP3     859      SWM4     H2       HDW      0.557330       1.00800           0   0.00000       0.00000    
     30504 TIP3     860      SWM4     OH2      ODW       1.71640       15.5994           0 -0.978253       1.30000    
     30505 TIP3     860      SWM4     DOH2     DOH2     -1.71640      0.400000           0   0.00000       0.00000    
     30506 TIP3     860      SWM4     OM       LPDW     -1.11466       0.00000          -1   0.00000       0.00000    
     30507 TIP3     860      SWM4     H1       HDW      0.557330       1.00800           0   0.00000       0.00000    
     30508 TIP3     860      SWM4     H2       HDW      0.557330       1.00800           0   0.00000       0.00000    
     30509 TIP3     861      SWM4     OH2      ODW       1.71640       15.5994           0 -0.978253       1.30000    
     30510 TIP3     861      SWM4     DOH2     DOH2     -1.71640      0.400000           0   0.00000       0.00000    
     30511 TIP3     861      SWM4     OM       LPDW     -1.11466       0.00000          -1   0.00000       0.00000    
     30512 TIP3     861      SWM4     H1       HDW      0.557330       1.00800           0   0.00000       0.00000    
     30513 TIP3     861      SWM4     H2       HDW      0.557330       1.00800           0   0.00000       0.00000    
     30514 TIP3     862      SWM4     OH2      ODW       1.71640       15.5994           0 -0.978253       1.30000    
     30515 TIP3     862      SWM4     DOH2     DOH2     -1.71640      0.400000           0   0.00000       0.00000    
     30516 TIP3     862      SWM4     OM       LPDW     -1.11466       0.00000          -1   0.00000       0.00000    
     30517 TIP3     862      SWM4     H1       HDW      0.557330       1.00800           0   0.00000       0.00000    
     30518 TIP3     862      SWM4     H2       HDW      0.557330       1.00800           0   0.00000       0.00000    
     30519 TIP3     863      SWM4     OH2      ODW       1.71640       15.5994           0 -0.978253       1.30000    
     30520 TIP3     863      SWM4     DOH2     DOH2     -1.71640      0.400000           0   0.00000       0.00000    
     30521 TIP3     863      SWM4     OM       LPDW     -1.11466       0.00000          -1   0.00000       0.00000    
     30522 TIP3     863      SWM4     H1       HDW      0.557330       1.00800           0   0.00000       0.00000    
     30523 TIP3     863      SWM4     H2       HDW      0.557330       1.00800           0   0.00000       0.00000    
     30524 TIP3     864      SWM4     OH2      ODW       1.71640       15.5994           0 -0.978253       1.30000    
     30525 TIP3     864      SWM4     DOH2     DOH2     -1.71640      0.400000           0   0.00000       0.00000    
     30526 TIP3     864      SWM4     OM       LPDW     -1.11466       0.00000          -1   0.00000       0.00000    
     30527 TIP3     864      SWM4     H1       HDW      0.557330       1.00800           0   0.00000       0.00000    
     30528 TIP3     864      SWM4     H2       HDW      0.557330       1.00800           0   0.00000       0.00000    
     30529 TIP3     865      SWM4     OH2      ODW       1.71640       15.5994           0 -0.978253       1.30000    
     30530 TIP3     865      SWM4     DOH2     DOH2     -1.71640      0.400000           0   0.00000       0.00000    
     30531 TIP3     865      SWM4     OM       LPDW     -1.11466       0.00000          -1   0.00000       0.00000    
     30532 TIP3     865      SWM4     H1       HDW      0.557330       1.00800           0   0.00000       0.00000    
     30533 TIP3     865      SWM4     H2       HDW      0.557330       1.00800           0   0.00000       0.00000    
     30534 TIP3     866      SWM4     OH2      ODW       1.71640       15.5994           0 -0.978253       1.30000    
     30535 TIP3     866      SWM4     DOH2     DOH2     -1.71640      0.400000           0   0.00000       0.00000    
     30536 TIP3     866      SWM4     OM       LPDW     -1.11466       0.00000          -1   0.00000       0.00000    
     30537 TIP3     866      SWM4     H1       HDW      0.557330       1.00800           0   0.00000       0.00000    
     30538 TIP3     866      SWM4     H2       HDW      0.557330       1.00800           0   0.00000       0.00000    
     30539 TIP3     867      SWM4     OH2      ODW       1.71640       15.5994           0 -0.978253       1.30000    
     30540 TIP3     867      SWM4     DOH2     DOH2     -1.71640      0.400000           0   0.00000       0.00000    
     30541 TIP3     867      SWM4     OM       LPDW     -1.11466       0.00000          -1   0.00000       0.00000    
     30542 TIP3     867      SWM4     H1       HDW      0.557330       1.00800           0   0.00000       0.00000    
     30543 TIP3     867      SWM4     H2       HDW      0.557330       1.00800           0   0.00000       0.00000    
     30544 TIP3     868      SWM4     OH2      ODW       1.71640       15.5994           0 -0.978253       1.30000    
     30545 TIP3     868      SWM4     DOH2     DOH2     -1.71640      0.400000           0   0.00000       0.00000    
     30546 TIP3     868      SWM4     OM       LPDW     -1.11466       0.00000          -1   0.00000       0.00000    
     30547 TIP3     868      SWM4     H1       HDW      0.557330       1.00800           0   0.00000       0.00000    
     30548 TIP3     868      SWM4     H2       HDW      0.557330       1.00800           0   0.00000       0.00000    
     30549 TIP3     869      SWM4     OH2      ODW       1.71640       15.5994           0 -0.978253       1.30000    
     30550 TIP3     869      SWM4     DOH2     DOH2     -1.71640      0.400000           0   0.00000       0.00000    
     30551 TIP3     869      SWM4     OM       LPDW     -1.11466       0.00000          -1   0.00000       0.00000    
     30552 TIP3     869      SWM4     H1       HDW      0.557330       1.00800           0   0.00000       0.00000    
     30553 TIP3     869      SWM4     H2       HDW      0.557330       1.00800           0   0.00000       0.00000    
     30554 TIP3     870      SWM4     OH2      ODW       1.71640       15.5994           0 -0.978253       1.30000    
     30555 TIP3     870      SWM4     DOH2     DOH2     -1.71640      0.400000           0   0.00000       0.00000    
     30556 TIP3     870      SWM4     OM       LPDW     -1.11466       0.00000          -1   0.00000       0.00000    
     30557 TIP3     870      SWM4     H1       HDW      0.557330       1.00800           0   0.00000       0.00000    
     30558 TIP3     870      SWM4     H2       HDW      0.557330       1.00800           0   0.00000       0.00000    
     30559 TIP3     871      SWM4     OH2      ODW       1.71640       15.5994           0 -0.978253       1.30000    
     30560 TIP3     871      SWM4     DOH2     DOH2     -1.71640      0.400000           0   0.00000       0.00000    
     30561 TIP3     871      SWM4     OM       LPDW     -1.11466       0.00000          -1   0.00000       0.00000    
     30562 TIP3     871      SWM4     H1       HDW      0.557330       1.00800           0   0.00000       0.00000    
     30563 TIP3     871      SWM4     H2       HDW      0.557330       1.00800           0   0.00000       0.00000    
     30564 TIP3     872      SWM4     OH2      ODW       1.71640       15.5994           0 -0.978253       1.30000    
     30565 TIP3     872      SWM4     DOH2     DOH2     -1.71640      0.400000           0   0.00000       0.00000    
     30566 TIP3     872      SWM4     OM       LPDW     -1.11466       0.00000          -1   0.00000       0.00000    
     30567 TIP3     872      SWM4     H1       HDW      0.557330       1.00800           0   0.00000       0.00000    
     30568 TIP3     872      SWM4     H2       HDW      0.557330       1.00800           0   0.00000       0.00000    
     30569 TIP3     873      SWM4     OH2      ODW       1.71640       15.5994           0 -0.978253       1.30000    
     30570 TIP3     873      SWM4     DOH2     DOH2     -1.71640      0.400000           0   0.00000       0.00000    
     30571 TIP3     873      SWM4     OM       LPDW     -1.11466       0.00000          -1   0.00000       0.00000    
     30572 TIP3     873      SWM4     H1       HDW      0.557330       1.00800           0   0.00000       0.00000    
     30573 TIP3     873      SWM4     H2       HDW      0.557330       1.00800           0   0.00000       0.00000    
     30574 TIP3     874      SWM4     OH2      ODW       1.71640       15.5994           0 -0.978253       1.30000    
     30575 TIP3     874      SWM4     DOH2     DOH2     -1.71640      0.400000           0   0.00000       0.00000    
     30576 TIP3     874      SWM4     OM       LPDW     -1.11466       0.00000          -1   0.00000       0.00000    
     30577 TIP3     874      SWM4     H1       HDW      0.557330       1.00800           0   0.00000       0.00000    
     30578 TIP3     874      SWM4     H2       HDW      0.557330       1.00800           0   0.00000       0.00000    
     30579 TIP3     875      SWM4     OH2      ODW       1.71640       15.5994           0 -0.978253       1.30000    
     30580 TIP3     875      SWM4     DOH2     DOH2     -1.71640      0.400000           0   0.00000       0.00000    
     30581 TIP3     875      SWM4     OM       LPDW     -1.11466       0.00000          -1   0.00000       0.00000    
     30582 TIP3     875      SWM4     H1       HDW      0.557330       1.00800           0   0.00000       0.00000    
     30583 TIP3     875      SWM4     H2       HDW      0.557330       1.00800           0   0.00000       0.00000    
     30584 TIP3     876      SWM4     OH2      ODW       1.71640       15.5994           0 -0.978253       1.30000    
     30585 TIP3     876      SWM4     DOH2     DOH2     -1.71640      0.400000           0   0.00000       0.00000    
     30586 TIP3     876      SWM4     OM       LPDW     -1.11466       0.00000          -1   0.00000       0.00000    
     30587 TIP3     876      SWM4     H1       HDW      0.557330       1.00800           0   0.00000       0.00000    
     30588 TIP3     876      SWM4     H2       HDW      0.557330       1.00800           0   0.00000       0.00000    
     30589 TIP3     877      SWM4     OH2      ODW       1.71640       15.5994           0 -0.978253       1.30000    
     30590 TIP3     877      SWM4     DOH2     DOH2     -1.71640      0.400000           0   0.00000       0.00000    
     30591 TIP3     877      SWM4     OM       LPDW     -1.11466       0.00000          -1   0.00000       0.00000    
     30592 TIP3     877      SWM4     H1       HDW      0.557330       1.00800           0   0.00000       0.00000    
     30593 TIP3     877      SWM4     H2       HDW      0.557330       1.00800           0   0.00000       0.00000    
     30594 TIP3     878      SWM4     OH2      ODW       1.71640       15.5994           0 -0.978253       1.30000    
     30595 TIP3     878      SWM4     DOH2     DOH2     -1.71640      0.400000           0   0.00000       0.00000    
     30596 TIP3     878      SWM4     OM       LPDW     -1.11466       0.00000          -1   0.00000       0.00000    
     30597 TIP3     878      SWM4     H1       HDW      0.557330       1.00800           0   0.00000       0.00000    
     30598 TIP3     878      SWM4     H2       HDW      0.557330       1.00800           0   0.00000       0.00000    
     30599 TIP3     879      SWM4     OH2      ODW       1.71640       15.5994           0 -0.978253       1.30000    
     30600 TIP3     879      SWM4     DOH2     DOH2     -1.71640      0.400000           0   0.00000       0.00000    
     30601 TIP3     879      SWM4     OM       LPDW     -1.11466       0.00000          -1   0.00000       0.00000    
     30602 TIP3     879      SWM4     H1       HDW      0.557330       1.00800           0   0.00000       0.00000    
     30603 TIP3     879      SWM4     H2       HDW      0.557330       1.00800           0   0.00000       0.00000    
     30604 TIP3     880      SWM4     OH2      ODW       1.71640       15.5994           0 -0.978253       1.30000    
     30605 TIP3     880      SWM4     DOH2     DOH2     -1.71640      0.400000           0   0.00000       0.00000    
     30606 TIP3     880      SWM4     OM       LPDW     -1.11466       0.00000          -1   0.00000       0.00000    
     30607 TIP3     880      SWM4     H1       HDW      0.557330       1.00800           0   0.00000       0.00000    
     30608 TIP3     880      SWM4     H2       HDW      0.557330       1.00800           0   0.00000       0.00000    
     30609 TIP3     881      SWM4     OH2      ODW       1.71640       15.5994           0 -0.978253       1.30000    
     30610 TIP3     881      SWM4     DOH2     DOH2     -1.71640      0.400000           0   0.00000       0.00000    
     30611 TIP3     881      SWM4     OM       LPDW     -1.11466       0.00000          -1   0.00000       0.00000    
     30612 TIP3     881      SWM4     H1       HDW      0.557330       1.00800           0   0.00000       0.00000    
     30613 TIP3     881      SWM4     H2       HDW      0.557330       1.00800           0   0.00000       0.00000    
     30614 TIP3     882      SWM4     OH2      ODW       1.71640       15.5994           0 -0.978253       1.30000    
     30615 TIP3     882      SWM4     DOH2     DOH2     -1.71640      0.400000           0   0.00000       0.00000    
     30616 TIP3     882      SWM4     OM       LPDW     -1.11466       0.00000          -1   0.00000       0.00000    
     30617 TIP3     882      SWM4     H1       HDW      0.557330       1.00800           0   0.00000       0.00000    
     30618 TIP3     882      SWM4     H2       HDW      0.557330       1.00800           0   0.00000       0.00000    
     30619 TIP3     883      SWM4     OH2      ODW       1.71640       15.5994           0 -0.978253       1.30000    
     30620 TIP3     883      SWM4     DOH2     DOH2     -1.71640      0.400000           0   0.00000       0.00000    
     30621 TIP3     883      SWM4     OM       LPDW     -1.11466       0.00000          -1   0.00000       0.00000    
     30622 TIP3     883      SWM4     H1       HDW      0.557330       1.00800           0   0.00000       0.00000    
     30623 TIP3     883      SWM4     H2       HDW      0.557330       1.00800           0   0.00000       0.00000    
     30624 TIP3     884      SWM4     OH2      ODW       1.71640       15.5994           0 -0.978253       1.30000    
     30625 TIP3     884      SWM4     DOH2     DOH2     -1.71640      0.400000           0   0.00000       0.00000    
     30626 TIP3     884      SWM4     OM       LPDW     -1.11466       0.00000          -1   0.00000       0.00000    
     30627 TIP3     884      SWM4     H1       HDW      0.557330       1.00800           0   0.00000       0.00000    
     30628 TIP3     884      SWM4     H2       HDW      0.557330       1.00800           0   0.00000       0.00000    
     30629 TIP3     885      SWM4     OH2      ODW       1.71640       15.5994           0 -0.978253       1.30000    
     30630 TIP3     885      SWM4     DOH2     DOH2     -1.71640      0.400000           0   0.00000       0.00000    
     30631 TIP3     885      SWM4     OM       LPDW     -1.11466       0.00000          -1   0.00000       0.00000    
     30632 TIP3     885      SWM4     H1       HDW      0.557330       1.00800           0   0.00000       0.00000    
     30633 TIP3     885      SWM4     H2       HDW      0.557330       1.00800           0   0.00000       0.00000    
     30634 TIP3     886      SWM4     OH2      ODW       1.71640       15.5994           0 -0.978253       1.30000    
     30635 TIP3     886      SWM4     DOH2     DOH2     -1.71640      0.400000           0   0.00000       0.00000    
     30636 TIP3     886      SWM4     OM       LPDW     -1.11466       0.00000          -1   0.00000       0.00000    
     30637 TIP3     886      SWM4     H1       HDW      0.557330       1.00800           0   0.00000       0.00000    
     30638 TIP3     886      SWM4     H2       HDW      0.557330       1.00800           0   0.00000       0.00000    
     30639 TIP3     887      SWM4     OH2      ODW       1.71640       15.5994           0 -0.978253       1.30000    
     30640 TIP3     887      SWM4     DOH2     DOH2     -1.71640      0.400000           0   0.00000       0.00000    
     30641 TIP3     887      SWM4     OM       LPDW     -1.11466       0.00000          -1   0.00000       0.00000    
     30642 TIP3     887      SWM4     H1       HDW      0.557330       1.00800           0   0.00000       0.00000    
     30643 TIP3     887      SWM4     H2       HDW      0.557330       1.00800           0   0.00000       0.00000    
     30644 TIP3     888      SWM4     OH2      ODW       1.71640       15.5994           0 -0.978253       1.30000    
     30645 TIP3     888      SWM4     DOH2     DOH2     -1.71640      0.400000           0   0.00000       0.00000    
     30646 TIP3     888      SWM4     OM       LPDW     -1.11466       0.00000          -1   0.00000       0.00000    
     30647 TIP3     888      SWM4     H1       HDW      0.557330       1.00800           0   0.00000       0.00000    
     30648 TIP3     888      SWM4     H2       HDW      0.557330       1.00800           0   0.00000       0.00000    
     30649 TIP3     889      SWM4     OH2      ODW       1.71640       15.5994           0 -0.978253       1.30000    
     30650 TIP3     889      SWM4     DOH2     DOH2     -1.71640      0.400000           0   0.00000       0.00000    
     30651 TIP3     889      SWM4     OM       LPDW     -1.11466       0.00000          -1   0.00000       0.00000    
     30652 TIP3     889      SWM4     H1       HDW      0.557330       1.00800           0   0.00000       0.00000    
     30653 TIP3     889      SWM4     H2       HDW      0.557330       1.00800           0   0.00000       0.00000    
     30654 TIP3     890      SWM4     OH2      ODW       1.71640       15.5994           0 -0.978253       1.30000    
     30655 TIP3     890      SWM4     DOH2     DOH2     -1.71640      0.400000           0   0.00000       0.00000    
     30656 TIP3     890      SWM4     OM       LPDW     -1.11466       0.00000          -1   0.00000       0.00000    
     30657 TIP3     890      SWM4     H1       HDW      0.557330       1.00800           0   0.00000       0.00000    
     30658 TIP3     890      SWM4     H2       HDW      0.557330       1.00800           0   0.00000       0.00000    
     30659 TIP3     891      SWM4     OH2      ODW       1.71640       15.5994           0 -0.978253       1.30000    
     30660 TIP3     891      SWM4     DOH2     DOH2     -1.71640      0.400000           0   0.00000       0.00000    
     30661 TIP3     891      SWM4     OM       LPDW     -1.11466       0.00000          -1   0.00000       0.00000    
     30662 TIP3     891      SWM4     H1       HDW      0.557330       1.00800           0   0.00000       0.00000    
     30663 TIP3     891      SWM4     H2       HDW      0.557330       1.00800           0   0.00000       0.00000    
     30664 TIP3     892      SWM4     OH2      ODW       1.71640       15.5994           0 -0.978253       1.30000    
     30665 TIP3     892      SWM4     DOH2     DOH2     -1.71640      0.400000           0   0.00000       0.00000    
     30666 TIP3     892      SWM4     OM       LPDW     -1.11466       0.00000          -1   0.00000       0.00000    
     30667 TIP3     892      SWM4     H1       HDW      0.557330       1.00800           0   0.00000       0.00000    
     30668 TIP3     892      SWM4     H2       HDW      0.557330       1.00800           0   0.00000       0.00000    
     30669 TIP3     893      SWM4     OH2      ODW       1.71640       15.5994           0 -0.978253       1.30000    
     30670 TIP3     893      SWM4     DOH2     DOH2     -1.71640      0.400000           0   0.00000       0.00000    
     30671 TIP3     893      SWM4     OM       LPDW     -1.11466       0.00000          -1   0.00000       0.00000    
     30672 TIP3     893      SWM4     H1       HDW      0.557330       1.00800           0   0.00000       0.00000    
     30673 TIP3     893      SWM4     H2       HDW      0.557330       1.00800           0   0.00000       0.00000    
     30674 TIP3     894      SWM4     OH2      ODW       1.71640       15.5994           0 -0.978253       1.30000    
     30675 TIP3     894      SWM4     DOH2     DOH2     -1.71640      0.400000           0   0.00000       0.00000    
     30676 TIP3     894      SWM4     OM       LPDW     -1.11466       0.00000          -1   0.00000       0.00000    
     30677 TIP3     894      SWM4     H1       HDW      0.557330       1.00800           0   0.00000       0.00000    
     30678 TIP3     894      SWM4     H2       HDW      0.557330       1.00800           0   0.00000       0.00000    
     30679 TIP3     895      SWM4     OH2      ODW       1.71640       15.5994           0 -0.978253       1.30000    
     30680 TIP3     895      SWM4     DOH2     DOH2     -1.71640      0.400000           0   0.00000       0.00000    
     30681 TIP3     895      SWM4     OM       LPDW     -1.11466       0.00000          -1   0.00000       0.00000    
     30682 TIP3     895      SWM4     H1       HDW      0.557330       1.00800           0   0.00000       0.00000    
     30683 TIP3     895      SWM4     H2       HDW      0.557330       1.00800           0   0.00000       0.00000    
     30684 TIP3     896      SWM4     OH2      ODW       1.71640       15.5994           0 -0.978253       1.30000    
     30685 TIP3     896      SWM4     DOH2     DOH2     -1.71640      0.400000           0   0.00000       0.00000    
     30686 TIP3     896      SWM4     OM       LPDW     -1.11466       0.00000          -1   0.00000       0.00000    
     30687 TIP3     896      SWM4     H1       HDW      0.557330       1.00800           0   0.00000       0.00000    
     30688 TIP3     896      SWM4     H2       HDW      0.557330       1.00800           0   0.00000       0.00000    
     30689 TIP3     897      SWM4     OH2      ODW       1.71640       15.5994           0 -0.978253       1.30000    
     30690 TIP3     897      SWM4     DOH2     DOH2     -1.71640      0.400000           0   0.00000       0.00000    
     30691 TIP3     897      SWM4     OM       LPDW     -1.11466       0.00000          -1   0.00000       0.00000    
     30692 TIP3     897      SWM4     H1       HDW      0.557330       1.00800           0   0.00000       0.00000    
     30693 TIP3     897      SWM4     H2       HDW      0.557330       1.00800           0   0.00000       0.00000    
     30694 TIP3     898      SWM4     OH2      ODW       1.71640       15.5994           0 -0.978253       1.30000    
     30695 TIP3     898      SWM4     DOH2     DOH2     -1.71640      0.400000           0   0.00000       0.00000    
     30696 TIP3     898      SWM4     OM       LPDW     -1.11466       0.00000          -1   0.00000       0.00000    
     30697 TIP3     898      SWM4     H1       HDW      0.557330       1.00800           0   0.00000       0.00000    
     30698 TIP3     898      SWM4     H2       HDW      0.557330       1.00800           0   0.00000       0.00000    
     30699 TIP3     899      SWM4     OH2      ODW       1.71640       15.5994           0 -0.978253       1.30000    
     30700 TIP3     899      SWM4     DOH2     DOH2     -1.71640      0.400000           0   0.00000       0.00000    
     30701 TIP3     899      SWM4     OM       LPDW     -1.11466       0.00000          -1   0.00000       0.00000    
     30702 TIP3     899      SWM4     H1       HDW      0.557330       1.00800           0   0.00000       0.00000    
     30703 TIP3     899      SWM4     H2       HDW      0.557330       1.00800           0   0.00000       0.00000    
     30704 TIP3     900      SWM4     OH2      ODW       1.71640       15.5994           0 -0.978253       1.30000    
     30705 TIP3     900      SWM4     DOH2     DOH2     -1.71640      0.400000           0   0.00000       0.00000    
     30706 TIP3     900      SWM4     OM       LPDW     -1.11466       0.00000          -1   0.00000       0.00000    
     30707 TIP3     900      SWM4     H1       HDW      0.557330       1.00800           0   0.00000       0.00000    
     30708 TIP3     900      SWM4     H2       HDW      0.557330       1.00800           0   0.00000       0.00000    
     30709 TIP3     901      SWM4     OH2      ODW       1.71640       15.5994           0 -0.978253       1.30000    
     30710 TIP3     901      SWM4     DOH2     DOH2     -1.71640      0.400000           0   0.00000       0.00000    
     30711 TIP3     901      SWM4     OM       LPDW     -1.11466       0.00000          -1   0.00000       0.00000    
     30712 TIP3     901      SWM4     H1       HDW      0.557330       1.00800           0   0.00000       0.00000    
     30713 TIP3     901      SWM4     H2       HDW      0.557330       1.00800           0   0.00000       0.00000    
     30714 TIP3     902      SWM4     OH2      ODW       1.71640       15.5994           0 -0.978253       1.30000    
     30715 TIP3     902      SWM4     DOH2     DOH2     -1.71640      0.400000           0   0.00000       0.00000    
     30716 TIP3     902      SWM4     OM       LPDW     -1.11466       0.00000          -1   0.00000       0.00000    
     30717 TIP3     902      SWM4     H1       HDW      0.557330       1.00800           0   0.00000       0.00000    
     30718 TIP3     902      SWM4     H2       HDW      0.557330       1.00800           0   0.00000       0.00000    
     30719 TIP3     903      SWM4     OH2      ODW       1.71640       15.5994           0 -0.978253       1.30000    
     30720 TIP3     903      SWM4     DOH2     DOH2     -1.71640      0.400000           0   0.00000       0.00000    
     30721 TIP3     903      SWM4     OM       LPDW     -1.11466       0.00000          -1   0.00000       0.00000    
     30722 TIP3     903      SWM4     H1       HDW      0.557330       1.00800           0   0.00000       0.00000    
     30723 TIP3     903      SWM4     H2       HDW      0.557330       1.00800           0   0.00000       0.00000    
     30724 TIP3     904      SWM4     OH2      ODW       1.71640       15.5994           0 -0.978253       1.30000    
     30725 TIP3     904      SWM4     DOH2     DOH2     -1.71640      0.400000           0   0.00000       0.00000    
     30726 TIP3     904      SWM4     OM       LPDW     -1.11466       0.00000          -1   0.00000       0.00000    
     30727 TIP3     904      SWM4     H1       HDW      0.557330       1.00800           0   0.00000       0.00000    
     30728 TIP3     904      SWM4     H2       HDW      0.557330       1.00800           0   0.00000       0.00000    
     30729 TIP3     905      SWM4     OH2      ODW       1.71640       15.5994           0 -0.978253       1.30000    
     30730 TIP3     905      SWM4     DOH2     DOH2     -1.71640      0.400000           0   0.00000       0.00000    
     30731 TIP3     905      SWM4     OM       LPDW     -1.11466       0.00000          -1   0.00000       0.00000    
     30732 TIP3     905      SWM4     H1       HDW      0.557330       1.00800           0   0.00000       0.00000    
     30733 TIP3     905      SWM4     H2       HDW      0.557330       1.00800           0   0.00000       0.00000    
     30734 TIP3     906      SWM4     OH2      ODW       1.71640       15.5994           0 -0.978253       1.30000    
     30735 TIP3     906      SWM4     DOH2     DOH2     -1.71640      0.400000           0   0.00000       0.00000    
     30736 TIP3     906      SWM4     OM       LPDW     -1.11466       0.00000          -1   0.00000       0.00000    
     30737 TIP3     906      SWM4     H1       HDW      0.557330       1.00800           0   0.00000       0.00000    
     30738 TIP3     906      SWM4     H2       HDW      0.557330       1.00800           0   0.00000       0.00000    
     30739 TIP3     907      SWM4     OH2      ODW       1.71640       15.5994           0 -0.978253       1.30000    
     30740 TIP3     907      SWM4     DOH2     DOH2     -1.71640      0.400000           0   0.00000       0.00000    
     30741 TIP3     907      SWM4     OM       LPDW     -1.11466       0.00000          -1   0.00000       0.00000    
     30742 TIP3     907      SWM4     H1       HDW      0.557330       1.00800           0   0.00000       0.00000    
     30743 TIP3     907      SWM4     H2       HDW      0.557330       1.00800           0   0.00000       0.00000    
     30744 TIP3     908      SWM4     OH2      ODW       1.71640       15.5994           0 -0.978253       1.30000    
     30745 TIP3     908      SWM4     DOH2     DOH2     -1.71640      0.400000           0   0.00000       0.00000    
     30746 TIP3     908      SWM4     OM       LPDW     -1.11466       0.00000          -1   0.00000       0.00000    
     30747 TIP3     908      SWM4     H1       HDW      0.557330       1.00800           0   0.00000       0.00000    
     30748 TIP3     908      SWM4     H2       HDW      0.557330       1.00800           0   0.00000       0.00000    
     30749 TIP3     909      SWM4     OH2      ODW       1.71640       15.5994           0 -0.978253       1.30000    
     30750 TIP3     909      SWM4     DOH2     DOH2     -1.71640      0.400000           0   0.00000       0.00000    
     30751 TIP3     909      SWM4     OM       LPDW     -1.11466       0.00000          -1   0.00000       0.00000    
     30752 TIP3     909      SWM4     H1       HDW      0.557330       1.00800           0   0.00000       0.00000    
     30753 TIP3     909      SWM4     H2       HDW      0.557330       1.00800           0   0.00000       0.00000    
     30754 TIP3     910      SWM4     OH2      ODW       1.71640       15.5994           0 -0.978253       1.30000    
     30755 TIP3     910      SWM4     DOH2     DOH2     -1.71640      0.400000           0   0.00000       0.00000    
     30756 TIP3     910      SWM4     OM       LPDW     -1.11466       0.00000          -1   0.00000       0.00000    
     30757 TIP3     910      SWM4     H1       HDW      0.557330       1.00800           0   0.00000       0.00000    
     30758 TIP3     910      SWM4     H2       HDW      0.557330       1.00800           0   0.00000       0.00000    
     30759 TIP3     911      SWM4     OH2      ODW       1.71640       15.5994           0 -0.978253       1.30000    
     30760 TIP3     911      SWM4     DOH2     DOH2     -1.71640      0.400000           0   0.00000       0.00000    
     30761 TIP3     911      SWM4     OM       LPDW     -1.11466       0.00000          -1   0.00000       0.00000    
     30762 TIP3     911      SWM4     H1       HDW      0.557330       1.00800           0   0.00000       0.00000    
     30763 TIP3     911      SWM4     H2       HDW      0.557330       1.00800           0   0.00000       0.00000    
     30764 TIP3     912      SWM4     OH2      ODW       1.71640       15.5994           0 -0.978253       1.30000    
     30765 TIP3     912      SWM4     DOH2     DOH2     -1.71640      0.400000           0   0.00000       0.00000    
     30766 TIP3     912      SWM4     OM       LPDW     -1.11466       0.00000          -1   0.00000       0.00000    
     30767 TIP3     912      SWM4     H1       HDW      0.557330       1.00800           0   0.00000       0.00000    
     30768 TIP3     912      SWM4     H2       HDW      0.557330       1.00800           0   0.00000       0.00000    
     30769 TIP3     913      SWM4     OH2      ODW       1.71640       15.5994           0 -0.978253       1.30000    
     30770 TIP3     913      SWM4     DOH2     DOH2     -1.71640      0.400000           0   0.00000       0.00000    
     30771 TIP3     913      SWM4     OM       LPDW     -1.11466       0.00000          -1   0.00000       0.00000    
     30772 TIP3     913      SWM4     H1       HDW      0.557330       1.00800           0   0.00000       0.00000    
     30773 TIP3     913      SWM4     H2       HDW      0.557330       1.00800           0   0.00000       0.00000    
     30774 TIP3     914      SWM4     OH2      ODW       1.71640       15.5994           0 -0.978253       1.30000    
     30775 TIP3     914      SWM4     DOH2     DOH2     -1.71640      0.400000           0   0.00000       0.00000    
     30776 TIP3     914      SWM4     OM       LPDW     -1.11466       0.00000          -1   0.00000       0.00000    
     30777 TIP3     914      SWM4     H1       HDW      0.557330       1.00800           0   0.00000       0.00000    
     30778 TIP3     914      SWM4     H2       HDW      0.557330       1.00800           0   0.00000       0.00000    
     30779 TIP3     915      SWM4     OH2      ODW       1.71640       15.5994           0 -0.978253       1.30000    
     30780 TIP3     915      SWM4     DOH2     DOH2     -1.71640      0.400000           0   0.00000       0.00000    
     30781 TIP3     915      SWM4     OM       LPDW     -1.11466       0.00000          -1   0.00000       0.00000    
     30782 TIP3     915      SWM4     H1       HDW      0.557330       1.00800           0   0.00000       0.00000    
     30783 TIP3     915      SWM4     H2       HDW      0.557330       1.00800           0   0.00000       0.00000    
     30784 TIP3     916      SWM4     OH2      ODW       1.71640       15.5994           0 -0.978253       1.30000    
     30785 TIP3     916      SWM4     DOH2     DOH2     -1.71640      0.400000           0   0.00000       0.00000    
     30786 TIP3     916      SWM4     OM       LPDW     -1.11466       0.00000          -1   0.00000       0.00000    
     30787 TIP3     916      SWM4     H1       HDW      0.557330       1.00800           0   0.00000       0.00000    
     30788 TIP3     916      SWM4     H2       HDW      0.557330       1.00800           0   0.00000       0.00000    
     30789 TIP3     917      SWM4     OH2      ODW       1.71640       15.5994           0 -0.978253       1.30000    
     30790 TIP3     917      SWM4     DOH2     DOH2     -1.71640      0.400000           0   0.00000       0.00000    
     30791 TIP3     917      SWM4     OM       LPDW     -1.11466       0.00000          -1   0.00000       0.00000    
     30792 TIP3     917      SWM4     H1       HDW      0.557330       1.00800           0   0.00000       0.00000    
     30793 TIP3     917      SWM4     H2       HDW      0.557330       1.00800           0   0.00000       0.00000    
     30794 TIP3     918      SWM4     OH2      ODW       1.71640       15.5994           0 -0.978253       1.30000    
     30795 TIP3     918      SWM4     DOH2     DOH2     -1.71640      0.400000           0   0.00000       0.00000    
     30796 TIP3     918      SWM4     OM       LPDW     -1.11466       0.00000          -1   0.00000       0.00000    
     30797 TIP3     918      SWM4     H1       HDW      0.557330       1.00800           0   0.00000       0.00000    
     30798 TIP3     918      SWM4     H2       HDW      0.557330       1.00800           0   0.00000       0.00000    
     30799 TIP3     919      SWM4     OH2      ODW       1.71640       15.5994           0 -0.978253       1.30000    
     30800 TIP3     919      SWM4     DOH2     DOH2     -1.71640      0.400000           0   0.00000       0.00000    
     30801 TIP3     919      SWM4     OM       LPDW     -1.11466       0.00000          -1   0.00000       0.00000    
     30802 TIP3     919      SWM4     H1       HDW      0.557330       1.00800           0   0.00000       0.00000    
     30803 TIP3     919      SWM4     H2       HDW      0.557330       1.00800           0   0.00000       0.00000    
     30804 TIP3     920      SWM4     OH2      ODW       1.71640       15.5994           0 -0.978253       1.30000    
     30805 TIP3     920      SWM4     DOH2     DOH2     -1.71640      0.400000           0   0.00000       0.00000    
     30806 TIP3     920      SWM4     OM       LPDW     -1.11466       0.00000          -1   0.00000       0.00000    
     30807 TIP3     920      SWM4     H1       HDW      0.557330       1.00800           0   0.00000       0.00000    
     30808 TIP3     920      SWM4     H2       HDW      0.557330       1.00800           0   0.00000       0.00000    
     30809 TIP3     921      SWM4     OH2      ODW       1.71640       15.5994           0 -0.978253       1.30000    
     30810 TIP3     921      SWM4     DOH2     DOH2     -1.71640      0.400000           0   0.00000       0.00000    
     30811 TIP3     921      SWM4     OM       LPDW     -1.11466       0.00000          -1   0.00000       0.00000    
     30812 TIP3     921      SWM4     H1       HDW      0.557330       1.00800           0   0.00000       0.00000    
     30813 TIP3     921      SWM4     H2       HDW      0.557330       1.00800           0   0.00000       0.00000    
     30814 TIP3     922      SWM4     OH2      ODW       1.71640       15.5994           0 -0.978253       1.30000    
     30815 TIP3     922      SWM4     DOH2     DOH2     -1.71640      0.400000           0   0.00000       0.00000    
     30816 TIP3     922      SWM4     OM       LPDW     -1.11466       0.00000          -1   0.00000       0.00000    
     30817 TIP3     922      SWM4     H1       HDW      0.557330       1.00800           0   0.00000       0.00000    
     30818 TIP3     922      SWM4     H2       HDW      0.557330       1.00800           0   0.00000       0.00000    
     30819 TIP3     923      SWM4     OH2      ODW       1.71640       15.5994           0 -0.978253       1.30000    
     30820 TIP3     923      SWM4     DOH2     DOH2     -1.71640      0.400000           0   0.00000       0.00000    
     30821 TIP3     923      SWM4     OM       LPDW     -1.11466       0.00000          -1   0.00000       0.00000    
     30822 TIP3     923      SWM4     H1       HDW      0.557330       1.00800           0   0.00000       0.00000    
     30823 TIP3     923      SWM4     H2       HDW      0.557330       1.00800           0   0.00000       0.00000    
     30824 TIP3     924      SWM4     OH2      ODW       1.71640       15.5994           0 -0.978253       1.30000    
     30825 TIP3     924      SWM4     DOH2     DOH2     -1.71640      0.400000           0   0.00000       0.00000    
     30826 TIP3     924      SWM4     OM       LPDW     -1.11466       0.00000          -1   0.00000       0.00000    
     30827 TIP3     924      SWM4     H1       HDW      0.557330       1.00800           0   0.00000       0.00000    
     30828 TIP3     924      SWM4     H2       HDW      0.557330       1.00800           0   0.00000       0.00000    
     30829 TIP3     925      SWM4     OH2      ODW       1.71640       15.5994           0 -0.978253       1.30000    
     30830 TIP3     925      SWM4     DOH2     DOH2     -1.71640      0.400000           0   0.00000       0.00000    
     30831 TIP3     925      SWM4     OM       LPDW     -1.11466       0.00000          -1   0.00000       0.00000    
     30832 TIP3     925      SWM4     H1       HDW      0.557330       1.00800           0   0.00000       0.00000    
     30833 TIP3     925      SWM4     H2       HDW      0.557330       1.00800           0   0.00000       0.00000    
     30834 TIP3     926      SWM4     OH2      ODW       1.71640       15.5994           0 -0.978253       1.30000    
     30835 TIP3     926      SWM4     DOH2     DOH2     -1.71640      0.400000           0   0.00000       0.00000    
     30836 TIP3     926      SWM4     OM       LPDW     -1.11466       0.00000          -1   0.00000       0.00000    
     30837 TIP3     926      SWM4     H1       HDW      0.557330       1.00800           0   0.00000       0.00000    
     30838 TIP3     926      SWM4     H2       HDW      0.557330       1.00800           0   0.00000       0.00000    
     30839 TIP3     927      SWM4     OH2      ODW       1.71640       15.5994           0 -0.978253       1.30000    
     30840 TIP3     927      SWM4     DOH2     DOH2     -1.71640      0.400000           0   0.00000       0.00000    
     30841 TIP3     927      SWM4     OM       LPDW     -1.11466       0.00000          -1   0.00000       0.00000    
     30842 TIP3     927      SWM4     H1       HDW      0.557330       1.00800           0   0.00000       0.00000    
     30843 TIP3     927      SWM4     H2       HDW      0.557330       1.00800           0   0.00000       0.00000    
     30844 TIP3     928      SWM4     OH2      ODW       1.71640       15.5994           0 -0.978253       1.30000    
     30845 TIP3     928      SWM4     DOH2     DOH2     -1.71640      0.400000           0   0.00000       0.00000    
     30846 TIP3     928      SWM4     OM       LPDW     -1.11466       0.00000          -1   0.00000       0.00000    
     30847 TIP3     928      SWM4     H1       HDW      0.557330       1.00800           0   0.00000       0.00000    
     30848 TIP3     928      SWM4     H2       HDW      0.557330       1.00800           0   0.00000       0.00000    
     30849 TIP3     929      SWM4     OH2      ODW       1.71640       15.5994           0 -0.978253       1.30000    
     30850 TIP3     929      SWM4     DOH2     DOH2     -1.71640      0.400000           0   0.00000       0.00000    
     30851 TIP3     929      SWM4     OM       LPDW     -1.11466       0.00000          -1   0.00000       0.00000    
     30852 TIP3     929      SWM4     H1       HDW      0.557330       1.00800           0   0.00000       0.00000    
     30853 TIP3     929      SWM4     H2       HDW      0.557330       1.00800           0   0.00000       0.00000    
     30854 TIP3     930      SWM4     OH2      ODW       1.71640       15.5994           0 -0.978253       1.30000    
     30855 TIP3     930      SWM4     DOH2     DOH2     -1.71640      0.400000           0   0.00000       0.00000    
     30856 TIP3     930      SWM4     OM       LPDW     -1.11466       0.00000          -1   0.00000       0.00000    
     30857 TIP3     930      SWM4     H1       HDW      0.557330       1.00800           0   0.00000       0.00000    
     30858 TIP3     930      SWM4     H2       HDW      0.557330       1.00800           0   0.00000       0.00000    
     30859 TIP3     931      SWM4     OH2      ODW       1.71640       15.5994           0 -0.978253       1.30000    
     30860 TIP3     931      SWM4     DOH2     DOH2     -1.71640      0.400000           0   0.00000       0.00000    
     30861 TIP3     931      SWM4     OM       LPDW     -1.11466       0.00000          -1   0.00000       0.00000    
     30862 TIP3     931      SWM4     H1       HDW      0.557330       1.00800           0   0.00000       0.00000    
     30863 TIP3     931      SWM4     H2       HDW      0.557330       1.00800           0   0.00000       0.00000    
     30864 TIP3     932      SWM4     OH2      ODW       1.71640       15.5994           0 -0.978253       1.30000    
     30865 TIP3     932      SWM4     DOH2     DOH2     -1.71640      0.400000           0   0.00000       0.00000    
     30866 TIP3     932      SWM4     OM       LPDW     -1.11466       0.00000          -1   0.00000       0.00000    
     30867 TIP3     932      SWM4     H1       HDW      0.557330       1.00800           0   0.00000       0.00000    
     30868 TIP3     932      SWM4     H2       HDW      0.557330       1.00800           0   0.00000       0.00000    
     30869 TIP3     933      SWM4     OH2      ODW       1.71640       15.5994           0 -0.978253       1.30000    
     30870 TIP3     933      SWM4     DOH2     DOH2     -1.71640      0.400000           0   0.00000       0.00000    
     30871 TIP3     933      SWM4     OM       LPDW     -1.11466       0.00000          -1   0.00000       0.00000    
     30872 TIP3     933      SWM4     H1       HDW      0.557330       1.00800           0   0.00000       0.00000    
     30873 TIP3     933      SWM4     H2       HDW      0.557330       1.00800           0   0.00000       0.00000    
     30874 TIP3     934      SWM4     OH2      ODW       1.71640       15.5994           0 -0.978253       1.30000    
     30875 TIP3     934      SWM4     DOH2     DOH2     -1.71640      0.400000           0   0.00000       0.00000    
     30876 TIP3     934      SWM4     OM       LPDW     -1.11466       0.00000          -1   0.00000       0.00000    
     30877 TIP3     934      SWM4     H1       HDW      0.557330       1.00800           0   0.00000       0.00000    
     30878 TIP3     934      SWM4     H2       HDW      0.557330       1.00800           0   0.00000       0.00000    
     30879 TIP3     935      SWM4     OH2      ODW       1.71640       15.5994           0 -0.978253       1.30000    
     30880 TIP3     935      SWM4     DOH2     DOH2     -1.71640      0.400000           0   0.00000       0.00000    
     30881 TIP3     935      SWM4     OM       LPDW     -1.11466       0.00000          -1   0.00000       0.00000    
     30882 TIP3     935      SWM4     H1       HDW      0.557330       1.00800           0   0.00000       0.00000    
     30883 TIP3     935      SWM4     H2       HDW      0.557330       1.00800           0   0.00000       0.00000    
     30884 TIP3     936      SWM4     OH2      ODW       1.71640       15.5994           0 -0.978253       1.30000    
     30885 TIP3     936      SWM4     DOH2     DOH2     -1.71640      0.400000           0   0.00000       0.00000    
     30886 TIP3     936      SWM4     OM       LPDW     -1.11466       0.00000          -1   0.00000       0.00000    
     30887 TIP3     936      SWM4     H1       HDW      0.557330       1.00800           0   0.00000       0.00000    
     30888 TIP3     936      SWM4     H2       HDW      0.557330       1.00800           0   0.00000       0.00000    
     30889 TIP3     937      SWM4     OH2      ODW       1.71640       15.5994           0 -0.978253       1.30000    
     30890 TIP3     937      SWM4     DOH2     DOH2     -1.71640      0.400000           0   0.00000       0.00000    
     30891 TIP3     937      SWM4     OM       LPDW     -1.11466       0.00000          -1   0.00000       0.00000    
     30892 TIP3     937      SWM4     H1       HDW      0.557330       1.00800           0   0.00000       0.00000    
     30893 TIP3     937      SWM4     H2       HDW      0.557330       1.00800           0   0.00000       0.00000    
     30894 TIP3     938      SWM4     OH2      ODW       1.71640       15.5994           0 -0.978253       1.30000    
     30895 TIP3     938      SWM4     DOH2     DOH2     -1.71640      0.400000           0   0.00000       0.00000    
     30896 TIP3     938      SWM4     OM       LPDW     -1.11466       0.00000          -1   0.00000       0.00000    
     30897 TIP3     938      SWM4     H1       HDW      0.557330       1.00800           0   0.00000       0.00000    
     30898 TIP3     938      SWM4     H2       HDW      0.557330       1.00800           0   0.00000       0.00000    
     30899 TIP3     939      SWM4     OH2      ODW       1.71640       15.5994           0 -0.978253       1.30000    
     30900 TIP3     939      SWM4     DOH2     DOH2     -1.71640      0.400000           0   0.00000       0.00000    
     30901 TIP3     939      SWM4     OM       LPDW     -1.11466       0.00000          -1   0.00000       0.00000    
     30902 TIP3     939      SWM4     H1       HDW      0.557330       1.00800           0   0.00000       0.00000    
     30903 TIP3     939      SWM4     H2       HDW      0.557330       1.00800           0   0.00000       0.00000    
     30904 TIP3     940      SWM4     OH2      ODW       1.71640       15.5994           0 -0.978253       1.30000    
     30905 TIP3     940      SWM4     DOH2     DOH2     -1.71640      0.400000           0   0.00000       0.00000    
     30906 TIP3     940      SWM4     OM       LPDW     -1.11466       0.00000          -1   0.00000       0.00000    
     30907 TIP3     940      SWM4     H1       HDW      0.557330       1.00800           0   0.00000       0.00000    
     30908 TIP3     940      SWM4     H2       HDW      0.557330       1.00800           0   0.00000       0.00000    
     30909 TIP3     941      SWM4     OH2      ODW       1.71640       15.5994           0 -0.978253       1.30000    
     30910 TIP3     941      SWM4     DOH2     DOH2     -1.71640      0.400000           0   0.00000       0.00000    
     30911 TIP3     941      SWM4     OM       LPDW     -1.11466       0.00000          -1   0.00000       0.00000    
     30912 TIP3     941      SWM4     H1       HDW      0.557330       1.00800           0   0.00000       0.00000    
     30913 TIP3     941      SWM4     H2       HDW      0.557330       1.00800           0   0.00000       0.00000    
     30914 TIP3     942      SWM4     OH2      ODW       1.71640       15.5994           0 -0.978253       1.30000    
     30915 TIP3     942      SWM4     DOH2     DOH2     -1.71640      0.400000           0   0.00000       0.00000    
     30916 TIP3     942      SWM4     OM       LPDW     -1.11466       0.00000          -1   0.00000       0.00000    
     30917 TIP3     942      SWM4     H1       HDW      0.557330       1.00800           0   0.00000       0.00000    
     30918 TIP3     942      SWM4     H2       HDW      0.557330       1.00800           0   0.00000       0.00000    
     30919 TIP3     943      SWM4     OH2      ODW       1.71640       15.5994           0 -0.978253       1.30000    
     30920 TIP3     943      SWM4     DOH2     DOH2     -1.71640      0.400000           0   0.00000       0.00000    
     30921 TIP3     943      SWM4     OM       LPDW     -1.11466       0.00000          -1   0.00000       0.00000    
     30922 TIP3     943      SWM4     H1       HDW      0.557330       1.00800           0   0.00000       0.00000    
     30923 TIP3     943      SWM4     H2       HDW      0.557330       1.00800           0   0.00000       0.00000    
     30924 TIP3     944      SWM4     OH2      ODW       1.71640       15.5994           0 -0.978253       1.30000    
     30925 TIP3     944      SWM4     DOH2     DOH2     -1.71640      0.400000           0   0.00000       0.00000    
     30926 TIP3     944      SWM4     OM       LPDW     -1.11466       0.00000          -1   0.00000       0.00000    
     30927 TIP3     944      SWM4     H1       HDW      0.557330       1.00800           0   0.00000       0.00000    
     30928 TIP3     944      SWM4     H2       HDW      0.557330       1.00800           0   0.00000       0.00000    
     30929 TIP3     945      SWM4     OH2      ODW       1.71640       15.5994           0 -0.978253       1.30000    
     30930 TIP3     945      SWM4     DOH2     DOH2     -1.71640      0.400000           0   0.00000       0.00000    
     30931 TIP3     945      SWM4     OM       LPDW     -1.11466       0.00000          -1   0.00000       0.00000    
     30932 TIP3     945      SWM4     H1       HDW      0.557330       1.00800           0   0.00000       0.00000    
     30933 TIP3     945      SWM4     H2       HDW      0.557330       1.00800           0   0.00000       0.00000    
     30934 TIP3     946      SWM4     OH2      ODW       1.71640       15.5994           0 -0.978253       1.30000    
     30935 TIP3     946      SWM4     DOH2     DOH2     -1.71640      0.400000           0   0.00000       0.00000    
     30936 TIP3     946      SWM4     OM       LPDW     -1.11466       0.00000          -1   0.00000       0.00000    
     30937 TIP3     946      SWM4     H1       HDW      0.557330       1.00800           0   0.00000       0.00000    
     30938 TIP3     946      SWM4     H2       HDW      0.557330       1.00800           0   0.00000       0.00000    
     30939 TIP3     947      SWM4     OH2      ODW       1.71640       15.5994           0 -0.978253       1.30000    
     30940 TIP3     947      SWM4     DOH2     DOH2     -1.71640      0.400000           0   0.00000       0.00000    
     30941 TIP3     947      SWM4     OM       LPDW     -1.11466       0.00000          -1   0.00000       0.00000    
     30942 TIP3     947      SWM4     H1       HDW      0.557330       1.00800           0   0.00000       0.00000    
     30943 TIP3     947      SWM4     H2       HDW      0.557330       1.00800           0   0.00000       0.00000    
     30944 TIP3     948      SWM4     OH2      ODW       1.71640       15.5994           0 -0.978253       1.30000    
     30945 TIP3     948      SWM4     DOH2     DOH2     -1.71640      0.400000           0   0.00000       0.00000    
     30946 TIP3     948      SWM4     OM       LPDW     -1.11466       0.00000          -1   0.00000       0.00000    
     30947 TIP3     948      SWM4     H1       HDW      0.557330       1.00800           0   0.00000       0.00000    
     30948 TIP3     948      SWM4     H2       HDW      0.557330       1.00800           0   0.00000       0.00000    
     30949 TIP3     949      SWM4     OH2      ODW       1.71640       15.5994           0 -0.978253       1.30000    
     30950 TIP3     949      SWM4     DOH2     DOH2     -1.71640      0.400000           0   0.00000       0.00000    
     30951 TIP3     949      SWM4     OM       LPDW     -1.11466       0.00000          -1   0.00000       0.00000    
     30952 TIP3     949      SWM4     H1       HDW      0.557330       1.00800           0   0.00000       0.00000    
     30953 TIP3     949      SWM4     H2       HDW      0.557330       1.00800           0   0.00000       0.00000    
     30954 TIP3     950      SWM4     OH2      ODW       1.71640       15.5994           0 -0.978253       1.30000    
     30955 TIP3     950      SWM4     DOH2     DOH2     -1.71640      0.400000           0   0.00000       0.00000    
     30956 TIP3     950      SWM4     OM       LPDW     -1.11466       0.00000          -1   0.00000       0.00000    
     30957 TIP3     950      SWM4     H1       HDW      0.557330       1.00800           0   0.00000       0.00000    
     30958 TIP3     950      SWM4     H2       HDW      0.557330       1.00800           0   0.00000       0.00000    
     30959 TIP3     951      SWM4     OH2      ODW       1.71640       15.5994           0 -0.978253       1.30000    
     30960 TIP3     951      SWM4     DOH2     DOH2     -1.71640      0.400000           0   0.00000       0.00000    
     30961 TIP3     951      SWM4     OM       LPDW     -1.11466       0.00000          -1   0.00000       0.00000    
     30962 TIP3     951      SWM4     H1       HDW      0.557330       1.00800           0   0.00000       0.00000    
     30963 TIP3     951      SWM4     H2       HDW      0.557330       1.00800           0   0.00000       0.00000    
     30964 TIP3     952      SWM4     OH2      ODW       1.71640       15.5994           0 -0.978253       1.30000    
     30965 TIP3     952      SWM4     DOH2     DOH2     -1.71640      0.400000           0   0.00000       0.00000    
     30966 TIP3     952      SWM4     OM       LPDW     -1.11466       0.00000          -1   0.00000       0.00000    
     30967 TIP3     952      SWM4     H1       HDW      0.557330       1.00800           0   0.00000       0.00000    
     30968 TIP3     952      SWM4     H2       HDW      0.557330       1.00800           0   0.00000       0.00000    
     30969 TIP3     953      SWM4     OH2      ODW       1.71640       15.5994           0 -0.978253       1.30000    
     30970 TIP3     953      SWM4     DOH2     DOH2     -1.71640      0.400000           0   0.00000       0.00000    
     30971 TIP3     953      SWM4     OM       LPDW     -1.11466       0.00000          -1   0.00000       0.00000    
     30972 TIP3     953      SWM4     H1       HDW      0.557330       1.00800           0   0.00000       0.00000    
     30973 TIP3     953      SWM4     H2       HDW      0.557330       1.00800           0   0.00000       0.00000    
     30974 TIP3     954      SWM4     OH2      ODW       1.71640       15.5994           0 -0.978253       1.30000    
     30975 TIP3     954      SWM4     DOH2     DOH2     -1.71640      0.400000           0   0.00000       0.00000    
     30976 TIP3     954      SWM4     OM       LPDW     -1.11466       0.00000          -1   0.00000       0.00000    
     30977 TIP3     954      SWM4     H1       HDW      0.557330       1.00800           0   0.00000       0.00000    
     30978 TIP3     954      SWM4     H2       HDW      0.557330       1.00800           0   0.00000       0.00000    
     30979 TIP3     955      SWM4     OH2      ODW       1.71640       15.5994           0 -0.978253       1.30000    
     30980 TIP3     955      SWM4     DOH2     DOH2     -1.71640      0.400000           0   0.00000       0.00000    
     30981 TIP3     955      SWM4     OM       LPDW     -1.11466       0.00000          -1   0.00000       0.00000    
     30982 TIP3     955      SWM4     H1       HDW      0.557330       1.00800           0   0.00000       0.00000    
     30983 TIP3     955      SWM4     H2       HDW      0.557330       1.00800           0   0.00000       0.00000    
     30984 TIP3     956      SWM4     OH2      ODW       1.71640       15.5994           0 -0.978253       1.30000    
     30985 TIP3     956      SWM4     DOH2     DOH2     -1.71640      0.400000           0   0.00000       0.00000    
     30986 TIP3     956      SWM4     OM       LPDW     -1.11466       0.00000          -1   0.00000       0.00000    
     30987 TIP3     956      SWM4     H1       HDW      0.557330       1.00800           0   0.00000       0.00000    
     30988 TIP3     956      SWM4     H2       HDW      0.557330       1.00800           0   0.00000       0.00000    
     30989 TIP3     957      SWM4     OH2      ODW       1.71640       15.5994           0 -0.978253       1.30000    
     30990 TIP3     957      SWM4     DOH2     DOH2     -1.71640      0.400000           0   0.00000       0.00000    
     30991 TIP3     957      SWM4     OM       LPDW     -1.11466       0.00000          -1   0.00000       0.00000    
     30992 TIP3     957      SWM4     H1       HDW      0.557330       1.00800           0   0.00000       0.00000    
     30993 TIP3     957      SWM4     H2       HDW      0.557330       1.00800           0   0.00000       0.00000    
     30994 TIP3     958      SWM4     OH2      ODW       1.71640       15.5994           0 -0.978253       1.30000    
     30995 TIP3     958      SWM4     DOH2     DOH2     -1.71640      0.400000           0   0.00000       0.00000    
     30996 TIP3     958      SWM4     OM       LPDW     -1.11466       0.00000          -1   0.00000       0.00000    
     30997 TIP3     958      SWM4     H1       HDW      0.557330       1.00800           0   0.00000       0.00000    
     30998 TIP3     958      SWM4     H2       HDW      0.557330       1.00800           0   0.00000       0.00000    
     30999 TIP3     959      SWM4     OH2      ODW       1.71640       15.5994           0 -0.978253       1.30000    
     31000 TIP3     959      SWM4     DOH2     DOH2     -1.71640      0.400000           0   0.00000       0.00000    
     31001 TIP3     959      SWM4     OM       LPDW     -1.11466       0.00000          -1   0.00000       0.00000    
     31002 TIP3     959      SWM4     H1       HDW      0.557330       1.00800           0   0.00000       0.00000    
     31003 TIP3     959      SWM4     H2       HDW      0.557330       1.00800           0   0.00000       0.00000    
     31004 TIP3     960      SWM4     OH2      ODW       1.71640       15.5994           0 -0.978253       1.30000    
     31005 TIP3     960      SWM4     DOH2     DOH2     -1.71640      0.400000           0   0.00000       0.00000    
     31006 TIP3     960      SWM4     OM       LPDW     -1.11466       0.00000          -1   0.00000       0.00000    
     31007 TIP3     960      SWM4     H1       HDW      0.557330       1.00800           0   0.00000       0.00000    
     31008 TIP3     960      SWM4     H2       HDW      0.557330       1.00800           0   0.00000       0.00000    
     31009 TIP3     961      SWM4     OH2      ODW       1.71640       15.5994           0 -0.978253       1.30000    
     31010 TIP3     961      SWM4     DOH2     DOH2     -1.71640      0.400000           0   0.00000       0.00000    
     31011 TIP3     961      SWM4     OM       LPDW     -1.11466       0.00000          -1   0.00000       0.00000    
     31012 TIP3     961      SWM4     H1       HDW      0.557330       1.00800           0   0.00000       0.00000    
     31013 TIP3     961      SWM4     H2       HDW      0.557330       1.00800           0   0.00000       0.00000    
     31014 TIP3     962      SWM4     OH2      ODW       1.71640       15.5994           0 -0.978253       1.30000    
     31015 TIP3     962      SWM4     DOH2     DOH2     -1.71640      0.400000           0   0.00000       0.00000    
     31016 TIP3     962      SWM4     OM       LPDW     -1.11466       0.00000          -1   0.00000       0.00000    
     31017 TIP3     962      SWM4     H1       HDW      0.557330       1.00800           0   0.00000       0.00000    
     31018 TIP3     962      SWM4     H2       HDW      0.557330       1.00800           0   0.00000       0.00000    
     31019 TIP3     963      SWM4     OH2      ODW       1.71640       15.5994           0 -0.978253       1.30000    
     31020 TIP3     963      SWM4     DOH2     DOH2     -1.71640      0.400000           0   0.00000       0.00000    
     31021 TIP3     963      SWM4     OM       LPDW     -1.11466       0.00000          -1   0.00000       0.00000    
     31022 TIP3     963      SWM4     H1       HDW      0.557330       1.00800           0   0.00000       0.00000    
     31023 TIP3     963      SWM4     H2       HDW      0.557330       1.00800           0   0.00000       0.00000    
     31024 TIP3     964      SWM4     OH2      ODW       1.71640       15.5994           0 -0.978253       1.30000    
     31025 TIP3     964      SWM4     DOH2     DOH2     -1.71640      0.400000           0   0.00000       0.00000    
     31026 TIP3     964      SWM4     OM       LPDW     -1.11466       0.00000          -1   0.00000       0.00000    
     31027 TIP3     964      SWM4     H1       HDW      0.557330       1.00800           0   0.00000       0.00000    
     31028 TIP3     964      SWM4     H2       HDW      0.557330       1.00800           0   0.00000       0.00000    
     31029 TIP3     965      SWM4     OH2      ODW       1.71640       15.5994           0 -0.978253       1.30000    
     31030 TIP3     965      SWM4     DOH2     DOH2     -1.71640      0.400000           0   0.00000       0.00000    
     31031 TIP3     965      SWM4     OM       LPDW     -1.11466       0.00000          -1   0.00000       0.00000    
     31032 TIP3     965      SWM4     H1       HDW      0.557330       1.00800           0   0.00000       0.00000    
     31033 TIP3     965      SWM4     H2       HDW      0.557330       1.00800           0   0.00000       0.00000    
     31034 TIP3     966      SWM4     OH2      ODW       1.71640       15.5994           0 -0.978253       1.30000    
     31035 TIP3     966      SWM4     DOH2     DOH2     -1.71640      0.400000           0   0.00000       0.00000    
     31036 TIP3     966      SWM4     OM       LPDW     -1.11466       0.00000          -1   0.00000       0.00000    
     31037 TIP3     966      SWM4     H1       HDW      0.557330       1.00800           0   0.00000       0.00000    
     31038 TIP3     966      SWM4     H2       HDW      0.557330       1.00800           0   0.00000       0.00000    
     31039 TIP3     967      SWM4     OH2      ODW       1.71640       15.5994           0 -0.978253       1.30000    
     31040 TIP3     967      SWM4     DOH2     DOH2     -1.71640      0.400000           0   0.00000       0.00000    
     31041 TIP3     967      SWM4     OM       LPDW     -1.11466       0.00000          -1   0.00000       0.00000    
     31042 TIP3     967      SWM4     H1       HDW      0.557330       1.00800           0   0.00000       0.00000    
     31043 TIP3     967      SWM4     H2       HDW      0.557330       1.00800           0   0.00000       0.00000    
     31044 TIP3     968      SWM4     OH2      ODW       1.71640       15.5994           0 -0.978253       1.30000    
     31045 TIP3     968      SWM4     DOH2     DOH2     -1.71640      0.400000           0   0.00000       0.00000    
     31046 TIP3     968      SWM4     OM       LPDW     -1.11466       0.00000          -1   0.00000       0.00000    
     31047 TIP3     968      SWM4     H1       HDW      0.557330       1.00800           0   0.00000       0.00000    
     31048 TIP3     968      SWM4     H2       HDW      0.557330       1.00800           0   0.00000       0.00000    
     31049 TIP3     969      SWM4     OH2      ODW       1.71640       15.5994           0 -0.978253       1.30000    
     31050 TIP3     969      SWM4     DOH2     DOH2     -1.71640      0.400000           0   0.00000       0.00000    
     31051 TIP3     969      SWM4     OM       LPDW     -1.11466       0.00000          -1   0.00000       0.00000    
     31052 TIP3     969      SWM4     H1       HDW      0.557330       1.00800           0   0.00000       0.00000    
     31053 TIP3     969      SWM4     H2       HDW      0.557330       1.00800           0   0.00000       0.00000    
     31054 TIP3     970      SWM4     OH2      ODW       1.71640       15.5994           0 -0.978253       1.30000    
     31055 TIP3     970      SWM4     DOH2     DOH2     -1.71640      0.400000           0   0.00000       0.00000    
     31056 TIP3     970      SWM4     OM       LPDW     -1.11466       0.00000          -1   0.00000       0.00000    
     31057 TIP3     970      SWM4     H1       HDW      0.557330       1.00800           0   0.00000       0.00000    
     31058 TIP3     970      SWM4     H2       HDW      0.557330       1.00800           0   0.00000       0.00000    
     31059 TIP3     971      SWM4     OH2      ODW       1.71640       15.5994           0 -0.978253       1.30000    
     31060 TIP3     971      SWM4     DOH2     DOH2     -1.71640      0.400000           0   0.00000       0.00000    
     31061 TIP3     971      SWM4     OM       LPDW     -1.11466       0.00000          -1   0.00000       0.00000    
     31062 TIP3     971      SWM4     H1       HDW      0.557330       1.00800           0   0.00000       0.00000    
     31063 TIP3     971      SWM4     H2       HDW      0.557330       1.00800           0   0.00000       0.00000    
     31064 TIP3     972      SWM4     OH2      ODW       1.71640       15.5994           0 -0.978253       1.30000    
     31065 TIP3     972      SWM4     DOH2     DOH2     -1.71640      0.400000           0   0.00000       0.00000    
     31066 TIP3     972      SWM4     OM       LPDW     -1.11466       0.00000          -1   0.00000       0.00000    
     31067 TIP3     972      SWM4     H1       HDW      0.557330       1.00800           0   0.00000       0.00000    
     31068 TIP3     972      SWM4     H2       HDW      0.557330       1.00800           0   0.00000       0.00000    
     31069 TIP3     973      SWM4     OH2      ODW       1.71640       15.5994           0 -0.978253       1.30000    
     31070 TIP3     973      SWM4     DOH2     DOH2     -1.71640      0.400000           0   0.00000       0.00000    
     31071 TIP3     973      SWM4     OM       LPDW     -1.11466       0.00000          -1   0.00000       0.00000    
     31072 TIP3     973      SWM4     H1       HDW      0.557330       1.00800           0   0.00000       0.00000    
     31073 TIP3     973      SWM4     H2       HDW      0.557330       1.00800           0   0.00000       0.00000    
     31074 TIP3     974      SWM4     OH2      ODW       1.71640       15.5994           0 -0.978253       1.30000    
     31075 TIP3     974      SWM4     DOH2     DOH2     -1.71640      0.400000           0   0.00000       0.00000    
     31076 TIP3     974      SWM4     OM       LPDW     -1.11466       0.00000          -1   0.00000       0.00000    
     31077 TIP3     974      SWM4     H1       HDW      0.557330       1.00800           0   0.00000       0.00000    
     31078 TIP3     974      SWM4     H2       HDW      0.557330       1.00800           0   0.00000       0.00000    
     31079 TIP3     975      SWM4     OH2      ODW       1.71640       15.5994           0 -0.978253       1.30000    
     31080 TIP3     975      SWM4     DOH2     DOH2     -1.71640      0.400000           0   0.00000       0.00000    
     31081 TIP3     975      SWM4     OM       LPDW     -1.11466       0.00000          -1   0.00000       0.00000    
     31082 TIP3     975      SWM4     H1       HDW      0.557330       1.00800           0   0.00000       0.00000    
     31083 TIP3     975      SWM4     H2       HDW      0.557330       1.00800           0   0.00000       0.00000    
     31084 TIP3     976      SWM4     OH2      ODW       1.71640       15.5994           0 -0.978253       1.30000    
     31085 TIP3     976      SWM4     DOH2     DOH2     -1.71640      0.400000           0   0.00000       0.00000    
     31086 TIP3     976      SWM4     OM       LPDW     -1.11466       0.00000          -1   0.00000       0.00000    
     31087 TIP3     976      SWM4     H1       HDW      0.557330       1.00800           0   0.00000       0.00000    
     31088 TIP3     976      SWM4     H2       HDW      0.557330       1.00800           0   0.00000       0.00000    
     31089 TIP3     977      SWM4     OH2      ODW       1.71640       15.5994           0 -0.978253       1.30000    
     31090 TIP3     977      SWM4     DOH2     DOH2     -1.71640      0.400000           0   0.00000       0.00000    
     31091 TIP3     977      SWM4     OM       LPDW     -1.11466       0.00000          -1   0.00000       0.00000    
     31092 TIP3     977      SWM4     H1       HDW      0.557330       1.00800           0   0.00000       0.00000    
     31093 TIP3     977      SWM4     H2       HDW      0.557330       1.00800           0   0.00000       0.00000    
     31094 TIP3     978      SWM4     OH2      ODW       1.71640       15.5994           0 -0.978253       1.30000    
     31095 TIP3     978      SWM4     DOH2     DOH2     -1.71640      0.400000           0   0.00000       0.00000    
     31096 TIP3     978      SWM4     OM       LPDW     -1.11466       0.00000          -1   0.00000       0.00000    
     31097 TIP3     978      SWM4     H1       HDW      0.557330       1.00800           0   0.00000       0.00000    
     31098 TIP3     978      SWM4     H2       HDW      0.557330       1.00800           0   0.00000       0.00000    
     31099 TIP3     979      SWM4     OH2      ODW       1.71640       15.5994           0 -0.978253       1.30000    
     31100 TIP3     979      SWM4     DOH2     DOH2     -1.71640      0.400000           0   0.00000       0.00000    
     31101 TIP3     979      SWM4     OM       LPDW     -1.11466       0.00000          -1   0.00000       0.00000    
     31102 TIP3     979      SWM4     H1       HDW      0.557330       1.00800           0   0.00000       0.00000    
     31103 TIP3     979      SWM4     H2       HDW      0.557330       1.00800           0   0.00000       0.00000    
     31104 TIP3     980      SWM4     OH2      ODW       1.71640       15.5994           0 -0.978253       1.30000    
     31105 TIP3     980      SWM4     DOH2     DOH2     -1.71640      0.400000           0   0.00000       0.00000    
     31106 TIP3     980      SWM4     OM       LPDW     -1.11466       0.00000          -1   0.00000       0.00000    
     31107 TIP3     980      SWM4     H1       HDW      0.557330       1.00800           0   0.00000       0.00000    
     31108 TIP3     980      SWM4     H2       HDW      0.557330       1.00800           0   0.00000       0.00000    
     31109 TIP3     981      SWM4     OH2      ODW       1.71640       15.5994           0 -0.978253       1.30000    
     31110 TIP3     981      SWM4     DOH2     DOH2     -1.71640      0.400000           0   0.00000       0.00000    
     31111 TIP3     981      SWM4     OM       LPDW     -1.11466       0.00000          -1   0.00000       0.00000    
     31112 TIP3     981      SWM4     H1       HDW      0.557330       1.00800           0   0.00000       0.00000    
     31113 TIP3     981      SWM4     H2       HDW      0.557330       1.00800           0   0.00000       0.00000    
     31114 TIP3     982      SWM4     OH2      ODW       1.71640       15.5994           0 -0.978253       1.30000    
     31115 TIP3     982      SWM4     DOH2     DOH2     -1.71640      0.400000           0   0.00000       0.00000    
     31116 TIP3     982      SWM4     OM       LPDW     -1.11466       0.00000          -1   0.00000       0.00000    
     31117 TIP3     982      SWM4     H1       HDW      0.557330       1.00800           0   0.00000       0.00000    
     31118 TIP3     982      SWM4     H2       HDW      0.557330       1.00800           0   0.00000       0.00000    
     31119 TIP3     983      SWM4     OH2      ODW       1.71640       15.5994           0 -0.978253       1.30000    
     31120 TIP3     983      SWM4     DOH2     DOH2     -1.71640      0.400000           0   0.00000       0.00000    
     31121 TIP3     983      SWM4     OM       LPDW     -1.11466       0.00000          -1   0.00000       0.00000    
     31122 TIP3     983      SWM4     H1       HDW      0.557330       1.00800           0   0.00000       0.00000    
     31123 TIP3     983      SWM4     H2       HDW      0.557330       1.00800           0   0.00000       0.00000    
     31124 TIP3     984      SWM4     OH2      ODW       1.71640       15.5994           0 -0.978253       1.30000    
     31125 TIP3     984      SWM4     DOH2     DOH2     -1.71640      0.400000           0   0.00000       0.00000    
     31126 TIP3     984      SWM4     OM       LPDW     -1.11466       0.00000          -1   0.00000       0.00000    
     31127 TIP3     984      SWM4     H1       HDW      0.557330       1.00800           0   0.00000       0.00000    
     31128 TIP3     984      SWM4     H2       HDW      0.557330       1.00800           0   0.00000       0.00000    
     31129 TIP3     985      SWM4     OH2      ODW       1.71640       15.5994           0 -0.978253       1.30000    
     31130 TIP3     985      SWM4     DOH2     DOH2     -1.71640      0.400000           0   0.00000       0.00000    
     31131 TIP3     985      SWM4     OM       LPDW     -1.11466       0.00000          -1   0.00000       0.00000    
     31132 TIP3     985      SWM4     H1       HDW      0.557330       1.00800           0   0.00000       0.00000    
     31133 TIP3     985      SWM4     H2       HDW      0.557330       1.00800           0   0.00000       0.00000    
     31134 TIP3     986      SWM4     OH2      ODW       1.71640       15.5994           0 -0.978253       1.30000    
     31135 TIP3     986      SWM4     DOH2     DOH2     -1.71640      0.400000           0   0.00000       0.00000    
     31136 TIP3     986      SWM4     OM       LPDW     -1.11466       0.00000          -1   0.00000       0.00000    
     31137 TIP3     986      SWM4     H1       HDW      0.557330       1.00800           0   0.00000       0.00000    
     31138 TIP3     986      SWM4     H2       HDW      0.557330       1.00800           0   0.00000       0.00000    
     31139 TIP3     987      SWM4     OH2      ODW       1.71640       15.5994           0 -0.978253       1.30000    
     31140 TIP3     987      SWM4     DOH2     DOH2     -1.71640      0.400000           0   0.00000       0.00000    
     31141 TIP3     987      SWM4     OM       LPDW     -1.11466       0.00000          -1   0.00000       0.00000    
     31142 TIP3     987      SWM4     H1       HDW      0.557330       1.00800           0   0.00000       0.00000    
     31143 TIP3     987      SWM4     H2       HDW      0.557330       1.00800           0   0.00000       0.00000    
     31144 TIP3     988      SWM4     OH2      ODW       1.71640       15.5994           0 -0.978253       1.30000    
     31145 TIP3     988      SWM4     DOH2     DOH2     -1.71640      0.400000           0   0.00000       0.00000    
     31146 TIP3     988      SWM4     OM       LPDW     -1.11466       0.00000          -1   0.00000       0.00000    
     31147 TIP3     988      SWM4     H1       HDW      0.557330       1.00800           0   0.00000       0.00000    
     31148 TIP3     988      SWM4     H2       HDW      0.557330       1.00800           0   0.00000       0.00000    
     31149 TIP3     989      SWM4     OH2      ODW       1.71640       15.5994           0 -0.978253       1.30000    
     31150 TIP3     989      SWM4     DOH2     DOH2     -1.71640      0.400000           0   0.00000       0.00000    
     31151 TIP3     989      SWM4     OM       LPDW     -1.11466       0.00000          -1   0.00000       0.00000    
     31152 TIP3     989      SWM4     H1       HDW      0.557330       1.00800           0   0.00000       0.00000    
     31153 TIP3     989      SWM4     H2       HDW      0.557330       1.00800           0   0.00000       0.00000    
     31154 TIP3     990      SWM4     OH2      ODW       1.71640       15.5994           0 -0.978253       1.30000    
     31155 TIP3     990      SWM4     DOH2     DOH2     -1.71640      0.400000           0   0.00000       0.00000    
     31156 TIP3     990      SWM4     OM       LPDW     -1.11466       0.00000          -1   0.00000       0.00000    
     31157 TIP3     990      SWM4     H1       HDW      0.557330       1.00800           0   0.00000       0.00000    
     31158 TIP3     990      SWM4     H2       HDW      0.557330       1.00800           0   0.00000       0.00000    
     31159 TIP3     991      SWM4     OH2      ODW       1.71640       15.5994           0 -0.978253       1.30000    
     31160 TIP3     991      SWM4     DOH2     DOH2     -1.71640      0.400000           0   0.00000       0.00000    
     31161 TIP3     991      SWM4     OM       LPDW     -1.11466       0.00000          -1   0.00000       0.00000    
     31162 TIP3     991      SWM4     H1       HDW      0.557330       1.00800           0   0.00000       0.00000    
     31163 TIP3     991      SWM4     H2       HDW      0.557330       1.00800           0   0.00000       0.00000    
     31164 TIP3     992      SWM4     OH2      ODW       1.71640       15.5994           0 -0.978253       1.30000    
     31165 TIP3     992      SWM4     DOH2     DOH2     -1.71640      0.400000           0   0.00000       0.00000    
     31166 TIP3     992      SWM4     OM       LPDW     -1.11466       0.00000          -1   0.00000       0.00000    
     31167 TIP3     992      SWM4     H1       HDW      0.557330       1.00800           0   0.00000       0.00000    
     31168 TIP3     992      SWM4     H2       HDW      0.557330       1.00800           0   0.00000       0.00000    
     31169 TIP3     993      SWM4     OH2      ODW       1.71640       15.5994           0 -0.978253       1.30000    
     31170 TIP3     993      SWM4     DOH2     DOH2     -1.71640      0.400000           0   0.00000       0.00000    
     31171 TIP3     993      SWM4     OM       LPDW     -1.11466       0.00000          -1   0.00000       0.00000    
     31172 TIP3     993      SWM4     H1       HDW      0.557330       1.00800           0   0.00000       0.00000    
     31173 TIP3     993      SWM4     H2       HDW      0.557330       1.00800           0   0.00000       0.00000    
     31174 TIP3     994      SWM4     OH2      ODW       1.71640       15.5994           0 -0.978253       1.30000    
     31175 TIP3     994      SWM4     DOH2     DOH2     -1.71640      0.400000           0   0.00000       0.00000    
     31176 TIP3     994      SWM4     OM       LPDW     -1.11466       0.00000          -1   0.00000       0.00000    
     31177 TIP3     994      SWM4     H1       HDW      0.557330       1.00800           0   0.00000       0.00000    
     31178 TIP3     994      SWM4     H2       HDW      0.557330       1.00800           0   0.00000       0.00000    
     31179 TIP3     995      SWM4     OH2      ODW       1.71640       15.5994           0 -0.978253       1.30000    
     31180 TIP3     995      SWM4     DOH2     DOH2     -1.71640      0.400000           0   0.00000       0.00000    
     31181 TIP3     995      SWM4     OM       LPDW     -1.11466       0.00000          -1   0.00000       0.00000    
     31182 TIP3     995      SWM4     H1       HDW      0.557330       1.00800           0   0.00000       0.00000    
     31183 TIP3     995      SWM4     H2       HDW      0.557330       1.00800           0   0.00000       0.00000    
     31184 TIP3     996      SWM4     OH2      ODW       1.71640       15.5994           0 -0.978253       1.30000    
     31185 TIP3     996      SWM4     DOH2     DOH2     -1.71640      0.400000           0   0.00000       0.00000    
     31186 TIP3     996      SWM4     OM       LPDW     -1.11466       0.00000          -1   0.00000       0.00000    
     31187 TIP3     996      SWM4     H1       HDW      0.557330       1.00800           0   0.00000       0.00000    
     31188 TIP3     996      SWM4     H2       HDW      0.557330       1.00800           0   0.00000       0.00000    
     31189 TIP3     997      SWM4     OH2      ODW       1.71640       15.5994           0 -0.978253       1.30000    
     31190 TIP3     997      SWM4     DOH2     DOH2     -1.71640      0.400000           0   0.00000       0.00000    
     31191 TIP3     997      SWM4     OM       LPDW     -1.11466       0.00000          -1   0.00000       0.00000    
     31192 TIP3     997      SWM4     H1       HDW      0.557330       1.00800           0   0.00000       0.00000    
     31193 TIP3     997      SWM4     H2       HDW      0.557330       1.00800           0   0.00000       0.00000    
     31194 TIP3     998      SWM4     OH2      ODW       1.71640       15.5994           0 -0.978253       1.30000    
     31195 TIP3     998      SWM4     DOH2     DOH2     -1.71640      0.400000           0   0.00000       0.00000    
     31196 TIP3     998      SWM4     OM       LPDW     -1.11466       0.00000          -1   0.00000       0.00000    
     31197 TIP3     998      SWM4     H1       HDW      0.557330       1.00800           0   0.00000       0.00000    
     31198 TIP3     998      SWM4     H2       HDW      0.557330       1.00800           0   0.00000       0.00000    
     31199 TIP3     999      SWM4     OH2      ODW       1.71640       15.5994           0 -0.978253       1.30000    
     31200 TIP3     999      SWM4     DOH2     DOH2     -1.71640      0.400000           0   0.00000       0.00000    
     31201 TIP3     999      SWM4     OM       LPDW     -1.11466       0.00000          -1   0.00000       0.00000    
     31202 TIP3     999      SWM4     H1       HDW      0.557330       1.00800           0   0.00000       0.00000    
     31203 TIP3     999      SWM4     H2       HDW      0.557330       1.00800           0   0.00000       0.00000    
     31204 TIP3     1000     SWM4     OH2      ODW       1.71640       15.5994           0 -0.978253       1.30000    
     31205 TIP3     1000     SWM4     DOH2     DOH2     -1.71640      0.400000           0   0.00000       0.00000    
     31206 TIP3     1000     SWM4     OM       LPDW     -1.11466       0.00000          -1   0.00000       0.00000    
     31207 TIP3     1000     SWM4     H1       HDW      0.557330       1.00800           0   0.00000       0.00000    
     31208 TIP3     1000     SWM4     H2       HDW      0.557330       1.00800           0   0.00000       0.00000    
     31209 TIP3     1001     SWM4     OH2      ODW       1.71640       15.5994           0 -0.978253       1.30000    
     31210 TIP3     1001     SWM4     DOH2     DOH2     -1.71640      0.400000           0   0.00000       0.00000    
     31211 TIP3     1001     SWM4     OM       LPDW     -1.11466       0.00000          -1   0.00000       0.00000    
     31212 TIP3     1001     SWM4     H1       HDW      0.557330       1.00800           0   0.00000       0.00000    
     31213 TIP3     1001     SWM4     H2       HDW      0.557330       1.00800           0   0.00000       0.00000    
     31214 TIP3     1002     SWM4     OH2      ODW       1.71640       15.5994           0 -0.978253       1.30000    
     31215 TIP3     1002     SWM4     DOH2     DOH2     -1.71640      0.400000           0   0.00000       0.00000    
     31216 TIP3     1002     SWM4     OM       LPDW     -1.11466       0.00000          -1   0.00000       0.00000    
     31217 TIP3     1002     SWM4     H1       HDW      0.557330       1.00800           0   0.00000       0.00000    
     31218 TIP3     1002     SWM4     H2       HDW      0.557330       1.00800           0   0.00000       0.00000    
     31219 TIP3     1003     SWM4     OH2      ODW       1.71640       15.5994           0 -0.978253       1.30000    
     31220 TIP3     1003     SWM4     DOH2     DOH2     -1.71640      0.400000           0   0.00000       0.00000    
     31221 TIP3     1003     SWM4     OM       LPDW     -1.11466       0.00000          -1   0.00000       0.00000    
     31222 TIP3     1003     SWM4     H1       HDW      0.557330       1.00800           0   0.00000       0.00000    
     31223 TIP3     1003     SWM4     H2       HDW      0.557330       1.00800           0   0.00000       0.00000    
     31224 TIP3     1004     SWM4     OH2      ODW       1.71640       15.5994           0 -0.978253       1.30000    
     31225 TIP3     1004     SWM4     DOH2     DOH2     -1.71640      0.400000           0   0.00000       0.00000    
     31226 TIP3     1004     SWM4     OM       LPDW     -1.11466       0.00000          -1   0.00000       0.00000    
     31227 TIP3     1004     SWM4     H1       HDW      0.557330       1.00800           0   0.00000       0.00000    
     31228 TIP3     1004     SWM4     H2       HDW      0.557330       1.00800           0   0.00000       0.00000    
     31229 TIP3     1005     SWM4     OH2      ODW       1.71640       15.5994           0 -0.978253       1.30000    
     31230 TIP3     1005     SWM4     DOH2     DOH2     -1.71640      0.400000           0   0.00000       0.00000    
     31231 TIP3     1005     SWM4     OM       LPDW     -1.11466       0.00000          -1   0.00000       0.00000    
     31232 TIP3     1005     SWM4     H1       HDW      0.557330       1.00800           0   0.00000       0.00000    
     31233 TIP3     1005     SWM4     H2       HDW      0.557330       1.00800           0   0.00000       0.00000    
     31234 TIP3     1006     SWM4     OH2      ODW       1.71640       15.5994           0 -0.978253       1.30000    
     31235 TIP3     1006     SWM4     DOH2     DOH2     -1.71640      0.400000           0   0.00000       0.00000    
     31236 TIP3     1006     SWM4     OM       LPDW     -1.11466       0.00000          -1   0.00000       0.00000    
     31237 TIP3     1006     SWM4     H1       HDW      0.557330       1.00800           0   0.00000       0.00000    
     31238 TIP3     1006     SWM4     H2       HDW      0.557330       1.00800           0   0.00000       0.00000    
     31239 TIP3     1007     SWM4     OH2      ODW       1.71640       15.5994           0 -0.978253       1.30000    
     31240 TIP3     1007     SWM4     DOH2     DOH2     -1.71640      0.400000           0   0.00000       0.00000    
     31241 TIP3     1007     SWM4     OM       LPDW     -1.11466       0.00000          -1   0.00000       0.00000    
     31242 TIP3     1007     SWM4     H1       HDW      0.557330       1.00800           0   0.00000       0.00000    
     31243 TIP3     1007     SWM4     H2       HDW      0.557330       1.00800           0   0.00000       0.00000    
     31244 TIP3     1008     SWM4     OH2      ODW       1.71640       15.5994           0 -0.978253       1.30000    
     31245 TIP3     1008     SWM4     DOH2     DOH2     -1.71640      0.400000           0   0.00000       0.00000    
     31246 TIP3     1008     SWM4     OM       LPDW     -1.11466       0.00000          -1   0.00000       0.00000    
     31247 TIP3     1008     SWM4     H1       HDW      0.557330       1.00800           0   0.00000       0.00000    
     31248 TIP3     1008     SWM4     H2       HDW      0.557330       1.00800           0   0.00000       0.00000    
     31249 TIP3     1009     SWM4     OH2      ODW       1.71640       15.5994           0 -0.978253       1.30000    
     31250 TIP3     1009     SWM4     DOH2     DOH2     -1.71640      0.400000           0   0.00000       0.00000    
     31251 TIP3     1009     SWM4     OM       LPDW     -1.11466       0.00000          -1   0.00000       0.00000    
     31252 TIP3     1009     SWM4     H1       HDW      0.557330       1.00800           0   0.00000       0.00000    
     31253 TIP3     1009     SWM4     H2       HDW      0.557330       1.00800           0   0.00000       0.00000    
     31254 TIP3     1010     SWM4     OH2      ODW       1.71640       15.5994           0 -0.978253       1.30000    
     31255 TIP3     1010     SWM4     DOH2     DOH2     -1.71640      0.400000           0   0.00000       0.00000    
     31256 TIP3     1010     SWM4     OM       LPDW     -1.11466       0.00000          -1   0.00000       0.00000    
     31257 TIP3     1010     SWM4     H1       HDW      0.557330       1.00800           0   0.00000       0.00000    
     31258 TIP3     1010     SWM4     H2       HDW      0.557330       1.00800           0   0.00000       0.00000    
     31259 TIP3     1011     SWM4     OH2      ODW       1.71640       15.5994           0 -0.978253       1.30000    
     31260 TIP3     1011     SWM4     DOH2     DOH2     -1.71640      0.400000           0   0.00000       0.00000    
     31261 TIP3     1011     SWM4     OM       LPDW     -1.11466       0.00000          -1   0.00000       0.00000    
     31262 TIP3     1011     SWM4     H1       HDW      0.557330       1.00800           0   0.00000       0.00000    
     31263 TIP3     1011     SWM4     H2       HDW      0.557330       1.00800           0   0.00000       0.00000    
     31264 TIP3     1012     SWM4     OH2      ODW       1.71640       15.5994           0 -0.978253       1.30000    
     31265 TIP3     1012     SWM4     DOH2     DOH2     -1.71640      0.400000           0   0.00000       0.00000    
     31266 TIP3     1012     SWM4     OM       LPDW     -1.11466       0.00000          -1   0.00000       0.00000    
     31267 TIP3     1012     SWM4     H1       HDW      0.557330       1.00800           0   0.00000       0.00000    
     31268 TIP3     1012     SWM4     H2       HDW      0.557330       1.00800           0   0.00000       0.00000    
     31269 TIP3     1013     SWM4     OH2      ODW       1.71640       15.5994           0 -0.978253       1.30000    
     31270 TIP3     1013     SWM4     DOH2     DOH2     -1.71640      0.400000           0   0.00000       0.00000    
     31271 TIP3     1013     SWM4     OM       LPDW     -1.11466       0.00000          -1   0.00000       0.00000    
     31272 TIP3     1013     SWM4     H1       HDW      0.557330       1.00800           0   0.00000       0.00000    
     31273 TIP3     1013     SWM4     H2       HDW      0.557330       1.00800           0   0.00000       0.00000    
     31274 TIP3     1014     SWM4     OH2      ODW       1.71640       15.5994           0 -0.978253       1.30000    
     31275 TIP3     1014     SWM4     DOH2     DOH2     -1.71640      0.400000           0   0.00000       0.00000    
     31276 TIP3     1014     SWM4     OM       LPDW     -1.11466       0.00000          -1   0.00000       0.00000    
     31277 TIP3     1014     SWM4     H1       HDW      0.557330       1.00800           0   0.00000       0.00000    
     31278 TIP3     1014     SWM4     H2       HDW      0.557330       1.00800           0   0.00000       0.00000    
     31279 TIP3     1015     SWM4     OH2      ODW       1.71640       15.5994           0 -0.978253       1.30000    
     31280 TIP3     1015     SWM4     DOH2     DOH2     -1.71640      0.400000           0   0.00000       0.00000    
     31281 TIP3     1015     SWM4     OM       LPDW     -1.11466       0.00000          -1   0.00000       0.00000    
     31282 TIP3     1015     SWM4     H1       HDW      0.557330       1.00800           0   0.00000       0.00000    
     31283 TIP3     1015     SWM4     H2       HDW      0.557330       1.00800           0   0.00000       0.00000    
     31284 TIP3     1016     SWM4     OH2      ODW       1.71640       15.5994           0 -0.978253       1.30000    
     31285 TIP3     1016     SWM4     DOH2     DOH2     -1.71640      0.400000           0   0.00000       0.00000    
     31286 TIP3     1016     SWM4     OM       LPDW     -1.11466       0.00000          -1   0.00000       0.00000    
     31287 TIP3     1016     SWM4     H1       HDW      0.557330       1.00800           0   0.00000       0.00000    
     31288 TIP3     1016     SWM4     H2       HDW      0.557330       1.00800           0   0.00000       0.00000    
     31289 TIP3     1017     SWM4     OH2      ODW       1.71640       15.5994           0 -0.978253       1.30000    
     31290 TIP3     1017     SWM4     DOH2     DOH2     -1.71640      0.400000           0   0.00000       0.00000    
     31291 TIP3     1017     SWM4     OM       LPDW     -1.11466       0.00000          -1   0.00000       0.00000    
     31292 TIP3     1017     SWM4     H1       HDW      0.557330       1.00800           0   0.00000       0.00000    
     31293 TIP3     1017     SWM4     H2       HDW      0.557330       1.00800           0   0.00000       0.00000    
     31294 TIP3     1018     SWM4     OH2      ODW       1.71640       15.5994           0 -0.978253       1.30000    
     31295 TIP3     1018     SWM4     DOH2     DOH2     -1.71640      0.400000           0   0.00000       0.00000    
     31296 TIP3     1018     SWM4     OM       LPDW     -1.11466       0.00000          -1   0.00000       0.00000    
     31297 TIP3     1018     SWM4     H1       HDW      0.557330       1.00800           0   0.00000       0.00000    
     31298 TIP3     1018     SWM4     H2       HDW      0.557330       1.00800           0   0.00000       0.00000    
     31299 TIP3     1019     SWM4     OH2      ODW       1.71640       15.5994           0 -0.978253       1.30000    
     31300 TIP3     1019     SWM4     DOH2     DOH2     -1.71640      0.400000           0   0.00000       0.00000    
     31301 TIP3     1019     SWM4     OM       LPDW     -1.11466       0.00000          -1   0.00000       0.00000    
     31302 TIP3     1019     SWM4     H1       HDW      0.557330       1.00800           0   0.00000       0.00000    
     31303 TIP3     1019     SWM4     H2       HDW      0.557330       1.00800           0   0.00000       0.00000    
     31304 TIP3     1020     SWM4     OH2      ODW       1.71640       15.5994           0 -0.978253       1.30000    
     31305 TIP3     1020     SWM4     DOH2     DOH2     -1.71640      0.400000           0   0.00000       0.00000    
     31306 TIP3     1020     SWM4     OM       LPDW     -1.11466       0.00000          -1   0.00000       0.00000    
     31307 TIP3     1020     SWM4     H1       HDW      0.557330       1.00800           0   0.00000       0.00000    
     31308 TIP3     1020     SWM4     H2       HDW      0.557330       1.00800           0   0.00000       0.00000    
     31309 TIP3     1021     SWM4     OH2      ODW       1.71640       15.5994           0 -0.978253       1.30000    
     31310 TIP3     1021     SWM4     DOH2     DOH2     -1.71640      0.400000           0   0.00000       0.00000    
     31311 TIP3     1021     SWM4     OM       LPDW     -1.11466       0.00000          -1   0.00000       0.00000    
     31312 TIP3     1021     SWM4     H1       HDW      0.557330       1.00800           0   0.00000       0.00000    
     31313 TIP3     1021     SWM4     H2       HDW      0.557330       1.00800           0   0.00000       0.00000    
     31314 TIP3     1022     SWM4     OH2      ODW       1.71640       15.5994           0 -0.978253       1.30000    
     31315 TIP3     1022     SWM4     DOH2     DOH2     -1.71640      0.400000           0   0.00000       0.00000    
     31316 TIP3     1022     SWM4     OM       LPDW     -1.11466       0.00000          -1   0.00000       0.00000    
     31317 TIP3     1022     SWM4     H1       HDW      0.557330       1.00800           0   0.00000       0.00000    
     31318 TIP3     1022     SWM4     H2       HDW      0.557330       1.00800           0   0.00000       0.00000    
     31319 TIP3     1023     SWM4     OH2      ODW       1.71640       15.5994           0 -0.978253       1.30000    
     31320 TIP3     1023     SWM4     DOH2     DOH2     -1.71640      0.400000           0   0.00000       0.00000    
     31321 TIP3     1023     SWM4     OM       LPDW     -1.11466       0.00000          -1   0.00000       0.00000    
     31322 TIP3     1023     SWM4     H1       HDW      0.557330       1.00800           0   0.00000       0.00000    
     31323 TIP3     1023     SWM4     H2       HDW      0.557330       1.00800           0   0.00000       0.00000    
     31324 TIP3     1024     SWM4     OH2      ODW       1.71640       15.5994           0 -0.978253       1.30000    
     31325 TIP3     1024     SWM4     DOH2     DOH2     -1.71640      0.400000           0   0.00000       0.00000    
     31326 TIP3     1024     SWM4     OM       LPDW     -1.11466       0.00000          -1   0.00000       0.00000    
     31327 TIP3     1024     SWM4     H1       HDW      0.557330       1.00800           0   0.00000       0.00000    
     31328 TIP3     1024     SWM4     H2       HDW      0.557330       1.00800           0   0.00000       0.00000    
     31329 TIP3     1025     SWM4     OH2      ODW       1.71640       15.5994           0 -0.978253       1.30000    
     31330 TIP3     1025     SWM4     DOH2     DOH2     -1.71640      0.400000           0   0.00000       0.00000    
     31331 TIP3     1025     SWM4     OM       LPDW     -1.11466       0.00000          -1   0.00000       0.00000    
     31332 TIP3     1025     SWM4     H1       HDW      0.557330       1.00800           0   0.00000       0.00000    
     31333 TIP3     1025     SWM4     H2       HDW      0.557330       1.00800           0   0.00000       0.00000    
     31334 TIP3     1026     SWM4     OH2      ODW       1.71640       15.5994           0 -0.978253       1.30000    
     31335 TIP3     1026     SWM4     DOH2     DOH2     -1.71640      0.400000           0   0.00000       0.00000    
     31336 TIP3     1026     SWM4     OM       LPDW     -1.11466       0.00000          -1   0.00000       0.00000    
     31337 TIP3     1026     SWM4     H1       HDW      0.557330       1.00800           0   0.00000       0.00000    
     31338 TIP3     1026     SWM4     H2       HDW      0.557330       1.00800           0   0.00000       0.00000    
     31339 TIP3     1027     SWM4     OH2      ODW       1.71640       15.5994           0 -0.978253       1.30000    
     31340 TIP3     1027     SWM4     DOH2     DOH2     -1.71640      0.400000           0   0.00000       0.00000    
     31341 TIP3     1027     SWM4     OM       LPDW     -1.11466       0.00000          -1   0.00000       0.00000    
     31342 TIP3     1027     SWM4     H1       HDW      0.557330       1.00800           0   0.00000       0.00000    
     31343 TIP3     1027     SWM4     H2       HDW      0.557330       1.00800           0   0.00000       0.00000    
     31344 TIP3     1028     SWM4     OH2      ODW       1.71640       15.5994           0 -0.978253       1.30000    
     31345 TIP3     1028     SWM4     DOH2     DOH2     -1.71640      0.400000           0   0.00000       0.00000    
     31346 TIP3     1028     SWM4     OM       LPDW     -1.11466       0.00000          -1   0.00000       0.00000    
     31347 TIP3     1028     SWM4     H1       HDW      0.557330       1.00800           0   0.00000       0.00000    
     31348 TIP3     1028     SWM4     H2       HDW      0.557330       1.00800           0   0.00000       0.00000    
     31349 TIP3     1029     SWM4     OH2      ODW       1.71640       15.5994           0 -0.978253       1.30000    
     31350 TIP3     1029     SWM4     DOH2     DOH2     -1.71640      0.400000           0   0.00000       0.00000    
     31351 TIP3     1029     SWM4     OM       LPDW     -1.11466       0.00000          -1   0.00000       0.00000    
     31352 TIP3     1029     SWM4     H1       HDW      0.557330       1.00800           0   0.00000       0.00000    
     31353 TIP3     1029     SWM4     H2       HDW      0.557330       1.00800           0   0.00000       0.00000    
     31354 TIP3     1030     SWM4     OH2      ODW       1.71640       15.5994           0 -0.978253       1.30000    
     31355 TIP3     1030     SWM4     DOH2     DOH2     -1.71640      0.400000           0   0.00000       0.00000    
     31356 TIP3     1030     SWM4     OM       LPDW     -1.11466       0.00000          -1   0.00000       0.00000    
     31357 TIP3     1030     SWM4     H1       HDW      0.557330       1.00800           0   0.00000       0.00000    
     31358 TIP3     1030     SWM4     H2       HDW      0.557330       1.00800           0   0.00000       0.00000    
     31359 TIP3     1031     SWM4     OH2      ODW       1.71640       15.5994           0 -0.978253       1.30000    
     31360 TIP3     1031     SWM4     DOH2     DOH2     -1.71640      0.400000           0   0.00000       0.00000    
     31361 TIP3     1031     SWM4     OM       LPDW     -1.11466       0.00000          -1   0.00000       0.00000    
     31362 TIP3     1031     SWM4     H1       HDW      0.557330       1.00800           0   0.00000       0.00000    
     31363 TIP3     1031     SWM4     H2       HDW      0.557330       1.00800           0   0.00000       0.00000    
     31364 TIP3     1032     SWM4     OH2      ODW       1.71640       15.5994           0 -0.978253       1.30000    
     31365 TIP3     1032     SWM4     DOH2     DOH2     -1.71640      0.400000           0   0.00000       0.00000    
     31366 TIP3     1032     SWM4     OM       LPDW     -1.11466       0.00000          -1   0.00000       0.00000    
     31367 TIP3     1032     SWM4     H1       HDW      0.557330       1.00800           0   0.00000       0.00000    
     31368 TIP3     1032     SWM4     H2       HDW      0.557330       1.00800           0   0.00000       0.00000    
     31369 TIP3     1033     SWM4     OH2      ODW       1.71640       15.5994           0 -0.978253       1.30000    
     31370 TIP3     1033     SWM4     DOH2     DOH2     -1.71640      0.400000           0   0.00000       0.00000    
     31371 TIP3     1033     SWM4     OM       LPDW     -1.11466       0.00000          -1   0.00000       0.00000    
     31372 TIP3     1033     SWM4     H1       HDW      0.557330       1.00800           0   0.00000       0.00000    
     31373 TIP3     1033     SWM4     H2       HDW      0.557330       1.00800           0   0.00000       0.00000    
     31374 TIP3     1034     SWM4     OH2      ODW       1.71640       15.5994           0 -0.978253       1.30000    
     31375 TIP3     1034     SWM4     DOH2     DOH2     -1.71640      0.400000           0   0.00000       0.00000    
     31376 TIP3     1034     SWM4     OM       LPDW     -1.11466       0.00000          -1   0.00000       0.00000    
     31377 TIP3     1034     SWM4     H1       HDW      0.557330       1.00800           0   0.00000       0.00000    
     31378 TIP3     1034     SWM4     H2       HDW      0.557330       1.00800           0   0.00000       0.00000    
     31379 TIP3     1035     SWM4     OH2      ODW       1.71640       15.5994           0 -0.978253       1.30000    
     31380 TIP3     1035     SWM4     DOH2     DOH2     -1.71640      0.400000           0   0.00000       0.00000    
     31381 TIP3     1035     SWM4     OM       LPDW     -1.11466       0.00000          -1   0.00000       0.00000    
     31382 TIP3     1035     SWM4     H1       HDW      0.557330       1.00800           0   0.00000       0.00000    
     31383 TIP3     1035     SWM4     H2       HDW      0.557330       1.00800           0   0.00000       0.00000    
     31384 TIP3     1036     SWM4     OH2      ODW       1.71640       15.5994           0 -0.978253       1.30000    
     31385 TIP3     1036     SWM4     DOH2     DOH2     -1.71640      0.400000           0   0.00000       0.00000    
     31386 TIP3     1036     SWM4     OM       LPDW     -1.11466       0.00000          -1   0.00000       0.00000    
     31387 TIP3     1036     SWM4     H1       HDW      0.557330       1.00800           0   0.00000       0.00000    
     31388 TIP3     1036     SWM4     H2       HDW      0.557330       1.00800           0   0.00000       0.00000    
     31389 TIP3     1037     SWM4     OH2      ODW       1.71640       15.5994           0 -0.978253       1.30000    
     31390 TIP3     1037     SWM4     DOH2     DOH2     -1.71640      0.400000           0   0.00000       0.00000    
     31391 TIP3     1037     SWM4     OM       LPDW     -1.11466       0.00000          -1   0.00000       0.00000    
     31392 TIP3     1037     SWM4     H1       HDW      0.557330       1.00800           0   0.00000       0.00000    
     31393 TIP3     1037     SWM4     H2       HDW      0.557330       1.00800           0   0.00000       0.00000    
     31394 TIP3     1038     SWM4     OH2      ODW       1.71640       15.5994           0 -0.978253       1.30000    
     31395 TIP3     1038     SWM4     DOH2     DOH2     -1.71640      0.400000           0   0.00000       0.00000    
     31396 TIP3     1038     SWM4     OM       LPDW     -1.11466       0.00000          -1   0.00000       0.00000    
     31397 TIP3     1038     SWM4     H1       HDW      0.557330       1.00800           0   0.00000       0.00000    
     31398 TIP3     1038     SWM4     H2       HDW      0.557330       1.00800           0   0.00000       0.00000    
     31399 TIP3     1039     SWM4     OH2      ODW       1.71640       15.5994           0 -0.978253       1.30000    
     31400 TIP3     1039     SWM4     DOH2     DOH2     -1.71640      0.400000           0   0.00000       0.00000    
     31401 TIP3     1039     SWM4     OM       LPDW     -1.11466       0.00000          -1   0.00000       0.00000    
     31402 TIP3     1039     SWM4     H1       HDW      0.557330       1.00800           0   0.00000       0.00000    
     31403 TIP3     1039     SWM4     H2       HDW      0.557330       1.00800           0   0.00000       0.00000    
     31404 TIP3     1040     SWM4     OH2      ODW       1.71640       15.5994           0 -0.978253       1.30000    
     31405 TIP3     1040     SWM4     DOH2     DOH2     -1.71640      0.400000           0   0.00000       0.00000    
     31406 TIP3     1040     SWM4     OM       LPDW     -1.11466       0.00000          -1   0.00000       0.00000    
     31407 TIP3     1040     SWM4     H1       HDW      0.557330       1.00800           0   0.00000       0.00000    
     31408 TIP3     1040     SWM4     H2       HDW      0.557330       1.00800           0   0.00000       0.00000    
     31409 TIP3     1041     SWM4     OH2      ODW       1.71640       15.5994           0 -0.978253       1.30000    
     31410 TIP3     1041     SWM4     DOH2     DOH2     -1.71640      0.400000           0   0.00000       0.00000    
     31411 TIP3     1041     SWM4     OM       LPDW     -1.11466       0.00000          -1   0.00000       0.00000    
     31412 TIP3     1041     SWM4     H1       HDW      0.557330       1.00800           0   0.00000       0.00000    
     31413 TIP3     1041     SWM4     H2       HDW      0.557330       1.00800           0   0.00000       0.00000    
     31414 TIP3     1042     SWM4     OH2      ODW       1.71640       15.5994           0 -0.978253       1.30000    
     31415 TIP3     1042     SWM4     DOH2     DOH2     -1.71640      0.400000           0   0.00000       0.00000    
     31416 TIP3     1042     SWM4     OM       LPDW     -1.11466       0.00000          -1   0.00000       0.00000    
     31417 TIP3     1042     SWM4     H1       HDW      0.557330       1.00800           0   0.00000       0.00000    
     31418 TIP3     1042     SWM4     H2       HDW      0.557330       1.00800           0   0.00000       0.00000    
     31419 TIP3     1043     SWM4     OH2      ODW       1.71640       15.5994           0 -0.978253       1.30000    
     31420 TIP3     1043     SWM4     DOH2     DOH2     -1.71640      0.400000           0   0.00000       0.00000    
     31421 TIP3     1043     SWM4     OM       LPDW     -1.11466       0.00000          -1   0.00000       0.00000    
     31422 TIP3     1043     SWM4     H1       HDW      0.557330       1.00800           0   0.00000       0.00000    
     31423 TIP3     1043     SWM4     H2       HDW      0.557330       1.00800           0   0.00000       0.00000    
     31424 TIP3     1044     SWM4     OH2      ODW       1.71640       15.5994           0 -0.978253       1.30000    
     31425 TIP3     1044     SWM4     DOH2     DOH2     -1.71640      0.400000           0   0.00000       0.00000    
     31426 TIP3     1044     SWM4     OM       LPDW     -1.11466       0.00000          -1   0.00000       0.00000    
     31427 TIP3     1044     SWM4     H1       HDW      0.557330       1.00800           0   0.00000       0.00000    
     31428 TIP3     1044     SWM4     H2       HDW      0.557330       1.00800           0   0.00000       0.00000    
     31429 TIP3     1045     SWM4     OH2      ODW       1.71640       15.5994           0 -0.978253       1.30000    
     31430 TIP3     1045     SWM4     DOH2     DOH2     -1.71640      0.400000           0   0.00000       0.00000    
     31431 TIP3     1045     SWM4     OM       LPDW     -1.11466       0.00000          -1   0.00000       0.00000    
     31432 TIP3     1045     SWM4     H1       HDW      0.557330       1.00800           0   0.00000       0.00000    
     31433 TIP3     1045     SWM4     H2       HDW      0.557330       1.00800           0   0.00000       0.00000    
     31434 TIP3     1046     SWM4     OH2      ODW       1.71640       15.5994           0 -0.978253       1.30000    
     31435 TIP3     1046     SWM4     DOH2     DOH2     -1.71640      0.400000           0   0.00000       0.00000    
     31436 TIP3     1046     SWM4     OM       LPDW     -1.11466       0.00000          -1   0.00000       0.00000    
     31437 TIP3     1046     SWM4     H1       HDW      0.557330       1.00800           0   0.00000       0.00000    
     31438 TIP3     1046     SWM4     H2       HDW      0.557330       1.00800           0   0.00000       0.00000    
     31439 TIP3     1047     SWM4     OH2      ODW       1.71640       15.5994           0 -0.978253       1.30000    
     31440 TIP3     1047     SWM4     DOH2     DOH2     -1.71640      0.400000           0   0.00000       0.00000    
     31441 TIP3     1047     SWM4     OM       LPDW     -1.11466       0.00000          -1   0.00000       0.00000    
     31442 TIP3     1047     SWM4     H1       HDW      0.557330       1.00800           0   0.00000       0.00000    
     31443 TIP3     1047     SWM4     H2       HDW      0.557330       1.00800           0   0.00000       0.00000    
     31444 TIP3     1048     SWM4     OH2      ODW       1.71640       15.5994           0 -0.978253       1.30000    
     31445 TIP3     1048     SWM4     DOH2     DOH2     -1.71640      0.400000           0   0.00000       0.00000    
     31446 TIP3     1048     SWM4     OM       LPDW     -1.11466       0.00000          -1   0.00000       0.00000    
     31447 TIP3     1048     SWM4     H1       HDW      0.557330       1.00800           0   0.00000       0.00000    
     31448 TIP3     1048     SWM4     H2       HDW      0.557330       1.00800           0   0.00000       0.00000    
     31449 TIP3     1049     SWM4     OH2      ODW       1.71640       15.5994           0 -0.978253       1.30000    
     31450 TIP3     1049     SWM4     DOH2     DOH2     -1.71640      0.400000           0   0.00000       0.00000    
     31451 TIP3     1049     SWM4     OM       LPDW     -1.11466       0.00000          -1   0.00000       0.00000    
     31452 TIP3     1049     SWM4     H1       HDW      0.557330       1.00800           0   0.00000       0.00000    
     31453 TIP3     1049     SWM4     H2       HDW      0.557330       1.00800           0   0.00000       0.00000    
     31454 TIP3     1050     SWM4     OH2      ODW       1.71640       15.5994           0 -0.978253       1.30000    
     31455 TIP3     1050     SWM4     DOH2     DOH2     -1.71640      0.400000           0   0.00000       0.00000    
     31456 TIP3     1050     SWM4     OM       LPDW     -1.11466       0.00000          -1   0.00000       0.00000    
     31457 TIP3     1050     SWM4     H1       HDW      0.557330       1.00800           0   0.00000       0.00000    
     31458 TIP3     1050     SWM4     H2       HDW      0.557330       1.00800           0   0.00000       0.00000    
     31459 TIP3     1051     SWM4     OH2      ODW       1.71640       15.5994           0 -0.978253       1.30000    
     31460 TIP3     1051     SWM4     DOH2     DOH2     -1.71640      0.400000           0   0.00000       0.00000    
     31461 TIP3     1051     SWM4     OM       LPDW     -1.11466       0.00000          -1   0.00000       0.00000    
     31462 TIP3     1051     SWM4     H1       HDW      0.557330       1.00800           0   0.00000       0.00000    
     31463 TIP3     1051     SWM4     H2       HDW      0.557330       1.00800           0   0.00000       0.00000    
     31464 TIP3     1052     SWM4     OH2      ODW       1.71640       15.5994           0 -0.978253       1.30000    
     31465 TIP3     1052     SWM4     DOH2     DOH2     -1.71640      0.400000           0   0.00000       0.00000    
     31466 TIP3     1052     SWM4     OM       LPDW     -1.11466       0.00000          -1   0.00000       0.00000    
     31467 TIP3     1052     SWM4     H1       HDW      0.557330       1.00800           0   0.00000       0.00000    
     31468 TIP3     1052     SWM4     H2       HDW      0.557330       1.00800           0   0.00000       0.00000    
     31469 TIP3     1053     SWM4     OH2      ODW       1.71640       15.5994           0 -0.978253       1.30000    
     31470 TIP3     1053     SWM4     DOH2     DOH2     -1.71640      0.400000           0   0.00000       0.00000    
     31471 TIP3     1053     SWM4     OM       LPDW     -1.11466       0.00000          -1   0.00000       0.00000    
     31472 TIP3     1053     SWM4     H1       HDW      0.557330       1.00800           0   0.00000       0.00000    
     31473 TIP3     1053     SWM4     H2       HDW      0.557330       1.00800           0   0.00000       0.00000    
     31474 TIP3     1054     SWM4     OH2      ODW       1.71640       15.5994           0 -0.978253       1.30000    
     31475 TIP3     1054     SWM4     DOH2     DOH2     -1.71640      0.400000           0   0.00000       0.00000    
     31476 TIP3     1054     SWM4     OM       LPDW     -1.11466       0.00000          -1   0.00000       0.00000    
     31477 TIP3     1054     SWM4     H1       HDW      0.557330       1.00800           0   0.00000       0.00000    
     31478 TIP3     1054     SWM4     H2       HDW      0.557330       1.00800           0   0.00000       0.00000    
     31479 TIP3     1055     SWM4     OH2      ODW       1.71640       15.5994           0 -0.978253       1.30000    
     31480 TIP3     1055     SWM4     DOH2     DOH2     -1.71640      0.400000           0   0.00000       0.00000    
     31481 TIP3     1055     SWM4     OM       LPDW     -1.11466       0.00000          -1   0.00000       0.00000    
     31482 TIP3     1055     SWM4     H1       HDW      0.557330       1.00800           0   0.00000       0.00000    
     31483 TIP3     1055     SWM4     H2       HDW      0.557330       1.00800           0   0.00000       0.00000    
     31484 TIP3     1056     SWM4     OH2      ODW       1.71640       15.5994           0 -0.978253       1.30000    
     31485 TIP3     1056     SWM4     DOH2     DOH2     -1.71640      0.400000           0   0.00000       0.00000    
     31486 TIP3     1056     SWM4     OM       LPDW     -1.11466       0.00000          -1   0.00000       0.00000    
     31487 TIP3     1056     SWM4     H1       HDW      0.557330       1.00800           0   0.00000       0.00000    
     31488 TIP3     1056     SWM4     H2       HDW      0.557330       1.00800           0   0.00000       0.00000    
     31489 TIP3     1057     SWM4     OH2      ODW       1.71640       15.5994           0 -0.978253       1.30000    
     31490 TIP3     1057     SWM4     DOH2     DOH2     -1.71640      0.400000           0   0.00000       0.00000    
     31491 TIP3     1057     SWM4     OM       LPDW     -1.11466       0.00000          -1   0.00000       0.00000    
     31492 TIP3     1057     SWM4     H1       HDW      0.557330       1.00800           0   0.00000       0.00000    
     31493 TIP3     1057     SWM4     H2       HDW      0.557330       1.00800           0   0.00000       0.00000    
     31494 TIP3     1058     SWM4     OH2      ODW       1.71640       15.5994           0 -0.978253       1.30000    
     31495 TIP3     1058     SWM4     DOH2     DOH2     -1.71640      0.400000           0   0.00000       0.00000    
     31496 TIP3     1058     SWM4     OM       LPDW     -1.11466       0.00000          -1   0.00000       0.00000    
     31497 TIP3     1058     SWM4     H1       HDW      0.557330       1.00800           0   0.00000       0.00000    
     31498 TIP3     1058     SWM4     H2       HDW      0.557330       1.00800           0   0.00000       0.00000    
     31499 TIP3     1059     SWM4     OH2      ODW       1.71640       15.5994           0 -0.978253       1.30000    
     31500 TIP3     1059     SWM4     DOH2     DOH2     -1.71640      0.400000           0   0.00000       0.00000    
     31501 TIP3     1059     SWM4     OM       LPDW     -1.11466       0.00000          -1   0.00000       0.00000    
     31502 TIP3     1059     SWM4     H1       HDW      0.557330       1.00800           0   0.00000       0.00000    
     31503 TIP3     1059     SWM4     H2       HDW      0.557330       1.00800           0   0.00000       0.00000    
     31504 TIP3     1060     SWM4     OH2      ODW       1.71640       15.5994           0 -0.978253       1.30000    
     31505 TIP3     1060     SWM4     DOH2     DOH2     -1.71640      0.400000           0   0.00000       0.00000    
     31506 TIP3     1060     SWM4     OM       LPDW     -1.11466       0.00000          -1   0.00000       0.00000    
     31507 TIP3     1060     SWM4     H1       HDW      0.557330       1.00800           0   0.00000       0.00000    
     31508 TIP3     1060     SWM4     H2       HDW      0.557330       1.00800           0   0.00000       0.00000    
     31509 TIP3     1061     SWM4     OH2      ODW       1.71640       15.5994           0 -0.978253       1.30000    
     31510 TIP3     1061     SWM4     DOH2     DOH2     -1.71640      0.400000           0   0.00000       0.00000    
     31511 TIP3     1061     SWM4     OM       LPDW     -1.11466       0.00000          -1   0.00000       0.00000    
     31512 TIP3     1061     SWM4     H1       HDW      0.557330       1.00800           0   0.00000       0.00000    
     31513 TIP3     1061     SWM4     H2       HDW      0.557330       1.00800           0   0.00000       0.00000    
     31514 TIP3     1062     SWM4     OH2      ODW       1.71640       15.5994           0 -0.978253       1.30000    
     31515 TIP3     1062     SWM4     DOH2     DOH2     -1.71640      0.400000           0   0.00000       0.00000    
     31516 TIP3     1062     SWM4     OM       LPDW     -1.11466       0.00000          -1   0.00000       0.00000    
     31517 TIP3     1062     SWM4     H1       HDW      0.557330       1.00800           0   0.00000       0.00000    
     31518 TIP3     1062     SWM4     H2       HDW      0.557330       1.00800           0   0.00000       0.00000    
     31519 TIP3     1063     SWM4     OH2      ODW       1.71640       15.5994           0 -0.978253       1.30000    
     31520 TIP3     1063     SWM4     DOH2     DOH2     -1.71640      0.400000           0   0.00000       0.00000    
     31521 TIP3     1063     SWM4     OM       LPDW     -1.11466       0.00000          -1   0.00000       0.00000    
     31522 TIP3     1063     SWM4     H1       HDW      0.557330       1.00800           0   0.00000       0.00000    
     31523 TIP3     1063     SWM4     H2       HDW      0.557330       1.00800           0   0.00000       0.00000    
     31524 TIP3     1064     SWM4     OH2      ODW       1.71640       15.5994           0 -0.978253       1.30000    
     31525 TIP3     1064     SWM4     DOH2     DOH2     -1.71640      0.400000           0   0.00000       0.00000    
     31526 TIP3     1064     SWM4     OM       LPDW     -1.11466       0.00000          -1   0.00000       0.00000    
     31527 TIP3     1064     SWM4     H1       HDW      0.557330       1.00800           0   0.00000       0.00000    
     31528 TIP3     1064     SWM4     H2       HDW      0.557330       1.00800           0   0.00000       0.00000    
     31529 TIP3     1065     SWM4     OH2      ODW       1.71640       15.5994           0 -0.978253       1.30000    
     31530 TIP3     1065     SWM4     DOH2     DOH2     -1.71640      0.400000           0   0.00000       0.00000    
     31531 TIP3     1065     SWM4     OM       LPDW     -1.11466       0.00000          -1   0.00000       0.00000    
     31532 TIP3     1065     SWM4     H1       HDW      0.557330       1.00800           0   0.00000       0.00000    
     31533 TIP3     1065     SWM4     H2       HDW      0.557330       1.00800           0   0.00000       0.00000    
     31534 TIP3     1066     SWM4     OH2      ODW       1.71640       15.5994           0 -0.978253       1.30000    
     31535 TIP3     1066     SWM4     DOH2     DOH2     -1.71640      0.400000           0   0.00000       0.00000    
     31536 TIP3     1066     SWM4     OM       LPDW     -1.11466       0.00000          -1   0.00000       0.00000    
     31537 TIP3     1066     SWM4     H1       HDW      0.557330       1.00800           0   0.00000       0.00000    
     31538 TIP3     1066     SWM4     H2       HDW      0.557330       1.00800           0   0.00000       0.00000    
     31539 TIP3     1067     SWM4     OH2      ODW       1.71640       15.5994           0 -0.978253       1.30000    
     31540 TIP3     1067     SWM4     DOH2     DOH2     -1.71640      0.400000           0   0.00000       0.00000    
     31541 TIP3     1067     SWM4     OM       LPDW     -1.11466       0.00000          -1   0.00000       0.00000    
     31542 TIP3     1067     SWM4     H1       HDW      0.557330       1.00800           0   0.00000       0.00000    
     31543 TIP3     1067     SWM4     H2       HDW      0.557330       1.00800           0   0.00000       0.00000    
     31544 TIP3     1068     SWM4     OH2      ODW       1.71640       15.5994           0 -0.978253       1.30000    
     31545 TIP3     1068     SWM4     DOH2     DOH2     -1.71640      0.400000           0   0.00000       0.00000    
     31546 TIP3     1068     SWM4     OM       LPDW     -1.11466       0.00000          -1   0.00000       0.00000    
     31547 TIP3     1068     SWM4     H1       HDW      0.557330       1.00800           0   0.00000       0.00000    
     31548 TIP3     1068     SWM4     H2       HDW      0.557330       1.00800           0   0.00000       0.00000    
     31549 TIP3     1069     SWM4     OH2      ODW       1.71640       15.5994           0 -0.978253       1.30000    
     31550 TIP3     1069     SWM4     DOH2     DOH2     -1.71640      0.400000           0   0.00000       0.00000    
     31551 TIP3     1069     SWM4     OM       LPDW     -1.11466       0.00000          -1   0.00000       0.00000    
     31552 TIP3     1069     SWM4     H1       HDW      0.557330       1.00800           0   0.00000       0.00000    
     31553 TIP3     1069     SWM4     H2       HDW      0.557330       1.00800           0   0.00000       0.00000    
     31554 TIP3     1070     SWM4     OH2      ODW       1.71640       15.5994           0 -0.978253       1.30000    
     31555 TIP3     1070     SWM4     DOH2     DOH2     -1.71640      0.400000           0   0.00000       0.00000    
     31556 TIP3     1070     SWM4     OM       LPDW     -1.11466       0.00000          -1   0.00000       0.00000    
     31557 TIP3     1070     SWM4     H1       HDW      0.557330       1.00800           0   0.00000       0.00000    
     31558 TIP3     1070     SWM4     H2       HDW      0.557330       1.00800           0   0.00000       0.00000    
     31559 TIP3     1071     SWM4     OH2      ODW       1.71640       15.5994           0 -0.978253       1.30000    
     31560 TIP3     1071     SWM4     DOH2     DOH2     -1.71640      0.400000           0   0.00000       0.00000    
     31561 TIP3     1071     SWM4     OM       LPDW     -1.11466       0.00000          -1   0.00000       0.00000    
     31562 TIP3     1071     SWM4     H1       HDW      0.557330       1.00800           0   0.00000       0.00000    
     31563 TIP3     1071     SWM4     H2       HDW      0.557330       1.00800           0   0.00000       0.00000    
     31564 TIP3     1072     SWM4     OH2      ODW       1.71640       15.5994           0 -0.978253       1.30000    
     31565 TIP3     1072     SWM4     DOH2     DOH2     -1.71640      0.400000           0   0.00000       0.00000    
     31566 TIP3     1072     SWM4     OM       LPDW     -1.11466       0.00000          -1   0.00000       0.00000    
     31567 TIP3     1072     SWM4     H1       HDW      0.557330       1.00800           0   0.00000       0.00000    
     31568 TIP3     1072     SWM4     H2       HDW      0.557330       1.00800           0   0.00000       0.00000    
     31569 TIP3     1073     SWM4     OH2      ODW       1.71640       15.5994           0 -0.978253       1.30000    
     31570 TIP3     1073     SWM4     DOH2     DOH2     -1.71640      0.400000           0   0.00000       0.00000    
     31571 TIP3     1073     SWM4     OM       LPDW     -1.11466       0.00000          -1   0.00000       0.00000    
     31572 TIP3     1073     SWM4     H1       HDW      0.557330       1.00800           0   0.00000       0.00000    
     31573 TIP3     1073     SWM4     H2       HDW      0.557330       1.00800           0   0.00000       0.00000    
     31574 TIP3     1074     SWM4     OH2      ODW       1.71640       15.5994           0 -0.978253       1.30000    
     31575 TIP3     1074     SWM4     DOH2     DOH2     -1.71640      0.400000           0   0.00000       0.00000    
     31576 TIP3     1074     SWM4     OM       LPDW     -1.11466       0.00000          -1   0.00000       0.00000    
     31577 TIP3     1074     SWM4     H1       HDW      0.557330       1.00800           0   0.00000       0.00000    
     31578 TIP3     1074     SWM4     H2       HDW      0.557330       1.00800           0   0.00000       0.00000    
     31579 TIP3     1075     SWM4     OH2      ODW       1.71640       15.5994           0 -0.978253       1.30000    
     31580 TIP3     1075     SWM4     DOH2     DOH2     -1.71640      0.400000           0   0.00000       0.00000    
     31581 TIP3     1075     SWM4     OM       LPDW     -1.11466       0.00000          -1   0.00000       0.00000    
     31582 TIP3     1075     SWM4     H1       HDW      0.557330       1.00800           0   0.00000       0.00000    
     31583 TIP3     1075     SWM4     H2       HDW      0.557330       1.00800           0   0.00000       0.00000    
     31584 TIP3     1076     SWM4     OH2      ODW       1.71640       15.5994           0 -0.978253       1.30000    
     31585 TIP3     1076     SWM4     DOH2     DOH2     -1.71640      0.400000           0   0.00000       0.00000    
     31586 TIP3     1076     SWM4     OM       LPDW     -1.11466       0.00000          -1   0.00000       0.00000    
     31587 TIP3     1076     SWM4     H1       HDW      0.557330       1.00800           0   0.00000       0.00000    
     31588 TIP3     1076     SWM4     H2       HDW      0.557330       1.00800           0   0.00000       0.00000    
     31589 TIP3     1077     SWM4     OH2      ODW       1.71640       15.5994           0 -0.978253       1.30000    
     31590 TIP3     1077     SWM4     DOH2     DOH2     -1.71640      0.400000           0   0.00000       0.00000    
     31591 TIP3     1077     SWM4     OM       LPDW     -1.11466       0.00000          -1   0.00000       0.00000    
     31592 TIP3     1077     SWM4     H1       HDW      0.557330       1.00800           0   0.00000       0.00000    
     31593 TIP3     1077     SWM4     H2       HDW      0.557330       1.00800           0   0.00000       0.00000    
     31594 TIP3     1078     SWM4     OH2      ODW       1.71640       15.5994           0 -0.978253       1.30000    
     31595 TIP3     1078     SWM4     DOH2     DOH2     -1.71640      0.400000           0   0.00000       0.00000    
     31596 TIP3     1078     SWM4     OM       LPDW     -1.11466       0.00000          -1   0.00000       0.00000    
     31597 TIP3     1078     SWM4     H1       HDW      0.557330       1.00800           0   0.00000       0.00000    
     31598 TIP3     1078     SWM4     H2       HDW      0.557330       1.00800           0   0.00000       0.00000    
     31599 TIP3     1079     SWM4     OH2      ODW       1.71640       15.5994           0 -0.978253       1.30000    
     31600 TIP3     1079     SWM4     DOH2     DOH2     -1.71640      0.400000           0   0.00000       0.00000    
     31601 TIP3     1079     SWM4     OM       LPDW     -1.11466       0.00000          -1   0.00000       0.00000    
     31602 TIP3     1079     SWM4     H1       HDW      0.557330       1.00800           0   0.00000       0.00000    
     31603 TIP3     1079     SWM4     H2       HDW      0.557330       1.00800           0   0.00000       0.00000    
     31604 TIP3     1080     SWM4     OH2      ODW       1.71640       15.5994           0 -0.978253       1.30000    
     31605 TIP3     1080     SWM4     DOH2     DOH2     -1.71640      0.400000           0   0.00000       0.00000    
     31606 TIP3     1080     SWM4     OM       LPDW     -1.11466       0.00000          -1   0.00000       0.00000    
     31607 TIP3     1080     SWM4     H1       HDW      0.557330       1.00800           0   0.00000       0.00000    
     31608 TIP3     1080     SWM4     H2       HDW      0.557330       1.00800           0   0.00000       0.00000    
     31609 TIP3     1081     SWM4     OH2      ODW       1.71640       15.5994           0 -0.978253       1.30000    
     31610 TIP3     1081     SWM4     DOH2     DOH2     -1.71640      0.400000           0   0.00000       0.00000    
     31611 TIP3     1081     SWM4     OM       LPDW     -1.11466       0.00000          -1   0.00000       0.00000    
     31612 TIP3     1081     SWM4     H1       HDW      0.557330       1.00800           0   0.00000       0.00000    
     31613 TIP3     1081     SWM4     H2       HDW      0.557330       1.00800           0   0.00000       0.00000    
     31614 TIP3     1082     SWM4     OH2      ODW       1.71640       15.5994           0 -0.978253       1.30000    
     31615 TIP3     1082     SWM4     DOH2     DOH2     -1.71640      0.400000           0   0.00000       0.00000    
     31616 TIP3     1082     SWM4     OM       LPDW     -1.11466       0.00000          -1   0.00000       0.00000    
     31617 TIP3     1082     SWM4     H1       HDW      0.557330       1.00800           0   0.00000       0.00000    
     31618 TIP3     1082     SWM4     H2       HDW      0.557330       1.00800           0   0.00000       0.00000    
     31619 TIP3     1083     SWM4     OH2      ODW       1.71640       15.5994           0 -0.978253       1.30000    
     31620 TIP3     1083     SWM4     DOH2     DOH2     -1.71640      0.400000           0   0.00000       0.00000    
     31621 TIP3     1083     SWM4     OM       LPDW     -1.11466       0.00000          -1   0.00000       0.00000    
     31622 TIP3     1083     SWM4     H1       HDW      0.557330       1.00800           0   0.00000       0.00000    
     31623 TIP3     1083     SWM4     H2       HDW      0.557330       1.00800           0   0.00000       0.00000    
     31624 TIP3     1084     SWM4     OH2      ODW       1.71640       15.5994           0 -0.978253       1.30000    
     31625 TIP3     1084     SWM4     DOH2     DOH2     -1.71640      0.400000           0   0.00000       0.00000    
     31626 TIP3     1084     SWM4     OM       LPDW     -1.11466       0.00000          -1   0.00000       0.00000    
     31627 TIP3     1084     SWM4     H1       HDW      0.557330       1.00800           0   0.00000       0.00000    
     31628 TIP3     1084     SWM4     H2       HDW      0.557330       1.00800           0   0.00000       0.00000    
     31629 TIP3     1085     SWM4     OH2      ODW       1.71640       15.5994           0 -0.978253       1.30000    
     31630 TIP3     1085     SWM4     DOH2     DOH2     -1.71640      0.400000           0   0.00000       0.00000    
     31631 TIP3     1085     SWM4     OM       LPDW     -1.11466       0.00000          -1   0.00000       0.00000    
     31632 TIP3     1085     SWM4     H1       HDW      0.557330       1.00800           0   0.00000       0.00000    
     31633 TIP3     1085     SWM4     H2       HDW      0.557330       1.00800           0   0.00000       0.00000    
     31634 TIP3     1086     SWM4     OH2      ODW       1.71640       15.5994           0 -0.978253       1.30000    
     31635 TIP3     1086     SWM4     DOH2     DOH2     -1.71640      0.400000           0   0.00000       0.00000    
     31636 TIP3     1086     SWM4     OM       LPDW     -1.11466       0.00000          -1   0.00000       0.00000    
     31637 TIP3     1086     SWM4     H1       HDW      0.557330       1.00800           0   0.00000       0.00000    
     31638 TIP3     1086     SWM4     H2       HDW      0.557330       1.00800           0   0.00000       0.00000    
     31639 TIP3     1087     SWM4     OH2      ODW       1.71640       15.5994           0 -0.978253       1.30000    
     31640 TIP3     1087     SWM4     DOH2     DOH2     -1.71640      0.400000           0   0.00000       0.00000    
     31641 TIP3     1087     SWM4     OM       LPDW     -1.11466       0.00000          -1   0.00000       0.00000    
     31642 TIP3     1087     SWM4     H1       HDW      0.557330       1.00800           0   0.00000       0.00000    
     31643 TIP3     1087     SWM4     H2       HDW      0.557330       1.00800           0   0.00000       0.00000    
     31644 TIP3     1088     SWM4     OH2      ODW       1.71640       15.5994           0 -0.978253       1.30000    
     31645 TIP3     1088     SWM4     DOH2     DOH2     -1.71640      0.400000           0   0.00000       0.00000    
     31646 TIP3     1088     SWM4     OM       LPDW     -1.11466       0.00000          -1   0.00000       0.00000    
     31647 TIP3     1088     SWM4     H1       HDW      0.557330       1.00800           0   0.00000       0.00000    
     31648 TIP3     1088     SWM4     H2       HDW      0.557330       1.00800           0   0.00000       0.00000    
     31649 TIP3     1089     SWM4     OH2      ODW       1.71640       15.5994           0 -0.978253       1.30000    
     31650 TIP3     1089     SWM4     DOH2     DOH2     -1.71640      0.400000           0   0.00000       0.00000    
     31651 TIP3     1089     SWM4     OM       LPDW     -1.11466       0.00000          -1   0.00000       0.00000    
     31652 TIP3     1089     SWM4     H1       HDW      0.557330       1.00800           0   0.00000       0.00000    
     31653 TIP3     1089     SWM4     H2       HDW      0.557330       1.00800           0   0.00000       0.00000    
     31654 TIP3     1090     SWM4     OH2      ODW       1.71640       15.5994           0 -0.978253       1.30000    
     31655 TIP3     1090     SWM4     DOH2     DOH2     -1.71640      0.400000           0   0.00000       0.00000    
     31656 TIP3     1090     SWM4     OM       LPDW     -1.11466       0.00000          -1   0.00000       0.00000    
     31657 TIP3     1090     SWM4     H1       HDW      0.557330       1.00800           0   0.00000       0.00000    
     31658 TIP3     1090     SWM4     H2       HDW      0.557330       1.00800           0   0.00000       0.00000    
     31659 TIP3     1091     SWM4     OH2      ODW       1.71640       15.5994           0 -0.978253       1.30000    
     31660 TIP3     1091     SWM4     DOH2     DOH2     -1.71640      0.400000           0   0.00000       0.00000    
     31661 TIP3     1091     SWM4     OM       LPDW     -1.11466       0.00000          -1   0.00000       0.00000    
     31662 TIP3     1091     SWM4     H1       HDW      0.557330       1.00800           0   0.00000       0.00000    
     31663 TIP3     1091     SWM4     H2       HDW      0.557330       1.00800           0   0.00000       0.00000    
     31664 TIP3     1092     SWM4     OH2      ODW       1.71640       15.5994           0 -0.978253       1.30000    
     31665 TIP3     1092     SWM4     DOH2     DOH2     -1.71640      0.400000           0   0.00000       0.00000    
     31666 TIP3     1092     SWM4     OM       LPDW     -1.11466       0.00000          -1   0.00000       0.00000    
     31667 TIP3     1092     SWM4     H1       HDW      0.557330       1.00800           0   0.00000       0.00000    
     31668 TIP3     1092     SWM4     H2       HDW      0.557330       1.00800           0   0.00000       0.00000    
     31669 TIP3     1093     SWM4     OH2      ODW       1.71640       15.5994           0 -0.978253       1.30000    
     31670 TIP3     1093     SWM4     DOH2     DOH2     -1.71640      0.400000           0   0.00000       0.00000    
     31671 TIP3     1093     SWM4     OM       LPDW     -1.11466       0.00000          -1   0.00000       0.00000    
     31672 TIP3     1093     SWM4     H1       HDW      0.557330       1.00800           0   0.00000       0.00000    
     31673 TIP3     1093     SWM4     H2       HDW      0.557330       1.00800           0   0.00000       0.00000    
     31674 TIP3     1094     SWM4     OH2      ODW       1.71640       15.5994           0 -0.978253       1.30000    
     31675 TIP3     1094     SWM4     DOH2     DOH2     -1.71640      0.400000           0   0.00000       0.00000    
     31676 TIP3     1094     SWM4     OM       LPDW     -1.11466       0.00000          -1   0.00000       0.00000    
     31677 TIP3     1094     SWM4     H1       HDW      0.557330       1.00800           0   0.00000       0.00000    
     31678 TIP3     1094     SWM4     H2       HDW      0.557330       1.00800           0   0.00000       0.00000    
     31679 TIP3     1095     SWM4     OH2      ODW       1.71640       15.5994           0 -0.978253       1.30000    
     31680 TIP3     1095     SWM4     DOH2     DOH2     -1.71640      0.400000           0   0.00000       0.00000    
     31681 TIP3     1095     SWM4     OM       LPDW     -1.11466       0.00000          -1   0.00000       0.00000    
     31682 TIP3     1095     SWM4     H1       HDW      0.557330       1.00800           0   0.00000       0.00000    
     31683 TIP3     1095     SWM4     H2       HDW      0.557330       1.00800           0   0.00000       0.00000    
     31684 TIP3     1096     SWM4     OH2      ODW       1.71640       15.5994           0 -0.978253       1.30000    
     31685 TIP3     1096     SWM4     DOH2     DOH2     -1.71640      0.400000           0   0.00000       0.00000    
     31686 TIP3     1096     SWM4     OM       LPDW     -1.11466       0.00000          -1   0.00000       0.00000    
     31687 TIP3     1096     SWM4     H1       HDW      0.557330       1.00800           0   0.00000       0.00000    
     31688 TIP3     1096     SWM4     H2       HDW      0.557330       1.00800           0   0.00000       0.00000    
     31689 TIP3     1097     SWM4     OH2      ODW       1.71640       15.5994           0 -0.978253       1.30000    
     31690 TIP3     1097     SWM4     DOH2     DOH2     -1.71640      0.400000           0   0.00000       0.00000    
     31691 TIP3     1097     SWM4     OM       LPDW     -1.11466       0.00000          -1   0.00000       0.00000    
     31692 TIP3     1097     SWM4     H1       HDW      0.557330       1.00800           0   0.00000       0.00000    
     31693 TIP3     1097     SWM4     H2       HDW      0.557330       1.00800           0   0.00000       0.00000    
     31694 TIP3     1098     SWM4     OH2      ODW       1.71640       15.5994           0 -0.978253       1.30000    
     31695 TIP3     1098     SWM4     DOH2     DOH2     -1.71640      0.400000           0   0.00000       0.00000    
     31696 TIP3     1098     SWM4     OM       LPDW     -1.11466       0.00000          -1   0.00000       0.00000    
     31697 TIP3     1098     SWM4     H1       HDW      0.557330       1.00800           0   0.00000       0.00000    
     31698 TIP3     1098     SWM4     H2       HDW      0.557330       1.00800           0   0.00000       0.00000    
     31699 TIP3     1099     SWM4     OH2      ODW       1.71640       15.5994           0 -0.978253       1.30000    
     31700 TIP3     1099     SWM4     DOH2     DOH2     -1.71640      0.400000           0   0.00000       0.00000    
     31701 TIP3     1099     SWM4     OM       LPDW     -1.11466       0.00000          -1   0.00000       0.00000    
     31702 TIP3     1099     SWM4     H1       HDW      0.557330       1.00800           0   0.00000       0.00000    
     31703 TIP3     1099     SWM4     H2       HDW      0.557330       1.00800           0   0.00000       0.00000    
     31704 TIP3     1100     SWM4     OH2      ODW       1.71640       15.5994           0 -0.978253       1.30000    
     31705 TIP3     1100     SWM4     DOH2     DOH2     -1.71640      0.400000           0   0.00000       0.00000    
     31706 TIP3     1100     SWM4     OM       LPDW     -1.11466       0.00000          -1   0.00000       0.00000    
     31707 TIP3     1100     SWM4     H1       HDW      0.557330       1.00800           0   0.00000       0.00000    
     31708 TIP3     1100     SWM4     H2       HDW      0.557330       1.00800           0   0.00000       0.00000    
     31709 TIP3     1101     SWM4     OH2      ODW       1.71640       15.5994           0 -0.978253       1.30000    
     31710 TIP3     1101     SWM4     DOH2     DOH2     -1.71640      0.400000           0   0.00000       0.00000    
     31711 TIP3     1101     SWM4     OM       LPDW     -1.11466       0.00000          -1   0.00000       0.00000    
     31712 TIP3     1101     SWM4     H1       HDW      0.557330       1.00800           0   0.00000       0.00000    
     31713 TIP3     1101     SWM4     H2       HDW      0.557330       1.00800           0   0.00000       0.00000    
     31714 TIP3     1102     SWM4     OH2      ODW       1.71640       15.5994           0 -0.978253       1.30000    
     31715 TIP3     1102     SWM4     DOH2     DOH2     -1.71640      0.400000           0   0.00000       0.00000    
     31716 TIP3     1102     SWM4     OM       LPDW     -1.11466       0.00000          -1   0.00000       0.00000    
     31717 TIP3     1102     SWM4     H1       HDW      0.557330       1.00800           0   0.00000       0.00000    
     31718 TIP3     1102     SWM4     H2       HDW      0.557330       1.00800           0   0.00000       0.00000    
     31719 TIP3     1103     SWM4     OH2      ODW       1.71640       15.5994           0 -0.978253       1.30000    
     31720 TIP3     1103     SWM4     DOH2     DOH2     -1.71640      0.400000           0   0.00000       0.00000    
     31721 TIP3     1103     SWM4     OM       LPDW     -1.11466       0.00000          -1   0.00000       0.00000    
     31722 TIP3     1103     SWM4     H1       HDW      0.557330       1.00800           0   0.00000       0.00000    
     31723 TIP3     1103     SWM4     H2       HDW      0.557330       1.00800           0   0.00000       0.00000    
     31724 TIP3     1104     SWM4     OH2      ODW       1.71640       15.5994           0 -0.978253       1.30000    
     31725 TIP3     1104     SWM4     DOH2     DOH2     -1.71640      0.400000           0   0.00000       0.00000    
     31726 TIP3     1104     SWM4     OM       LPDW     -1.11466       0.00000          -1   0.00000       0.00000    
     31727 TIP3     1104     SWM4     H1       HDW      0.557330       1.00800           0   0.00000       0.00000    
     31728 TIP3     1104     SWM4     H2       HDW      0.557330       1.00800           0   0.00000       0.00000    
     31729 TIP3     1105     SWM4     OH2      ODW       1.71640       15.5994           0 -0.978253       1.30000    
     31730 TIP3     1105     SWM4     DOH2     DOH2     -1.71640      0.400000           0   0.00000       0.00000    
     31731 TIP3     1105     SWM4     OM       LPDW     -1.11466       0.00000          -1   0.00000       0.00000    
     31732 TIP3     1105     SWM4     H1       HDW      0.557330       1.00800           0   0.00000       0.00000    
     31733 TIP3     1105     SWM4     H2       HDW      0.557330       1.00800           0   0.00000       0.00000    
     31734 TIP3     1106     SWM4     OH2      ODW       1.71640       15.5994           0 -0.978253       1.30000    
     31735 TIP3     1106     SWM4     DOH2     DOH2     -1.71640      0.400000           0   0.00000       0.00000    
     31736 TIP3     1106     SWM4     OM       LPDW     -1.11466       0.00000          -1   0.00000       0.00000    
     31737 TIP3     1106     SWM4     H1       HDW      0.557330       1.00800           0   0.00000       0.00000    
     31738 TIP3     1106     SWM4     H2       HDW      0.557330       1.00800           0   0.00000       0.00000    
     31739 TIP3     1107     SWM4     OH2      ODW       1.71640       15.5994           0 -0.978253       1.30000    
     31740 TIP3     1107     SWM4     DOH2     DOH2     -1.71640      0.400000           0   0.00000       0.00000    
     31741 TIP3     1107     SWM4     OM       LPDW     -1.11466       0.00000          -1   0.00000       0.00000    
     31742 TIP3     1107     SWM4     H1       HDW      0.557330       1.00800           0   0.00000       0.00000    
     31743 TIP3     1107     SWM4     H2       HDW      0.557330       1.00800           0   0.00000       0.00000    
     31744 TIP3     1108     SWM4     OH2      ODW       1.71640       15.5994           0 -0.978253       1.30000    
     31745 TIP3     1108     SWM4     DOH2     DOH2     -1.71640      0.400000           0   0.00000       0.00000    
     31746 TIP3     1108     SWM4     OM       LPDW     -1.11466       0.00000          -1   0.00000       0.00000    
     31747 TIP3     1108     SWM4     H1       HDW      0.557330       1.00800           0   0.00000       0.00000    
     31748 TIP3     1108     SWM4     H2       HDW      0.557330       1.00800           0   0.00000       0.00000    
     31749 TIP3     1109     SWM4     OH2      ODW       1.71640       15.5994           0 -0.978253       1.30000    
     31750 TIP3     1109     SWM4     DOH2     DOH2     -1.71640      0.400000           0   0.00000       0.00000    
     31751 TIP3     1109     SWM4     OM       LPDW     -1.11466       0.00000          -1   0.00000       0.00000    
     31752 TIP3     1109     SWM4     H1       HDW      0.557330       1.00800           0   0.00000       0.00000    
     31753 TIP3     1109     SWM4     H2       HDW      0.557330       1.00800           0   0.00000       0.00000    
     31754 TIP3     1110     SWM4     OH2      ODW       1.71640       15.5994           0 -0.978253       1.30000    
     31755 TIP3     1110     SWM4     DOH2     DOH2     -1.71640      0.400000           0   0.00000       0.00000    
     31756 TIP3     1110     SWM4     OM       LPDW     -1.11466       0.00000          -1   0.00000       0.00000    
     31757 TIP3     1110     SWM4     H1       HDW      0.557330       1.00800           0   0.00000       0.00000    
     31758 TIP3     1110     SWM4     H2       HDW      0.557330       1.00800           0   0.00000       0.00000    
     31759 TIP3     1111     SWM4     OH2      ODW       1.71640       15.5994           0 -0.978253       1.30000    
     31760 TIP3     1111     SWM4     DOH2     DOH2     -1.71640      0.400000           0   0.00000       0.00000    
     31761 TIP3     1111     SWM4     OM       LPDW     -1.11466       0.00000          -1   0.00000       0.00000    
     31762 TIP3     1111     SWM4     H1       HDW      0.557330       1.00800           0   0.00000       0.00000    
     31763 TIP3     1111     SWM4     H2       HDW      0.557330       1.00800           0   0.00000       0.00000    
     31764 TIP3     1112     SWM4     OH2      ODW       1.71640       15.5994           0 -0.978253       1.30000    
     31765 TIP3     1112     SWM4     DOH2     DOH2     -1.71640      0.400000           0   0.00000       0.00000    
     31766 TIP3     1112     SWM4     OM       LPDW     -1.11466       0.00000          -1   0.00000       0.00000    
     31767 TIP3     1112     SWM4     H1       HDW      0.557330       1.00800           0   0.00000       0.00000    
     31768 TIP3     1112     SWM4     H2       HDW      0.557330       1.00800           0   0.00000       0.00000    
     31769 TIP3     1113     SWM4     OH2      ODW       1.71640       15.5994           0 -0.978253       1.30000    
     31770 TIP3     1113     SWM4     DOH2     DOH2     -1.71640      0.400000           0   0.00000       0.00000    
     31771 TIP3     1113     SWM4     OM       LPDW     -1.11466       0.00000          -1   0.00000       0.00000    
     31772 TIP3     1113     SWM4     H1       HDW      0.557330       1.00800           0   0.00000       0.00000    
     31773 TIP3     1113     SWM4     H2       HDW      0.557330       1.00800           0   0.00000       0.00000    
     31774 TIP3     1114     SWM4     OH2      ODW       1.71640       15.5994           0 -0.978253       1.30000    
     31775 TIP3     1114     SWM4     DOH2     DOH2     -1.71640      0.400000           0   0.00000       0.00000    
     31776 TIP3     1114     SWM4     OM       LPDW     -1.11466       0.00000          -1   0.00000       0.00000    
     31777 TIP3     1114     SWM4     H1       HDW      0.557330       1.00800           0   0.00000       0.00000    
     31778 TIP3     1114     SWM4     H2       HDW      0.557330       1.00800           0   0.00000       0.00000    
     31779 TIP3     1115     SWM4     OH2      ODW       1.71640       15.5994           0 -0.978253       1.30000    
     31780 TIP3     1115     SWM4     DOH2     DOH2     -1.71640      0.400000           0   0.00000       0.00000    
     31781 TIP3     1115     SWM4     OM       LPDW     -1.11466       0.00000          -1   0.00000       0.00000    
     31782 TIP3     1115     SWM4     H1       HDW      0.557330       1.00800           0   0.00000       0.00000    
     31783 TIP3     1115     SWM4     H2       HDW      0.557330       1.00800           0   0.00000       0.00000    
     31784 TIP3     1116     SWM4     OH2      ODW       1.71640       15.5994           0 -0.978253       1.30000    
     31785 TIP3     1116     SWM4     DOH2     DOH2     -1.71640      0.400000           0   0.00000       0.00000    
     31786 TIP3     1116     SWM4     OM       LPDW     -1.11466       0.00000          -1   0.00000       0.00000    
     31787 TIP3     1116     SWM4     H1       HDW      0.557330       1.00800           0   0.00000       0.00000    
     31788 TIP3     1116     SWM4     H2       HDW      0.557330       1.00800           0   0.00000       0.00000    
     31789 TIP3     1117     SWM4     OH2      ODW       1.71640       15.5994           0 -0.978253       1.30000    
     31790 TIP3     1117     SWM4     DOH2     DOH2     -1.71640      0.400000           0   0.00000       0.00000    
     31791 TIP3     1117     SWM4     OM       LPDW     -1.11466       0.00000          -1   0.00000       0.00000    
     31792 TIP3     1117     SWM4     H1       HDW      0.557330       1.00800           0   0.00000       0.00000    
     31793 TIP3     1117     SWM4     H2       HDW      0.557330       1.00800           0   0.00000       0.00000    
     31794 TIP3     1118     SWM4     OH2      ODW       1.71640       15.5994           0 -0.978253       1.30000    
     31795 TIP3     1118     SWM4     DOH2     DOH2     -1.71640      0.400000           0   0.00000       0.00000    
     31796 TIP3     1118     SWM4     OM       LPDW     -1.11466       0.00000          -1   0.00000       0.00000    
     31797 TIP3     1118     SWM4     H1       HDW      0.557330       1.00800           0   0.00000       0.00000    
     31798 TIP3     1118     SWM4     H2       HDW      0.557330       1.00800           0   0.00000       0.00000    
     31799 TIP3     1119     SWM4     OH2      ODW       1.71640       15.5994           0 -0.978253       1.30000    
     31800 TIP3     1119     SWM4     DOH2     DOH2     -1.71640      0.400000           0   0.00000       0.00000    
     31801 TIP3     1119     SWM4     OM       LPDW     -1.11466       0.00000          -1   0.00000       0.00000    
     31802 TIP3     1119     SWM4     H1       HDW      0.557330       1.00800           0   0.00000       0.00000    
     31803 TIP3     1119     SWM4     H2       HDW      0.557330       1.00800           0   0.00000       0.00000    
     31804 TIP3     1120     SWM4     OH2      ODW       1.71640       15.5994           0 -0.978253       1.30000    
     31805 TIP3     1120     SWM4     DOH2     DOH2     -1.71640      0.400000           0   0.00000       0.00000    
     31806 TIP3     1120     SWM4     OM       LPDW     -1.11466       0.00000          -1   0.00000       0.00000    
     31807 TIP3     1120     SWM4     H1       HDW      0.557330       1.00800           0   0.00000       0.00000    
     31808 TIP3     1120     SWM4     H2       HDW      0.557330       1.00800           0   0.00000       0.00000    
     31809 TIP3     1121     SWM4     OH2      ODW       1.71640       15.5994           0 -0.978253       1.30000    
     31810 TIP3     1121     SWM4     DOH2     DOH2     -1.71640      0.400000           0   0.00000       0.00000    
     31811 TIP3     1121     SWM4     OM       LPDW     -1.11466       0.00000          -1   0.00000       0.00000    
     31812 TIP3     1121     SWM4     H1       HDW      0.557330       1.00800           0   0.00000       0.00000    
     31813 TIP3     1121     SWM4     H2       HDW      0.557330       1.00800           0   0.00000       0.00000    
     31814 TIP3     1122     SWM4     OH2      ODW       1.71640       15.5994           0 -0.978253       1.30000    
     31815 TIP3     1122     SWM4     DOH2     DOH2     -1.71640      0.400000           0   0.00000       0.00000    
     31816 TIP3     1122     SWM4     OM       LPDW     -1.11466       0.00000          -1   0.00000       0.00000    
     31817 TIP3     1122     SWM4     H1       HDW      0.557330       1.00800           0   0.00000       0.00000    
     31818 TIP3     1122     SWM4     H2       HDW      0.557330       1.00800           0   0.00000       0.00000    
     31819 TIP3     1123     SWM4     OH2      ODW       1.71640       15.5994           0 -0.978253       1.30000    
     31820 TIP3     1123     SWM4     DOH2     DOH2     -1.71640      0.400000           0   0.00000       0.00000    
     31821 TIP3     1123     SWM4     OM       LPDW     -1.11466       0.00000          -1   0.00000       0.00000    
     31822 TIP3     1123     SWM4     H1       HDW      0.557330       1.00800           0   0.00000       0.00000    
     31823 TIP3     1123     SWM4     H2       HDW      0.557330       1.00800           0   0.00000       0.00000    
     31824 TIP3     1124     SWM4     OH2      ODW       1.71640       15.5994           0 -0.978253       1.30000    
     31825 TIP3     1124     SWM4     DOH2     DOH2     -1.71640      0.400000           0   0.00000       0.00000    
     31826 TIP3     1124     SWM4     OM       LPDW     -1.11466       0.00000          -1   0.00000       0.00000    
     31827 TIP3     1124     SWM4     H1       HDW      0.557330       1.00800           0   0.00000       0.00000    
     31828 TIP3     1124     SWM4     H2       HDW      0.557330       1.00800           0   0.00000       0.00000    
     31829 TIP3     1125     SWM4     OH2      ODW       1.71640       15.5994           0 -0.978253       1.30000    
     31830 TIP3     1125     SWM4     DOH2     DOH2     -1.71640      0.400000           0   0.00000       0.00000    
     31831 TIP3     1125     SWM4     OM       LPDW     -1.11466       0.00000          -1   0.00000       0.00000    
     31832 TIP3     1125     SWM4     H1       HDW      0.557330       1.00800           0   0.00000       0.00000    
     31833 TIP3     1125     SWM4     H2       HDW      0.557330       1.00800           0   0.00000       0.00000    
     31834 TIP3     1126     SWM4     OH2      ODW       1.71640       15.5994           0 -0.978253       1.30000    
     31835 TIP3     1126     SWM4     DOH2     DOH2     -1.71640      0.400000           0   0.00000       0.00000    
     31836 TIP3     1126     SWM4     OM       LPDW     -1.11466       0.00000          -1   0.00000       0.00000    
     31837 TIP3     1126     SWM4     H1       HDW      0.557330       1.00800           0   0.00000       0.00000    
     31838 TIP3     1126     SWM4     H2       HDW      0.557330       1.00800           0   0.00000       0.00000    
     31839 TIP3     1127     SWM4     OH2      ODW       1.71640       15.5994           0 -0.978253       1.30000    
     31840 TIP3     1127     SWM4     DOH2     DOH2     -1.71640      0.400000           0   0.00000       0.00000    
     31841 TIP3     1127     SWM4     OM       LPDW     -1.11466       0.00000          -1   0.00000       0.00000    
     31842 TIP3     1127     SWM4     H1       HDW      0.557330       1.00800           0   0.00000       0.00000    
     31843 TIP3     1127     SWM4     H2       HDW      0.557330       1.00800           0   0.00000       0.00000    
     31844 TIP3     1128     SWM4     OH2      ODW       1.71640       15.5994           0 -0.978253       1.30000    
     31845 TIP3     1128     SWM4     DOH2     DOH2     -1.71640      0.400000           0   0.00000       0.00000    
     31846 TIP3     1128     SWM4     OM       LPDW     -1.11466       0.00000          -1   0.00000       0.00000    
     31847 TIP3     1128     SWM4     H1       HDW      0.557330       1.00800           0   0.00000       0.00000    
     31848 TIP3     1128     SWM4     H2       HDW      0.557330       1.00800           0   0.00000       0.00000    
     31849 TIP3     1129     SWM4     OH2      ODW       1.71640       15.5994           0 -0.978253       1.30000    
     31850 TIP3     1129     SWM4     DOH2     DOH2     -1.71640      0.400000           0   0.00000       0.00000    
     31851 TIP3     1129     SWM4     OM       LPDW     -1.11466       0.00000          -1   0.00000       0.00000    
     31852 TIP3     1129     SWM4     H1       HDW      0.557330       1.00800           0   0.00000       0.00000    
     31853 TIP3     1129     SWM4     H2       HDW      0.557330       1.00800           0   0.00000       0.00000    
     31854 TIP3     1130     SWM4     OH2      ODW       1.71640       15.5994           0 -0.978253       1.30000    
     31855 TIP3     1130     SWM4     DOH2     DOH2     -1.71640      0.400000           0   0.00000       0.00000    
     31856 TIP3     1130     SWM4     OM       LPDW     -1.11466       0.00000          -1   0.00000       0.00000    
     31857 TIP3     1130     SWM4     H1       HDW      0.557330       1.00800           0   0.00000       0.00000    
     31858 TIP3     1130     SWM4     H2       HDW      0.557330       1.00800           0   0.00000       0.00000    
     31859 TIP3     1131     SWM4     OH2      ODW       1.71640       15.5994           0 -0.978253       1.30000    
     31860 TIP3     1131     SWM4     DOH2     DOH2     -1.71640      0.400000           0   0.00000       0.00000    
     31861 TIP3     1131     SWM4     OM       LPDW     -1.11466       0.00000          -1   0.00000       0.00000    
     31862 TIP3     1131     SWM4     H1       HDW      0.557330       1.00800           0   0.00000       0.00000    
     31863 TIP3     1131     SWM4     H2       HDW      0.557330       1.00800           0   0.00000       0.00000    
     31864 TIP3     1132     SWM4     OH2      ODW       1.71640       15.5994           0 -0.978253       1.30000    
     31865 TIP3     1132     SWM4     DOH2     DOH2     -1.71640      0.400000           0   0.00000       0.00000    
     31866 TIP3     1132     SWM4     OM       LPDW     -1.11466       0.00000          -1   0.00000       0.00000    
     31867 TIP3     1132     SWM4     H1       HDW      0.557330       1.00800           0   0.00000       0.00000    
     31868 TIP3     1132     SWM4     H2       HDW      0.557330       1.00800           0   0.00000       0.00000    
     31869 TIP3     1133     SWM4     OH2      ODW       1.71640       15.5994           0 -0.978253       1.30000    
     31870 TIP3     1133     SWM4     DOH2     DOH2     -1.71640      0.400000           0   0.00000       0.00000    
     31871 TIP3     1133     SWM4     OM       LPDW     -1.11466       0.00000          -1   0.00000       0.00000    
     31872 TIP3     1133     SWM4     H1       HDW      0.557330       1.00800           0   0.00000       0.00000    
     31873 TIP3     1133     SWM4     H2       HDW      0.557330       1.00800           0   0.00000       0.00000    
     31874 TIP3     1134     SWM4     OH2      ODW       1.71640       15.5994           0 -0.978253       1.30000    
     31875 TIP3     1134     SWM4     DOH2     DOH2     -1.71640      0.400000           0   0.00000       0.00000    
     31876 TIP3     1134     SWM4     OM       LPDW     -1.11466       0.00000          -1   0.00000       0.00000    
     31877 TIP3     1134     SWM4     H1       HDW      0.557330       1.00800           0   0.00000       0.00000    
     31878 TIP3     1134     SWM4     H2       HDW      0.557330       1.00800           0   0.00000       0.00000    
     31879 TIP3     1135     SWM4     OH2      ODW       1.71640       15.5994           0 -0.978253       1.30000    
     31880 TIP3     1135     SWM4     DOH2     DOH2     -1.71640      0.400000           0   0.00000       0.00000    
     31881 TIP3     1135     SWM4     OM       LPDW     -1.11466       0.00000          -1   0.00000       0.00000    
     31882 TIP3     1135     SWM4     H1       HDW      0.557330       1.00800           0   0.00000       0.00000    
     31883 TIP3     1135     SWM4     H2       HDW      0.557330       1.00800           0   0.00000       0.00000    
     31884 TIP3     1136     SWM4     OH2      ODW       1.71640       15.5994           0 -0.978253       1.30000    
     31885 TIP3     1136     SWM4     DOH2     DOH2     -1.71640      0.400000           0   0.00000       0.00000    
     31886 TIP3     1136     SWM4     OM       LPDW     -1.11466       0.00000          -1   0.00000       0.00000    
     31887 TIP3     1136     SWM4     H1       HDW      0.557330       1.00800           0   0.00000       0.00000    
     31888 TIP3     1136     SWM4     H2       HDW      0.557330       1.00800           0   0.00000       0.00000    
     31889 TIP3     1137     SWM4     OH2      ODW       1.71640       15.5994           0 -0.978253       1.30000    
     31890 TIP3     1137     SWM4     DOH2     DOH2     -1.71640      0.400000           0   0.00000       0.00000    
     31891 TIP3     1137     SWM4     OM       LPDW     -1.11466       0.00000          -1   0.00000       0.00000    
     31892 TIP3     1137     SWM4     H1       HDW      0.557330       1.00800           0   0.00000       0.00000    
     31893 TIP3     1137     SWM4     H2       HDW      0.557330       1.00800           0   0.00000       0.00000    
     31894 TIP3     1138     SWM4     OH2      ODW       1.71640       15.5994           0 -0.978253       1.30000    
     31895 TIP3     1138     SWM4     DOH2     DOH2     -1.71640      0.400000           0   0.00000       0.00000    
     31896 TIP3     1138     SWM4     OM       LPDW     -1.11466       0.00000          -1   0.00000       0.00000    
     31897 TIP3     1138     SWM4     H1       HDW      0.557330       1.00800           0   0.00000       0.00000    
     31898 TIP3     1138     SWM4     H2       HDW      0.557330       1.00800           0   0.00000       0.00000    
     31899 TIP3     1139     SWM4     OH2      ODW       1.71640       15.5994           0 -0.978253       1.30000    
     31900 TIP3     1139     SWM4     DOH2     DOH2     -1.71640      0.400000           0   0.00000       0.00000    
     31901 TIP3     1139     SWM4     OM       LPDW     -1.11466       0.00000          -1   0.00000       0.00000    
     31902 TIP3     1139     SWM4     H1       HDW      0.557330       1.00800           0   0.00000       0.00000    
     31903 TIP3     1139     SWM4     H2       HDW      0.557330       1.00800           0   0.00000       0.00000    
     31904 TIP3     1140     SWM4     OH2      ODW       1.71640       15.5994           0 -0.978253       1.30000    
     31905 TIP3     1140     SWM4     DOH2     DOH2     -1.71640      0.400000           0   0.00000       0.00000    
     31906 TIP3     1140     SWM4     OM       LPDW     -1.11466       0.00000          -1   0.00000       0.00000    
     31907 TIP3     1140     SWM4     H1       HDW      0.557330       1.00800           0   0.00000       0.00000    
     31908 TIP3     1140     SWM4     H2       HDW      0.557330       1.00800           0   0.00000       0.00000    
     31909 TIP3     1141     SWM4     OH2      ODW       1.71640       15.5994           0 -0.978253       1.30000    
     31910 TIP3     1141     SWM4     DOH2     DOH2     -1.71640      0.400000           0   0.00000       0.00000    
     31911 TIP3     1141     SWM4     OM       LPDW     -1.11466       0.00000          -1   0.00000       0.00000    
     31912 TIP3     1141     SWM4     H1       HDW      0.557330       1.00800           0   0.00000       0.00000    
     31913 TIP3     1141     SWM4     H2       HDW      0.557330       1.00800           0   0.00000       0.00000    
     31914 TIP3     1142     SWM4     OH2      ODW       1.71640       15.5994           0 -0.978253       1.30000    
     31915 TIP3     1142     SWM4     DOH2     DOH2     -1.71640      0.400000           0   0.00000       0.00000    
     31916 TIP3     1142     SWM4     OM       LPDW     -1.11466       0.00000          -1   0.00000       0.00000    
     31917 TIP3     1142     SWM4     H1       HDW      0.557330       1.00800           0   0.00000       0.00000    
     31918 TIP3     1142     SWM4     H2       HDW      0.557330       1.00800           0   0.00000       0.00000    
     31919 TIP3     1143     SWM4     OH2      ODW       1.71640       15.5994           0 -0.978253       1.30000    
     31920 TIP3     1143     SWM4     DOH2     DOH2     -1.71640      0.400000           0   0.00000       0.00000    
     31921 TIP3     1143     SWM4     OM       LPDW     -1.11466       0.00000          -1   0.00000       0.00000    
     31922 TIP3     1143     SWM4     H1       HDW      0.557330       1.00800           0   0.00000       0.00000    
     31923 TIP3     1143     SWM4     H2       HDW      0.557330       1.00800           0   0.00000       0.00000    
     31924 TIP3     1144     SWM4     OH2      ODW       1.71640       15.5994           0 -0.978253       1.30000    
     31925 TIP3     1144     SWM4     DOH2     DOH2     -1.71640      0.400000           0   0.00000       0.00000    
     31926 TIP3     1144     SWM4     OM       LPDW     -1.11466       0.00000          -1   0.00000       0.00000    
     31927 TIP3     1144     SWM4     H1       HDW      0.557330       1.00800           0   0.00000       0.00000    
     31928 TIP3     1144     SWM4     H2       HDW      0.557330       1.00800           0   0.00000       0.00000    
     31929 TIP3     1145     SWM4     OH2      ODW       1.71640       15.5994           0 -0.978253       1.30000    
     31930 TIP3     1145     SWM4     DOH2     DOH2     -1.71640      0.400000           0   0.00000       0.00000    
     31931 TIP3     1145     SWM4     OM       LPDW     -1.11466       0.00000          -1   0.00000       0.00000    
     31932 TIP3     1145     SWM4     H1       HDW      0.557330       1.00800           0   0.00000       0.00000    
     31933 TIP3     1145     SWM4     H2       HDW      0.557330       1.00800           0   0.00000       0.00000    
     31934 TIP3     1146     SWM4     OH2      ODW       1.71640       15.5994           0 -0.978253       1.30000    
     31935 TIP3     1146     SWM4     DOH2     DOH2     -1.71640      0.400000           0   0.00000       0.00000    
     31936 TIP3     1146     SWM4     OM       LPDW     -1.11466       0.00000          -1   0.00000       0.00000    
     31937 TIP3     1146     SWM4     H1       HDW      0.557330       1.00800           0   0.00000       0.00000    
     31938 TIP3     1146     SWM4     H2       HDW      0.557330       1.00800           0   0.00000       0.00000    
     31939 TIP3     1147     SWM4     OH2      ODW       1.71640       15.5994           0 -0.978253       1.30000    
     31940 TIP3     1147     SWM4     DOH2     DOH2     -1.71640      0.400000           0   0.00000       0.00000    
     31941 TIP3     1147     SWM4     OM       LPDW     -1.11466       0.00000          -1   0.00000       0.00000    
     31942 TIP3     1147     SWM4     H1       HDW      0.557330       1.00800           0   0.00000       0.00000    
     31943 TIP3     1147     SWM4     H2       HDW      0.557330       1.00800           0   0.00000       0.00000    
     31944 TIP3     1148     SWM4     OH2      ODW       1.71640       15.5994           0 -0.978253       1.30000    
     31945 TIP3     1148     SWM4     DOH2     DOH2     -1.71640      0.400000           0   0.00000       0.00000    
     31946 TIP3     1148     SWM4     OM       LPDW     -1.11466       0.00000          -1   0.00000       0.00000    
     31947 TIP3     1148     SWM4     H1       HDW      0.557330       1.00800           0   0.00000       0.00000    
     31948 TIP3     1148     SWM4     H2       HDW      0.557330       1.00800           0   0.00000       0.00000    
     31949 TIP3     1149     SWM4     OH2      ODW       1.71640       15.5994           0 -0.978253       1.30000    
     31950 TIP3     1149     SWM4     DOH2     DOH2     -1.71640      0.400000           0   0.00000       0.00000    
     31951 TIP3     1149     SWM4     OM       LPDW     -1.11466       0.00000          -1   0.00000       0.00000    
     31952 TIP3     1149     SWM4     H1       HDW      0.557330       1.00800           0   0.00000       0.00000    
     31953 TIP3     1149     SWM4     H2       HDW      0.557330       1.00800           0   0.00000       0.00000    
     31954 TIP3     1150     SWM4     OH2      ODW       1.71640       15.5994           0 -0.978253       1.30000    
     31955 TIP3     1150     SWM4     DOH2     DOH2     -1.71640      0.400000           0   0.00000       0.00000    
     31956 TIP3     1150     SWM4     OM       LPDW     -1.11466       0.00000          -1   0.00000       0.00000    
     31957 TIP3     1150     SWM4     H1       HDW      0.557330       1.00800           0   0.00000       0.00000    
     31958 TIP3     1150     SWM4     H2       HDW      0.557330       1.00800           0   0.00000       0.00000    
     31959 TIP3     1151     SWM4     OH2      ODW       1.71640       15.5994           0 -0.978253       1.30000    
     31960 TIP3     1151     SWM4     DOH2     DOH2     -1.71640      0.400000           0   0.00000       0.00000    
     31961 TIP3     1151     SWM4     OM       LPDW     -1.11466       0.00000          -1   0.00000       0.00000    
     31962 TIP3     1151     SWM4     H1       HDW      0.557330       1.00800           0   0.00000       0.00000    
     31963 TIP3     1151     SWM4     H2       HDW      0.557330       1.00800           0   0.00000       0.00000    
     31964 TIP3     1152     SWM4     OH2      ODW       1.71640       15.5994           0 -0.978253       1.30000    
     31965 TIP3     1152     SWM4     DOH2     DOH2     -1.71640      0.400000           0   0.00000       0.00000    
     31966 TIP3     1152     SWM4     OM       LPDW     -1.11466       0.00000          -1   0.00000       0.00000    
     31967 TIP3     1152     SWM4     H1       HDW      0.557330       1.00800           0   0.00000       0.00000    
     31968 TIP3     1152     SWM4     H2       HDW      0.557330       1.00800           0   0.00000       0.00000    
     31969 TIP3     1153     SWM4     OH2      ODW       1.71640       15.5994           0 -0.978253       1.30000    
     31970 TIP3     1153     SWM4     DOH2     DOH2     -1.71640      0.400000           0   0.00000       0.00000    
     31971 TIP3     1153     SWM4     OM       LPDW     -1.11466       0.00000          -1   0.00000       0.00000    
     31972 TIP3     1153     SWM4     H1       HDW      0.557330       1.00800           0   0.00000       0.00000    
     31973 TIP3     1153     SWM4     H2       HDW      0.557330       1.00800           0   0.00000       0.00000    
     31974 TIP3     1154     SWM4     OH2      ODW       1.71640       15.5994           0 -0.978253       1.30000    
     31975 TIP3     1154     SWM4     DOH2     DOH2     -1.71640      0.400000           0   0.00000       0.00000    
     31976 TIP3     1154     SWM4     OM       LPDW     -1.11466       0.00000          -1   0.00000       0.00000    
     31977 TIP3     1154     SWM4     H1       HDW      0.557330       1.00800           0   0.00000       0.00000    
     31978 TIP3     1154     SWM4     H2       HDW      0.557330       1.00800           0   0.00000       0.00000    
     31979 TIP3     1155     SWM4     OH2      ODW       1.71640       15.5994           0 -0.978253       1.30000    
     31980 TIP3     1155     SWM4     DOH2     DOH2     -1.71640      0.400000           0   0.00000       0.00000    
     31981 TIP3     1155     SWM4     OM       LPDW     -1.11466       0.00000          -1   0.00000       0.00000    
     31982 TIP3     1155     SWM4     H1       HDW      0.557330       1.00800           0   0.00000       0.00000    
     31983 TIP3     1155     SWM4     H2       HDW      0.557330       1.00800           0   0.00000       0.00000    
     31984 TIP3     1156     SWM4     OH2      ODW       1.71640       15.5994           0 -0.978253       1.30000    
     31985 TIP3     1156     SWM4     DOH2     DOH2     -1.71640      0.400000           0   0.00000       0.00000    
     31986 TIP3     1156     SWM4     OM       LPDW     -1.11466       0.00000          -1   0.00000       0.00000    
     31987 TIP3     1156     SWM4     H1       HDW      0.557330       1.00800           0   0.00000       0.00000    
     31988 TIP3     1156     SWM4     H2       HDW      0.557330       1.00800           0   0.00000       0.00000    
     31989 TIP3     1157     SWM4     OH2      ODW       1.71640       15.5994           0 -0.978253       1.30000    
     31990 TIP3     1157     SWM4     DOH2     DOH2     -1.71640      0.400000           0   0.00000       0.00000    
     31991 TIP3     1157     SWM4     OM       LPDW     -1.11466       0.00000          -1   0.00000       0.00000    
     31992 TIP3     1157     SWM4     H1       HDW      0.557330       1.00800           0   0.00000       0.00000    
     31993 TIP3     1157     SWM4     H2       HDW      0.557330       1.00800           0   0.00000       0.00000    
     31994 TIP3     1158     SWM4     OH2      ODW       1.71640       15.5994           0 -0.978253       1.30000    
     31995 TIP3     1158     SWM4     DOH2     DOH2     -1.71640      0.400000           0   0.00000       0.00000    
     31996 TIP3     1158     SWM4     OM       LPDW     -1.11466       0.00000          -1   0.00000       0.00000    
     31997 TIP3     1158     SWM4     H1       HDW      0.557330       1.00800           0   0.00000       0.00000    
     31998 TIP3     1158     SWM4     H2       HDW      0.557330       1.00800           0   0.00000       0.00000    
     31999 TIP3     1159     SWM4     OH2      ODW       1.71640       15.5994           0 -0.978253       1.30000    
     32000 TIP3     1159     SWM4     DOH2     DOH2     -1.71640      0.400000           0   0.00000       0.00000    
     32001 TIP3     1159     SWM4     OM       LPDW     -1.11466       0.00000          -1   0.00000       0.00000    
     32002 TIP3     1159     SWM4     H1       HDW      0.557330       1.00800           0   0.00000       0.00000    
     32003 TIP3     1159     SWM4     H2       HDW      0.557330       1.00800           0   0.00000       0.00000    
     32004 TIP3     1160     SWM4     OH2      ODW       1.71640       15.5994           0 -0.978253       1.30000    
     32005 TIP3     1160     SWM4     DOH2     DOH2     -1.71640      0.400000           0   0.00000       0.00000    
     32006 TIP3     1160     SWM4     OM       LPDW     -1.11466       0.00000          -1   0.00000       0.00000    
     32007 TIP3     1160     SWM4     H1       HDW      0.557330       1.00800           0   0.00000       0.00000    
     32008 TIP3     1160     SWM4     H2       HDW      0.557330       1.00800           0   0.00000       0.00000    
     32009 TIP3     1161     SWM4     OH2      ODW       1.71640       15.5994           0 -0.978253       1.30000    
     32010 TIP3     1161     SWM4     DOH2     DOH2     -1.71640      0.400000           0   0.00000       0.00000    
     32011 TIP3     1161     SWM4     OM       LPDW     -1.11466       0.00000          -1   0.00000       0.00000    
     32012 TIP3     1161     SWM4     H1       HDW      0.557330       1.00800           0   0.00000       0.00000    
     32013 TIP3     1161     SWM4     H2       HDW      0.557330       1.00800           0   0.00000       0.00000    
     32014 TIP3     1162     SWM4     OH2      ODW       1.71640       15.5994           0 -0.978253       1.30000    
     32015 TIP3     1162     SWM4     DOH2     DOH2     -1.71640      0.400000           0   0.00000       0.00000    
     32016 TIP3     1162     SWM4     OM       LPDW     -1.11466       0.00000          -1   0.00000       0.00000    
     32017 TIP3     1162     SWM4     H1       HDW      0.557330       1.00800           0   0.00000       0.00000    
     32018 TIP3     1162     SWM4     H2       HDW      0.557330       1.00800           0   0.00000       0.00000    
     32019 TIP3     1163     SWM4     OH2      ODW       1.71640       15.5994           0 -0.978253       1.30000    
     32020 TIP3     1163     SWM4     DOH2     DOH2     -1.71640      0.400000           0   0.00000       0.00000    
     32021 TIP3     1163     SWM4     OM       LPDW     -1.11466       0.00000          -1   0.00000       0.00000    
     32022 TIP3     1163     SWM4     H1       HDW      0.557330       1.00800           0   0.00000       0.00000    
     32023 TIP3     1163     SWM4     H2       HDW      0.557330       1.00800           0   0.00000       0.00000    
     32024 TIP3     1164     SWM4     OH2      ODW       1.71640       15.5994           0 -0.978253       1.30000    
     32025 TIP3     1164     SWM4     DOH2     DOH2     -1.71640      0.400000           0   0.00000       0.00000    
     32026 TIP3     1164     SWM4     OM       LPDW     -1.11466       0.00000          -1   0.00000       0.00000    
     32027 TIP3     1164     SWM4     H1       HDW      0.557330       1.00800           0   0.00000       0.00000    
     32028 TIP3     1164     SWM4     H2       HDW      0.557330       1.00800           0   0.00000       0.00000    
     32029 TIP3     1165     SWM4     OH2      ODW       1.71640       15.5994           0 -0.978253       1.30000    
     32030 TIP3     1165     SWM4     DOH2     DOH2     -1.71640      0.400000           0   0.00000       0.00000    
     32031 TIP3     1165     SWM4     OM       LPDW     -1.11466       0.00000          -1   0.00000       0.00000    
     32032 TIP3     1165     SWM4     H1       HDW      0.557330       1.00800           0   0.00000       0.00000    
     32033 TIP3     1165     SWM4     H2       HDW      0.557330       1.00800           0   0.00000       0.00000    
     32034 TIP3     1166     SWM4     OH2      ODW       1.71640       15.5994           0 -0.978253       1.30000    
     32035 TIP3     1166     SWM4     DOH2     DOH2     -1.71640      0.400000           0   0.00000       0.00000    
     32036 TIP3     1166     SWM4     OM       LPDW     -1.11466       0.00000          -1   0.00000       0.00000    
     32037 TIP3     1166     SWM4     H1       HDW      0.557330       1.00800           0   0.00000       0.00000    
     32038 TIP3     1166     SWM4     H2       HDW      0.557330       1.00800           0   0.00000       0.00000    
     32039 TIP3     1167     SWM4     OH2      ODW       1.71640       15.5994           0 -0.978253       1.30000    
     32040 TIP3     1167     SWM4     DOH2     DOH2     -1.71640      0.400000           0   0.00000       0.00000    
     32041 TIP3     1167     SWM4     OM       LPDW     -1.11466       0.00000          -1   0.00000       0.00000    
     32042 TIP3     1167     SWM4     H1       HDW      0.557330       1.00800           0   0.00000       0.00000    
     32043 TIP3     1167     SWM4     H2       HDW      0.557330       1.00800           0   0.00000       0.00000    
     32044 TIP3     1168     SWM4     OH2      ODW       1.71640       15.5994           0 -0.978253       1.30000    
     32045 TIP3     1168     SWM4     DOH2     DOH2     -1.71640      0.400000           0   0.00000       0.00000    
     32046 TIP3     1168     SWM4     OM       LPDW     -1.11466       0.00000          -1   0.00000       0.00000    
     32047 TIP3     1168     SWM4     H1       HDW      0.557330       1.00800           0   0.00000       0.00000    
     32048 TIP3     1168     SWM4     H2       HDW      0.557330       1.00800           0   0.00000       0.00000    
     32049 TIP3     1169     SWM4     OH2      ODW       1.71640       15.5994           0 -0.978253       1.30000    
     32050 TIP3     1169     SWM4     DOH2     DOH2     -1.71640      0.400000           0   0.00000       0.00000    
     32051 TIP3     1169     SWM4     OM       LPDW     -1.11466       0.00000          -1   0.00000       0.00000    
     32052 TIP3     1169     SWM4     H1       HDW      0.557330       1.00800           0   0.00000       0.00000    
     32053 TIP3     1169     SWM4     H2       HDW      0.557330       1.00800           0   0.00000       0.00000    
     32054 TIP3     1170     SWM4     OH2      ODW       1.71640       15.5994           0 -0.978253       1.30000    
     32055 TIP3     1170     SWM4     DOH2     DOH2     -1.71640      0.400000           0   0.00000       0.00000    
     32056 TIP3     1170     SWM4     OM       LPDW     -1.11466       0.00000          -1   0.00000       0.00000    
     32057 TIP3     1170     SWM4     H1       HDW      0.557330       1.00800           0   0.00000       0.00000    
     32058 TIP3     1170     SWM4     H2       HDW      0.557330       1.00800           0   0.00000       0.00000    
     32059 TIP3     1171     SWM4     OH2      ODW       1.71640       15.5994           0 -0.978253       1.30000    
     32060 TIP3     1171     SWM4     DOH2     DOH2     -1.71640      0.400000           0   0.00000       0.00000    
     32061 TIP3     1171     SWM4     OM       LPDW     -1.11466       0.00000          -1   0.00000       0.00000    
     32062 TIP3     1171     SWM4     H1       HDW      0.557330       1.00800           0   0.00000       0.00000    
     32063 TIP3     1171     SWM4     H2       HDW      0.557330       1.00800           0   0.00000       0.00000    
     32064 TIP3     1172     SWM4     OH2      ODW       1.71640       15.5994           0 -0.978253       1.30000    
     32065 TIP3     1172     SWM4     DOH2     DOH2     -1.71640      0.400000           0   0.00000       0.00000    
     32066 TIP3     1172     SWM4     OM       LPDW     -1.11466       0.00000          -1   0.00000       0.00000    
     32067 TIP3     1172     SWM4     H1       HDW      0.557330       1.00800           0   0.00000       0.00000    
     32068 TIP3     1172     SWM4     H2       HDW      0.557330       1.00800           0   0.00000       0.00000    
     32069 TIP3     1173     SWM4     OH2      ODW       1.71640       15.5994           0 -0.978253       1.30000    
     32070 TIP3     1173     SWM4     DOH2     DOH2     -1.71640      0.400000           0   0.00000       0.00000    
     32071 TIP3     1173     SWM4     OM       LPDW     -1.11466       0.00000          -1   0.00000       0.00000    
     32072 TIP3     1173     SWM4     H1       HDW      0.557330       1.00800           0   0.00000       0.00000    
     32073 TIP3     1173     SWM4     H2       HDW      0.557330       1.00800           0   0.00000       0.00000    
     32074 TIP3     1174     SWM4     OH2      ODW       1.71640       15.5994           0 -0.978253       1.30000    
     32075 TIP3     1174     SWM4     DOH2     DOH2     -1.71640      0.400000           0   0.00000       0.00000    
     32076 TIP3     1174     SWM4     OM       LPDW     -1.11466       0.00000          -1   0.00000       0.00000    
     32077 TIP3     1174     SWM4     H1       HDW      0.557330       1.00800           0   0.00000       0.00000    
     32078 TIP3     1174     SWM4     H2       HDW      0.557330       1.00800           0   0.00000       0.00000    
     32079 TIP3     1175     SWM4     OH2      ODW       1.71640       15.5994           0 -0.978253       1.30000    
     32080 TIP3     1175     SWM4     DOH2     DOH2     -1.71640      0.400000           0   0.00000       0.00000    
     32081 TIP3     1175     SWM4     OM       LPDW     -1.11466       0.00000          -1   0.00000       0.00000    
     32082 TIP3     1175     SWM4     H1       HDW      0.557330       1.00800           0   0.00000       0.00000    
     32083 TIP3     1175     SWM4     H2       HDW      0.557330       1.00800           0   0.00000       0.00000    
     32084 TIP3     1176     SWM4     OH2      ODW       1.71640       15.5994           0 -0.978253       1.30000    
     32085 TIP3     1176     SWM4     DOH2     DOH2     -1.71640      0.400000           0   0.00000       0.00000    
     32086 TIP3     1176     SWM4     OM       LPDW     -1.11466       0.00000          -1   0.00000       0.00000    
     32087 TIP3     1176     SWM4     H1       HDW      0.557330       1.00800           0   0.00000       0.00000    
     32088 TIP3     1176     SWM4     H2       HDW      0.557330       1.00800           0   0.00000       0.00000    
     32089 TIP3     1177     SWM4     OH2      ODW       1.71640       15.5994           0 -0.978253       1.30000    
     32090 TIP3     1177     SWM4     DOH2     DOH2     -1.71640      0.400000           0   0.00000       0.00000    
     32091 TIP3     1177     SWM4     OM       LPDW     -1.11466       0.00000          -1   0.00000       0.00000    
     32092 TIP3     1177     SWM4     H1       HDW      0.557330       1.00800           0   0.00000       0.00000    
     32093 TIP3     1177     SWM4     H2       HDW      0.557330       1.00800           0   0.00000       0.00000    
     32094 TIP3     1178     SWM4     OH2      ODW       1.71640       15.5994           0 -0.978253       1.30000    
     32095 TIP3     1178     SWM4     DOH2     DOH2     -1.71640      0.400000           0   0.00000       0.00000    
     32096 TIP3     1178     SWM4     OM       LPDW     -1.11466       0.00000          -1   0.00000       0.00000    
     32097 TIP3     1178     SWM4     H1       HDW      0.557330       1.00800           0   0.00000       0.00000    
     32098 TIP3     1178     SWM4     H2       HDW      0.557330       1.00800           0   0.00000       0.00000    
     32099 TIP3     1179     SWM4     OH2      ODW       1.71640       15.5994           0 -0.978253       1.30000    
     32100 TIP3     1179     SWM4     DOH2     DOH2     -1.71640      0.400000           0   0.00000       0.00000    
     32101 TIP3     1179     SWM4     OM       LPDW     -1.11466       0.00000          -1   0.00000       0.00000    
     32102 TIP3     1179     SWM4     H1       HDW      0.557330       1.00800           0   0.00000       0.00000    
     32103 TIP3     1179     SWM4     H2       HDW      0.557330       1.00800           0   0.00000       0.00000    
     32104 TIP3     1180     SWM4     OH2      ODW       1.71640       15.5994           0 -0.978253       1.30000    
     32105 TIP3     1180     SWM4     DOH2     DOH2     -1.71640      0.400000           0   0.00000       0.00000    
     32106 TIP3     1180     SWM4     OM       LPDW     -1.11466       0.00000          -1   0.00000       0.00000    
     32107 TIP3     1180     SWM4     H1       HDW      0.557330       1.00800           0   0.00000       0.00000    
     32108 TIP3     1180     SWM4     H2       HDW      0.557330       1.00800           0   0.00000       0.00000    
     32109 TIP3     1181     SWM4     OH2      ODW       1.71640       15.5994           0 -0.978253       1.30000    
     32110 TIP3     1181     SWM4     DOH2     DOH2     -1.71640      0.400000           0   0.00000       0.00000    
     32111 TIP3     1181     SWM4     OM       LPDW     -1.11466       0.00000          -1   0.00000       0.00000    
     32112 TIP3     1181     SWM4     H1       HDW      0.557330       1.00800           0   0.00000       0.00000    
     32113 TIP3     1181     SWM4     H2       HDW      0.557330       1.00800           0   0.00000       0.00000    
     32114 TIP3     1182     SWM4     OH2      ODW       1.71640       15.5994           0 -0.978253       1.30000    
     32115 TIP3     1182     SWM4     DOH2     DOH2     -1.71640      0.400000           0   0.00000       0.00000    
     32116 TIP3     1182     SWM4     OM       LPDW     -1.11466       0.00000          -1   0.00000       0.00000    
     32117 TIP3     1182     SWM4     H1       HDW      0.557330       1.00800           0   0.00000       0.00000    
     32118 TIP3     1182     SWM4     H2       HDW      0.557330       1.00800           0   0.00000       0.00000    
     32119 TIP3     1183     SWM4     OH2      ODW       1.71640       15.5994           0 -0.978253       1.30000    
     32120 TIP3     1183     SWM4     DOH2     DOH2     -1.71640      0.400000           0   0.00000       0.00000    
     32121 TIP3     1183     SWM4     OM       LPDW     -1.11466       0.00000          -1   0.00000       0.00000    
     32122 TIP3     1183     SWM4     H1       HDW      0.557330       1.00800           0   0.00000       0.00000    
     32123 TIP3     1183     SWM4     H2       HDW      0.557330       1.00800           0   0.00000       0.00000    
     32124 TIP3     1184     SWM4     OH2      ODW       1.71640       15.5994           0 -0.978253       1.30000    
     32125 TIP3     1184     SWM4     DOH2     DOH2     -1.71640      0.400000           0   0.00000       0.00000    
     32126 TIP3     1184     SWM4     OM       LPDW     -1.11466       0.00000          -1   0.00000       0.00000    
     32127 TIP3     1184     SWM4     H1       HDW      0.557330       1.00800           0   0.00000       0.00000    
     32128 TIP3     1184     SWM4     H2       HDW      0.557330       1.00800           0   0.00000       0.00000    
     32129 TIP3     1185     SWM4     OH2      ODW       1.71640       15.5994           0 -0.978253       1.30000    
     32130 TIP3     1185     SWM4     DOH2     DOH2     -1.71640      0.400000           0   0.00000       0.00000    
     32131 TIP3     1185     SWM4     OM       LPDW     -1.11466       0.00000          -1   0.00000       0.00000    
     32132 TIP3     1185     SWM4     H1       HDW      0.557330       1.00800           0   0.00000       0.00000    
     32133 TIP3     1185     SWM4     H2       HDW      0.557330       1.00800           0   0.00000       0.00000    
     32134 TIP3     1186     SWM4     OH2      ODW       1.71640       15.5994           0 -0.978253       1.30000    
     32135 TIP3     1186     SWM4     DOH2     DOH2     -1.71640      0.400000           0   0.00000       0.00000    
     32136 TIP3     1186     SWM4     OM       LPDW     -1.11466       0.00000          -1   0.00000       0.00000    
     32137 TIP3     1186     SWM4     H1       HDW      0.557330       1.00800           0   0.00000       0.00000    
     32138 TIP3     1186     SWM4     H2       HDW      0.557330       1.00800           0   0.00000       0.00000    
     32139 TIP3     1187     SWM4     OH2      ODW       1.71640       15.5994           0 -0.978253       1.30000    
     32140 TIP3     1187     SWM4     DOH2     DOH2     -1.71640      0.400000           0   0.00000       0.00000    
     32141 TIP3     1187     SWM4     OM       LPDW     -1.11466       0.00000          -1   0.00000       0.00000    
     32142 TIP3     1187     SWM4     H1       HDW      0.557330       1.00800           0   0.00000       0.00000    
     32143 TIP3     1187     SWM4     H2       HDW      0.557330       1.00800           0   0.00000       0.00000    
     32144 TIP3     1188     SWM4     OH2      ODW       1.71640       15.5994           0 -0.978253       1.30000    
     32145 TIP3     1188     SWM4     DOH2     DOH2     -1.71640      0.400000           0   0.00000       0.00000    
     32146 TIP3     1188     SWM4     OM       LPDW     -1.11466       0.00000          -1   0.00000       0.00000    
     32147 TIP3     1188     SWM4     H1       HDW      0.557330       1.00800           0   0.00000       0.00000    
     32148 TIP3     1188     SWM4     H2       HDW      0.557330       1.00800           0   0.00000       0.00000    
     32149 TIP3     1189     SWM4     OH2      ODW       1.71640       15.5994           0 -0.978253       1.30000    
     32150 TIP3     1189     SWM4     DOH2     DOH2     -1.71640      0.400000           0   0.00000       0.00000    
     32151 TIP3     1189     SWM4     OM       LPDW     -1.11466       0.00000          -1   0.00000       0.00000    
     32152 TIP3     1189     SWM4     H1       HDW      0.557330       1.00800           0   0.00000       0.00000    
     32153 TIP3     1189     SWM4     H2       HDW      0.557330       1.00800           0   0.00000       0.00000    
     32154 TIP3     1190     SWM4     OH2      ODW       1.71640       15.5994           0 -0.978253       1.30000    
     32155 TIP3     1190     SWM4     DOH2     DOH2     -1.71640      0.400000           0   0.00000       0.00000    
     32156 TIP3     1190     SWM4     OM       LPDW     -1.11466       0.00000          -1   0.00000       0.00000    
     32157 TIP3     1190     SWM4     H1       HDW      0.557330       1.00800           0   0.00000       0.00000    
     32158 TIP3     1190     SWM4     H2       HDW      0.557330       1.00800           0   0.00000       0.00000    
     32159 TIP3     1191     SWM4     OH2      ODW       1.71640       15.5994           0 -0.978253       1.30000    
     32160 TIP3     1191     SWM4     DOH2     DOH2     -1.71640      0.400000           0   0.00000       0.00000    
     32161 TIP3     1191     SWM4     OM       LPDW     -1.11466       0.00000          -1   0.00000       0.00000    
     32162 TIP3     1191     SWM4     H1       HDW      0.557330       1.00800           0   0.00000       0.00000    
     32163 TIP3     1191     SWM4     H2       HDW      0.557330       1.00800           0   0.00000       0.00000    
     32164 TIP3     1192     SWM4     OH2      ODW       1.71640       15.5994           0 -0.978253       1.30000    
     32165 TIP3     1192     SWM4     DOH2     DOH2     -1.71640      0.400000           0   0.00000       0.00000    
     32166 TIP3     1192     SWM4     OM       LPDW     -1.11466       0.00000          -1   0.00000       0.00000    
     32167 TIP3     1192     SWM4     H1       HDW      0.557330       1.00800           0   0.00000       0.00000    
     32168 TIP3     1192     SWM4     H2       HDW      0.557330       1.00800           0   0.00000       0.00000    
     32169 TIP3     1193     SWM4     OH2      ODW       1.71640       15.5994           0 -0.978253       1.30000    
     32170 TIP3     1193     SWM4     DOH2     DOH2     -1.71640      0.400000           0   0.00000       0.00000    
     32171 TIP3     1193     SWM4     OM       LPDW     -1.11466       0.00000          -1   0.00000       0.00000    
     32172 TIP3     1193     SWM4     H1       HDW      0.557330       1.00800           0   0.00000       0.00000    
     32173 TIP3     1193     SWM4     H2       HDW      0.557330       1.00800           0   0.00000       0.00000    
     32174 TIP3     1194     SWM4     OH2      ODW       1.71640       15.5994           0 -0.978253       1.30000    
     32175 TIP3     1194     SWM4     DOH2     DOH2     -1.71640      0.400000           0   0.00000       0.00000    
     32176 TIP3     1194     SWM4     OM       LPDW     -1.11466       0.00000          -1   0.00000       0.00000    
     32177 TIP3     1194     SWM4     H1       HDW      0.557330       1.00800           0   0.00000       0.00000    
     32178 TIP3     1194     SWM4     H2       HDW      0.557330       1.00800           0   0.00000       0.00000    
     32179 TIP3     1195     SWM4     OH2      ODW       1.71640       15.5994           0 -0.978253       1.30000    
     32180 TIP3     1195     SWM4     DOH2     DOH2     -1.71640      0.400000           0   0.00000       0.00000    
     32181 TIP3     1195     SWM4     OM       LPDW     -1.11466       0.00000          -1   0.00000       0.00000    
     32182 TIP3     1195     SWM4     H1       HDW      0.557330       1.00800           0   0.00000       0.00000    
     32183 TIP3     1195     SWM4     H2       HDW      0.557330       1.00800           0   0.00000       0.00000    
     32184 TIP3     1196     SWM4     OH2      ODW       1.71640       15.5994           0 -0.978253       1.30000    
     32185 TIP3     1196     SWM4     DOH2     DOH2     -1.71640      0.400000           0   0.00000       0.00000    
     32186 TIP3     1196     SWM4     OM       LPDW     -1.11466       0.00000          -1   0.00000       0.00000    
     32187 TIP3     1196     SWM4     H1       HDW      0.557330       1.00800           0   0.00000       0.00000    
     32188 TIP3     1196     SWM4     H2       HDW      0.557330       1.00800           0   0.00000       0.00000    
     32189 TIP3     1197     SWM4     OH2      ODW       1.71640       15.5994           0 -0.978253       1.30000    
     32190 TIP3     1197     SWM4     DOH2     DOH2     -1.71640      0.400000           0   0.00000       0.00000    
     32191 TIP3     1197     SWM4     OM       LPDW     -1.11466       0.00000          -1   0.00000       0.00000    
     32192 TIP3     1197     SWM4     H1       HDW      0.557330       1.00800           0   0.00000       0.00000    
     32193 TIP3     1197     SWM4     H2       HDW      0.557330       1.00800           0   0.00000       0.00000    
     32194 TIP3     1198     SWM4     OH2      ODW       1.71640       15.5994           0 -0.978253       1.30000    
     32195 TIP3     1198     SWM4     DOH2     DOH2     -1.71640      0.400000           0   0.00000       0.00000    
     32196 TIP3     1198     SWM4     OM       LPDW     -1.11466       0.00000          -1   0.00000       0.00000    
     32197 TIP3     1198     SWM4     H1       HDW      0.557330       1.00800           0   0.00000       0.00000    
     32198 TIP3     1198     SWM4     H2       HDW      0.557330       1.00800           0   0.00000       0.00000    
     32199 TIP3     1199     SWM4     OH2      ODW       1.71640       15.5994           0 -0.978253       1.30000    
     32200 TIP3     1199     SWM4     DOH2     DOH2     -1.71640      0.400000           0   0.00000       0.00000    
     32201 TIP3     1199     SWM4     OM       LPDW     -1.11466       0.00000          -1   0.00000       0.00000    
     32202 TIP3     1199     SWM4     H1       HDW      0.557330       1.00800           0   0.00000       0.00000    
     32203 TIP3     1199     SWM4     H2       HDW      0.557330       1.00800           0   0.00000       0.00000    
     32204 TIP3     1200     SWM4     OH2      ODW       1.71640       15.5994           0 -0.978253       1.30000    
     32205 TIP3     1200     SWM4     DOH2     DOH2     -1.71640      0.400000           0   0.00000       0.00000    
     32206 TIP3     1200     SWM4     OM       LPDW     -1.11466       0.00000          -1   0.00000       0.00000    
     32207 TIP3     1200     SWM4     H1       HDW      0.557330       1.00800           0   0.00000       0.00000    
     32208 TIP3     1200     SWM4     H2       HDW      0.557330       1.00800           0   0.00000       0.00000    
     32209 TIP3     1201     SWM4     OH2      ODW       1.71640       15.5994           0 -0.978253       1.30000    
     32210 TIP3     1201     SWM4     DOH2     DOH2     -1.71640      0.400000           0   0.00000       0.00000    
     32211 TIP3     1201     SWM4     OM       LPDW     -1.11466       0.00000          -1   0.00000       0.00000    
     32212 TIP3     1201     SWM4     H1       HDW      0.557330       1.00800           0   0.00000       0.00000    
     32213 TIP3     1201     SWM4     H2       HDW      0.557330       1.00800           0   0.00000       0.00000    
     32214 TIP3     1202     SWM4     OH2      ODW       1.71640       15.5994           0 -0.978253       1.30000    
     32215 TIP3     1202     SWM4     DOH2     DOH2     -1.71640      0.400000           0   0.00000       0.00000    
     32216 TIP3     1202     SWM4     OM       LPDW     -1.11466       0.00000          -1   0.00000       0.00000    
     32217 TIP3     1202     SWM4     H1       HDW      0.557330       1.00800           0   0.00000       0.00000    
     32218 TIP3     1202     SWM4     H2       HDW      0.557330       1.00800           0   0.00000       0.00000    
     32219 TIP3     1203     SWM4     OH2      ODW       1.71640       15.5994           0 -0.978253       1.30000    
     32220 TIP3     1203     SWM4     DOH2     DOH2     -1.71640      0.400000           0   0.00000       0.00000    
     32221 TIP3     1203     SWM4     OM       LPDW     -1.11466       0.00000          -1   0.00000       0.00000    
     32222 TIP3     1203     SWM4     H1       HDW      0.557330       1.00800           0   0.00000       0.00000    
     32223 TIP3     1203     SWM4     H2       HDW      0.557330       1.00800           0   0.00000       0.00000    
     32224 TIP3     1204     SWM4     OH2      ODW       1.71640       15.5994           0 -0.978253       1.30000    
     32225 TIP3     1204     SWM4     DOH2     DOH2     -1.71640      0.400000           0   0.00000       0.00000    
     32226 TIP3     1204     SWM4     OM       LPDW     -1.11466       0.00000          -1   0.00000       0.00000    
     32227 TIP3     1204     SWM4     H1       HDW      0.557330       1.00800           0   0.00000       0.00000    
     32228 TIP3     1204     SWM4     H2       HDW      0.557330       1.00800           0   0.00000       0.00000    
     32229 TIP3     1205     SWM4     OH2      ODW       1.71640       15.5994           0 -0.978253       1.30000    
     32230 TIP3     1205     SWM4     DOH2     DOH2     -1.71640      0.400000           0   0.00000       0.00000    
     32231 TIP3     1205     SWM4     OM       LPDW     -1.11466       0.00000          -1   0.00000       0.00000    
     32232 TIP3     1205     SWM4     H1       HDW      0.557330       1.00800           0   0.00000       0.00000    
     32233 TIP3     1205     SWM4     H2       HDW      0.557330       1.00800           0   0.00000       0.00000    
     32234 TIP3     1206     SWM4     OH2      ODW       1.71640       15.5994           0 -0.978253       1.30000    
     32235 TIP3     1206     SWM4     DOH2     DOH2     -1.71640      0.400000           0   0.00000       0.00000    
     32236 TIP3     1206     SWM4     OM       LPDW     -1.11466       0.00000          -1   0.00000       0.00000    
     32237 TIP3     1206     SWM4     H1       HDW      0.557330       1.00800           0   0.00000       0.00000    
     32238 TIP3     1206     SWM4     H2       HDW      0.557330       1.00800           0   0.00000       0.00000    
     32239 TIP3     1207     SWM4     OH2      ODW       1.71640       15.5994           0 -0.978253       1.30000    
     32240 TIP3     1207     SWM4     DOH2     DOH2     -1.71640      0.400000           0   0.00000       0.00000    
     32241 TIP3     1207     SWM4     OM       LPDW     -1.11466       0.00000          -1   0.00000       0.00000    
     32242 TIP3     1207     SWM4     H1       HDW      0.557330       1.00800           0   0.00000       0.00000    
     32243 TIP3     1207     SWM4     H2       HDW      0.557330       1.00800           0   0.00000       0.00000    
     32244 TIP3     1208     SWM4     OH2      ODW       1.71640       15.5994           0 -0.978253       1.30000    
     32245 TIP3     1208     SWM4     DOH2     DOH2     -1.71640      0.400000           0   0.00000       0.00000    
     32246 TIP3     1208     SWM4     OM       LPDW     -1.11466       0.00000          -1   0.00000       0.00000    
     32247 TIP3     1208     SWM4     H1       HDW      0.557330       1.00800           0   0.00000       0.00000    
     32248 TIP3     1208     SWM4     H2       HDW      0.557330       1.00800           0   0.00000       0.00000    
     32249 TIP3     1209     SWM4     OH2      ODW       1.71640       15.5994           0 -0.978253       1.30000    
     32250 TIP3     1209     SWM4     DOH2     DOH2     -1.71640      0.400000           0   0.00000       0.00000    
     32251 TIP3     1209     SWM4     OM       LPDW     -1.11466       0.00000          -1   0.00000       0.00000    
     32252 TIP3     1209     SWM4     H1       HDW      0.557330       1.00800           0   0.00000       0.00000    
     32253 TIP3     1209     SWM4     H2       HDW      0.557330       1.00800           0   0.00000       0.00000    
     32254 TIP3     1210     SWM4     OH2      ODW       1.71640       15.5994           0 -0.978253       1.30000    
     32255 TIP3     1210     SWM4     DOH2     DOH2     -1.71640      0.400000           0   0.00000       0.00000    
     32256 TIP3     1210     SWM4     OM       LPDW     -1.11466       0.00000          -1   0.00000       0.00000    
     32257 TIP3     1210     SWM4     H1       HDW      0.557330       1.00800           0   0.00000       0.00000    
     32258 TIP3     1210     SWM4     H2       HDW      0.557330       1.00800           0   0.00000       0.00000    
     32259 TIP3     1211     SWM4     OH2      ODW       1.71640       15.5994           0 -0.978253       1.30000    
     32260 TIP3     1211     SWM4     DOH2     DOH2     -1.71640      0.400000           0   0.00000       0.00000    
     32261 TIP3     1211     SWM4     OM       LPDW     -1.11466       0.00000          -1   0.00000       0.00000    
     32262 TIP3     1211     SWM4     H1       HDW      0.557330       1.00800           0   0.00000       0.00000    
     32263 TIP3     1211     SWM4     H2       HDW      0.557330       1.00800           0   0.00000       0.00000    
     32264 TIP3     1212     SWM4     OH2      ODW       1.71640       15.5994           0 -0.978253       1.30000    
     32265 TIP3     1212     SWM4     DOH2     DOH2     -1.71640      0.400000           0   0.00000       0.00000    
     32266 TIP3     1212     SWM4     OM       LPDW     -1.11466       0.00000          -1   0.00000       0.00000    
     32267 TIP3     1212     SWM4     H1       HDW      0.557330       1.00800           0   0.00000       0.00000    
     32268 TIP3     1212     SWM4     H2       HDW      0.557330       1.00800           0   0.00000       0.00000    
     32269 TIP3     1213     SWM4     OH2      ODW       1.71640       15.5994           0 -0.978253       1.30000    
     32270 TIP3     1213     SWM4     DOH2     DOH2     -1.71640      0.400000           0   0.00000       0.00000    
     32271 TIP3     1213     SWM4     OM       LPDW     -1.11466       0.00000          -1   0.00000       0.00000    
     32272 TIP3     1213     SWM4     H1       HDW      0.557330       1.00800           0   0.00000       0.00000    
     32273 TIP3     1213     SWM4     H2       HDW      0.557330       1.00800           0   0.00000       0.00000    
     32274 TIP3     1214     SWM4     OH2      ODW       1.71640       15.5994           0 -0.978253       1.30000    
     32275 TIP3     1214     SWM4     DOH2     DOH2     -1.71640      0.400000           0   0.00000       0.00000    
     32276 TIP3     1214     SWM4     OM       LPDW     -1.11466       0.00000          -1   0.00000       0.00000    
     32277 TIP3     1214     SWM4     H1       HDW      0.557330       1.00800           0   0.00000       0.00000    
     32278 TIP3     1214     SWM4     H2       HDW      0.557330       1.00800           0   0.00000       0.00000    
     32279 TIP3     1215     SWM4     OH2      ODW       1.71640       15.5994           0 -0.978253       1.30000    
     32280 TIP3     1215     SWM4     DOH2     DOH2     -1.71640      0.400000           0   0.00000       0.00000    
     32281 TIP3     1215     SWM4     OM       LPDW     -1.11466       0.00000          -1   0.00000       0.00000    
     32282 TIP3     1215     SWM4     H1       HDW      0.557330       1.00800           0   0.00000       0.00000    
     32283 TIP3     1215     SWM4     H2       HDW      0.557330       1.00800           0   0.00000       0.00000    
     32284 TIP3     1216     SWM4     OH2      ODW       1.71640       15.5994           0 -0.978253       1.30000    
     32285 TIP3     1216     SWM4     DOH2     DOH2     -1.71640      0.400000           0   0.00000       0.00000    
     32286 TIP3     1216     SWM4     OM       LPDW     -1.11466       0.00000          -1   0.00000       0.00000    
     32287 TIP3     1216     SWM4     H1       HDW      0.557330       1.00800           0   0.00000       0.00000    
     32288 TIP3     1216     SWM4     H2       HDW      0.557330       1.00800           0   0.00000       0.00000    
     32289 TIP3     1217     SWM4     OH2      ODW       1.71640       15.5994           0 -0.978253       1.30000    
     32290 TIP3     1217     SWM4     DOH2     DOH2     -1.71640      0.400000           0   0.00000       0.00000    
     32291 TIP3     1217     SWM4     OM       LPDW     -1.11466       0.00000          -1   0.00000       0.00000    
     32292 TIP3     1217     SWM4     H1       HDW      0.557330       1.00800           0   0.00000       0.00000    
     32293 TIP3     1217     SWM4     H2       HDW      0.557330       1.00800           0   0.00000       0.00000    
     32294 TIP3     1218     SWM4     OH2      ODW       1.71640       15.5994           0 -0.978253       1.30000    
     32295 TIP3     1218     SWM4     DOH2     DOH2     -1.71640      0.400000           0   0.00000       0.00000    
     32296 TIP3     1218     SWM4     OM       LPDW     -1.11466       0.00000          -1   0.00000       0.00000    
     32297 TIP3     1218     SWM4     H1       HDW      0.557330       1.00800           0   0.00000       0.00000    
     32298 TIP3     1218     SWM4     H2       HDW      0.557330       1.00800           0   0.00000       0.00000    
     32299 TIP3     1219     SWM4     OH2      ODW       1.71640       15.5994           0 -0.978253       1.30000    
     32300 TIP3     1219     SWM4     DOH2     DOH2     -1.71640      0.400000           0   0.00000       0.00000    
     32301 TIP3     1219     SWM4     OM       LPDW     -1.11466       0.00000          -1   0.00000       0.00000    
     32302 TIP3     1219     SWM4     H1       HDW      0.557330       1.00800           0   0.00000       0.00000    
     32303 TIP3     1219     SWM4     H2       HDW      0.557330       1.00800           0   0.00000       0.00000    
     32304 TIP3     1220     SWM4     OH2      ODW       1.71640       15.5994           0 -0.978253       1.30000    
     32305 TIP3     1220     SWM4     DOH2     DOH2     -1.71640      0.400000           0   0.00000       0.00000    
     32306 TIP3     1220     SWM4     OM       LPDW     -1.11466       0.00000          -1   0.00000       0.00000    
     32307 TIP3     1220     SWM4     H1       HDW      0.557330       1.00800           0   0.00000       0.00000    
     32308 TIP3     1220     SWM4     H2       HDW      0.557330       1.00800           0   0.00000       0.00000    
     32309 TIP3     1221     SWM4     OH2      ODW       1.71640       15.5994           0 -0.978253       1.30000    
     32310 TIP3     1221     SWM4     DOH2     DOH2     -1.71640      0.400000           0   0.00000       0.00000    
     32311 TIP3     1221     SWM4     OM       LPDW     -1.11466       0.00000          -1   0.00000       0.00000    
     32312 TIP3     1221     SWM4     H1       HDW      0.557330       1.00800           0   0.00000       0.00000    
     32313 TIP3     1221     SWM4     H2       HDW      0.557330       1.00800           0   0.00000       0.00000    
     32314 TIP3     1222     SWM4     OH2      ODW       1.71640       15.5994           0 -0.978253       1.30000    
     32315 TIP3     1222     SWM4     DOH2     DOH2     -1.71640      0.400000           0   0.00000       0.00000    
     32316 TIP3     1222     SWM4     OM       LPDW     -1.11466       0.00000          -1   0.00000       0.00000    
     32317 TIP3     1222     SWM4     H1       HDW      0.557330       1.00800           0   0.00000       0.00000    
     32318 TIP3     1222     SWM4     H2       HDW      0.557330       1.00800           0   0.00000       0.00000    
     32319 TIP3     1223     SWM4     OH2      ODW       1.71640       15.5994           0 -0.978253       1.30000    
     32320 TIP3     1223     SWM4     DOH2     DOH2     -1.71640      0.400000           0   0.00000       0.00000    
     32321 TIP3     1223     SWM4     OM       LPDW     -1.11466       0.00000          -1   0.00000       0.00000    
     32322 TIP3     1223     SWM4     H1       HDW      0.557330       1.00800           0   0.00000       0.00000    
     32323 TIP3     1223     SWM4     H2       HDW      0.557330       1.00800           0   0.00000       0.00000    
     32324 TIP3     1224     SWM4     OH2      ODW       1.71640       15.5994           0 -0.978253       1.30000    
     32325 TIP3     1224     SWM4     DOH2     DOH2     -1.71640      0.400000           0   0.00000       0.00000    
     32326 TIP3     1224     SWM4     OM       LPDW     -1.11466       0.00000          -1   0.00000       0.00000    
     32327 TIP3     1224     SWM4     H1       HDW      0.557330       1.00800           0   0.00000       0.00000    
     32328 TIP3     1224     SWM4     H2       HDW      0.557330       1.00800           0   0.00000       0.00000    
     32329 TIP3     1225     SWM4     OH2      ODW       1.71640       15.5994           0 -0.978253       1.30000    
     32330 TIP3     1225     SWM4     DOH2     DOH2     -1.71640      0.400000           0   0.00000       0.00000    
     32331 TIP3     1225     SWM4     OM       LPDW     -1.11466       0.00000          -1   0.00000       0.00000    
     32332 TIP3     1225     SWM4     H1       HDW      0.557330       1.00800           0   0.00000       0.00000    
     32333 TIP3     1225     SWM4     H2       HDW      0.557330       1.00800           0   0.00000       0.00000    
     32334 TIP3     1226     SWM4     OH2      ODW       1.71640       15.5994           0 -0.978253       1.30000    
     32335 TIP3     1226     SWM4     DOH2     DOH2     -1.71640      0.400000           0   0.00000       0.00000    
     32336 TIP3     1226     SWM4     OM       LPDW     -1.11466       0.00000          -1   0.00000       0.00000    
     32337 TIP3     1226     SWM4     H1       HDW      0.557330       1.00800           0   0.00000       0.00000    
     32338 TIP3     1226     SWM4     H2       HDW      0.557330       1.00800           0   0.00000       0.00000    
     32339 TIP3     1227     SWM4     OH2      ODW       1.71640       15.5994           0 -0.978253       1.30000    
     32340 TIP3     1227     SWM4     DOH2     DOH2     -1.71640      0.400000           0   0.00000       0.00000    
     32341 TIP3     1227     SWM4     OM       LPDW     -1.11466       0.00000          -1   0.00000       0.00000    
     32342 TIP3     1227     SWM4     H1       HDW      0.557330       1.00800           0   0.00000       0.00000    
     32343 TIP3     1227     SWM4     H2       HDW      0.557330       1.00800           0   0.00000       0.00000    
     32344 TIP3     1228     SWM4     OH2      ODW       1.71640       15.5994           0 -0.978253       1.30000    
     32345 TIP3     1228     SWM4     DOH2     DOH2     -1.71640      0.400000           0   0.00000       0.00000    
     32346 TIP3     1228     SWM4     OM       LPDW     -1.11466       0.00000          -1   0.00000       0.00000    
     32347 TIP3     1228     SWM4     H1       HDW      0.557330       1.00800           0   0.00000       0.00000    
     32348 TIP3     1228     SWM4     H2       HDW      0.557330       1.00800           0   0.00000       0.00000    
     32349 TIP3     1229     SWM4     OH2      ODW       1.71640       15.5994           0 -0.978253       1.30000    
     32350 TIP3     1229     SWM4     DOH2     DOH2     -1.71640      0.400000           0   0.00000       0.00000    
     32351 TIP3     1229     SWM4     OM       LPDW     -1.11466       0.00000          -1   0.00000       0.00000    
     32352 TIP3     1229     SWM4     H1       HDW      0.557330       1.00800           0   0.00000       0.00000    
     32353 TIP3     1229     SWM4     H2       HDW      0.557330       1.00800           0   0.00000       0.00000    
     32354 TIP3     1230     SWM4     OH2      ODW       1.71640       15.5994           0 -0.978253       1.30000    
     32355 TIP3     1230     SWM4     DOH2     DOH2     -1.71640      0.400000           0   0.00000       0.00000    
     32356 TIP3     1230     SWM4     OM       LPDW     -1.11466       0.00000          -1   0.00000       0.00000    
     32357 TIP3     1230     SWM4     H1       HDW      0.557330       1.00800           0   0.00000       0.00000    
     32358 TIP3     1230     SWM4     H2       HDW      0.557330       1.00800           0   0.00000       0.00000    
     32359 TIP3     1231     SWM4     OH2      ODW       1.71640       15.5994           0 -0.978253       1.30000    
     32360 TIP3     1231     SWM4     DOH2     DOH2     -1.71640      0.400000           0   0.00000       0.00000    
     32361 TIP3     1231     SWM4     OM       LPDW     -1.11466       0.00000          -1   0.00000       0.00000    
     32362 TIP3     1231     SWM4     H1       HDW      0.557330       1.00800           0   0.00000       0.00000    
     32363 TIP3     1231     SWM4     H2       HDW      0.557330       1.00800           0   0.00000       0.00000    
     32364 TIP3     1232     SWM4     OH2      ODW       1.71640       15.5994           0 -0.978253       1.30000    
     32365 TIP3     1232     SWM4     DOH2     DOH2     -1.71640      0.400000           0   0.00000       0.00000    
     32366 TIP3     1232     SWM4     OM       LPDW     -1.11466       0.00000          -1   0.00000       0.00000    
     32367 TIP3     1232     SWM4     H1       HDW      0.557330       1.00800           0   0.00000       0.00000    
     32368 TIP3     1232     SWM4     H2       HDW      0.557330       1.00800           0   0.00000       0.00000    
     32369 TIP3     1233     SWM4     OH2      ODW       1.71640       15.5994           0 -0.978253       1.30000    
     32370 TIP3     1233     SWM4     DOH2     DOH2     -1.71640      0.400000           0   0.00000       0.00000    
     32371 TIP3     1233     SWM4     OM       LPDW     -1.11466       0.00000          -1   0.00000       0.00000    
     32372 TIP3     1233     SWM4     H1       HDW      0.557330       1.00800           0   0.00000       0.00000    
     32373 TIP3     1233     SWM4     H2       HDW      0.557330       1.00800           0   0.00000       0.00000    
     32374 TIP3     1234     SWM4     OH2      ODW       1.71640       15.5994           0 -0.978253       1.30000    
     32375 TIP3     1234     SWM4     DOH2     DOH2     -1.71640      0.400000           0   0.00000       0.00000    
     32376 TIP3     1234     SWM4     OM       LPDW     -1.11466       0.00000          -1   0.00000       0.00000    
     32377 TIP3     1234     SWM4     H1       HDW      0.557330       1.00800           0   0.00000       0.00000    
     32378 TIP3     1234     SWM4     H2       HDW      0.557330       1.00800           0   0.00000       0.00000    
     32379 TIP3     1235     SWM4     OH2      ODW       1.71640       15.5994           0 -0.978253       1.30000    
     32380 TIP3     1235     SWM4     DOH2     DOH2     -1.71640      0.400000           0   0.00000       0.00000    
     32381 TIP3     1235     SWM4     OM       LPDW     -1.11466       0.00000          -1   0.00000       0.00000    
     32382 TIP3     1235     SWM4     H1       HDW      0.557330       1.00800           0   0.00000       0.00000    
     32383 TIP3     1235     SWM4     H2       HDW      0.557330       1.00800           0   0.00000       0.00000    
     32384 TIP3     1236     SWM4     OH2      ODW       1.71640       15.5994           0 -0.978253       1.30000    
     32385 TIP3     1236     SWM4     DOH2     DOH2     -1.71640      0.400000           0   0.00000       0.00000    
     32386 TIP3     1236     SWM4     OM       LPDW     -1.11466       0.00000          -1   0.00000       0.00000    
     32387 TIP3     1236     SWM4     H1       HDW      0.557330       1.00800           0   0.00000       0.00000    
     32388 TIP3     1236     SWM4     H2       HDW      0.557330       1.00800           0   0.00000       0.00000    
     32389 TIP3     1237     SWM4     OH2      ODW       1.71640       15.5994           0 -0.978253       1.30000    
     32390 TIP3     1237     SWM4     DOH2     DOH2     -1.71640      0.400000           0   0.00000       0.00000    
     32391 TIP3     1237     SWM4     OM       LPDW     -1.11466       0.00000          -1   0.00000       0.00000    
     32392 TIP3     1237     SWM4     H1       HDW      0.557330       1.00800           0   0.00000       0.00000    
     32393 TIP3     1237     SWM4     H2       HDW      0.557330       1.00800           0   0.00000       0.00000    
     32394 TIP3     1238     SWM4     OH2      ODW       1.71640       15.5994           0 -0.978253       1.30000    
     32395 TIP3     1238     SWM4     DOH2     DOH2     -1.71640      0.400000           0   0.00000       0.00000    
     32396 TIP3     1238     SWM4     OM       LPDW     -1.11466       0.00000          -1   0.00000       0.00000    
     32397 TIP3     1238     SWM4     H1       HDW      0.557330       1.00800           0   0.00000       0.00000    
     32398 TIP3     1238     SWM4     H2       HDW      0.557330       1.00800           0   0.00000       0.00000    
     32399 TIP3     1239     SWM4     OH2      ODW       1.71640       15.5994           0 -0.978253       1.30000    
     32400 TIP3     1239     SWM4     DOH2     DOH2     -1.71640      0.400000           0   0.00000       0.00000    
     32401 TIP3     1239     SWM4     OM       LPDW     -1.11466       0.00000          -1   0.00000       0.00000    
     32402 TIP3     1239     SWM4     H1       HDW      0.557330       1.00800           0   0.00000       0.00000    
     32403 TIP3     1239     SWM4     H2       HDW      0.557330       1.00800           0   0.00000       0.00000    
     32404 TIP3     1240     SWM4     OH2      ODW       1.71640       15.5994           0 -0.978253       1.30000    
     32405 TIP3     1240     SWM4     DOH2     DOH2     -1.71640      0.400000           0   0.00000       0.00000    
     32406 TIP3     1240     SWM4     OM       LPDW     -1.11466       0.00000          -1   0.00000       0.00000    
     32407 TIP3     1240     SWM4     H1       HDW      0.557330       1.00800           0   0.00000       0.00000    
     32408 TIP3     1240     SWM4     H2       HDW      0.557330       1.00800           0   0.00000       0.00000    
     32409 TIP3     1241     SWM4     OH2      ODW       1.71640       15.5994           0 -0.978253       1.30000    
     32410 TIP3     1241     SWM4     DOH2     DOH2     -1.71640      0.400000           0   0.00000       0.00000    
     32411 TIP3     1241     SWM4     OM       LPDW     -1.11466       0.00000          -1   0.00000       0.00000    
     32412 TIP3     1241     SWM4     H1       HDW      0.557330       1.00800           0   0.00000       0.00000    
     32413 TIP3     1241     SWM4     H2       HDW      0.557330       1.00800           0   0.00000       0.00000    
     32414 TIP3     1242     SWM4     OH2      ODW       1.71640       15.5994           0 -0.978253       1.30000    
     32415 TIP3     1242     SWM4     DOH2     DOH2     -1.71640      0.400000           0   0.00000       0.00000    
     32416 TIP3     1242     SWM4     OM       LPDW     -1.11466       0.00000          -1   0.00000       0.00000    
     32417 TIP3     1242     SWM4     H1       HDW      0.557330       1.00800           0   0.00000       0.00000    
     32418 TIP3     1242     SWM4     H2       HDW      0.557330       1.00800           0   0.00000       0.00000    
     32419 TIP3     1243     SWM4     OH2      ODW       1.71640       15.5994           0 -0.978253       1.30000    
     32420 TIP3     1243     SWM4     DOH2     DOH2     -1.71640      0.400000           0   0.00000       0.00000    
     32421 TIP3     1243     SWM4     OM       LPDW     -1.11466       0.00000          -1   0.00000       0.00000    
     32422 TIP3     1243     SWM4     H1       HDW      0.557330       1.00800           0   0.00000       0.00000    
     32423 TIP3     1243     SWM4     H2       HDW      0.557330       1.00800           0   0.00000       0.00000    
     32424 TIP3     1244     SWM4     OH2      ODW       1.71640       15.5994           0 -0.978253       1.30000    
     32425 TIP3     1244     SWM4     DOH2     DOH2     -1.71640      0.400000           0   0.00000       0.00000    
     32426 TIP3     1244     SWM4     OM       LPDW     -1.11466       0.00000          -1   0.00000       0.00000    
     32427 TIP3     1244     SWM4     H1       HDW      0.557330       1.00800           0   0.00000       0.00000    
     32428 TIP3     1244     SWM4     H2       HDW      0.557330       1.00800           0   0.00000       0.00000    
     32429 TIP3     1245     SWM4     OH2      ODW       1.71640       15.5994           0 -0.978253       1.30000    
     32430 TIP3     1245     SWM4     DOH2     DOH2     -1.71640      0.400000           0   0.00000       0.00000    
     32431 TIP3     1245     SWM4     OM       LPDW     -1.11466       0.00000          -1   0.00000       0.00000    
     32432 TIP3     1245     SWM4     H1       HDW      0.557330       1.00800           0   0.00000       0.00000    
     32433 TIP3     1245     SWM4     H2       HDW      0.557330       1.00800           0   0.00000       0.00000    
     32434 TIP3     1246     SWM4     OH2      ODW       1.71640       15.5994           0 -0.978253       1.30000    
     32435 TIP3     1246     SWM4     DOH2     DOH2     -1.71640      0.400000           0   0.00000       0.00000    
     32436 TIP3     1246     SWM4     OM       LPDW     -1.11466       0.00000          -1   0.00000       0.00000    
     32437 TIP3     1246     SWM4     H1       HDW      0.557330       1.00800           0   0.00000       0.00000    
     32438 TIP3     1246     SWM4     H2       HDW      0.557330       1.00800           0   0.00000       0.00000    
     32439 TIP3     1247     SWM4     OH2      ODW       1.71640       15.5994           0 -0.978253       1.30000    
     32440 TIP3     1247     SWM4     DOH2     DOH2     -1.71640      0.400000           0   0.00000       0.00000    
     32441 TIP3     1247     SWM4     OM       LPDW     -1.11466       0.00000          -1   0.00000       0.00000    
     32442 TIP3     1247     SWM4     H1       HDW      0.557330       1.00800           0   0.00000       0.00000    
     32443 TIP3     1247     SWM4     H2       HDW      0.557330       1.00800           0   0.00000       0.00000    
     32444 TIP3     1248     SWM4     OH2      ODW       1.71640       15.5994           0 -0.978253       1.30000    
     32445 TIP3     1248     SWM4     DOH2     DOH2     -1.71640      0.400000           0   0.00000       0.00000    
     32446 TIP3     1248     SWM4     OM       LPDW     -1.11466       0.00000          -1   0.00000       0.00000    
     32447 TIP3     1248     SWM4     H1       HDW      0.557330       1.00800           0   0.00000       0.00000    
     32448 TIP3     1248     SWM4     H2       HDW      0.557330       1.00800           0   0.00000       0.00000    
     32449 TIP3     1249     SWM4     OH2      ODW       1.71640       15.5994           0 -0.978253       1.30000    
     32450 TIP3     1249     SWM4     DOH2     DOH2     -1.71640      0.400000           0   0.00000       0.00000    
     32451 TIP3     1249     SWM4     OM       LPDW     -1.11466       0.00000          -1   0.00000       0.00000    
     32452 TIP3     1249     SWM4     H1       HDW      0.557330       1.00800           0   0.00000       0.00000    
     32453 TIP3     1249     SWM4     H2       HDW      0.557330       1.00800           0   0.00000       0.00000    
     32454 TIP3     1250     SWM4     OH2      ODW       1.71640       15.5994           0 -0.978253       1.30000    
     32455 TIP3     1250     SWM4     DOH2     DOH2     -1.71640      0.400000           0   0.00000       0.00000    
     32456 TIP3     1250     SWM4     OM       LPDW     -1.11466       0.00000          -1   0.00000       0.00000    
     32457 TIP3     1250     SWM4     H1       HDW      0.557330       1.00800           0   0.00000       0.00000    
     32458 TIP3     1250     SWM4     H2       HDW      0.557330       1.00800           0   0.00000       0.00000    
     32459 TIP3     1251     SWM4     OH2      ODW       1.71640       15.5994           0 -0.978253       1.30000    
     32460 TIP3     1251     SWM4     DOH2     DOH2     -1.71640      0.400000           0   0.00000       0.00000    
     32461 TIP3     1251     SWM4     OM       LPDW     -1.11466       0.00000          -1   0.00000       0.00000    
     32462 TIP3     1251     SWM4     H1       HDW      0.557330       1.00800           0   0.00000       0.00000    
     32463 TIP3     1251     SWM4     H2       HDW      0.557330       1.00800           0   0.00000       0.00000    
     32464 TIP3     1252     SWM4     OH2      ODW       1.71640       15.5994           0 -0.978253       1.30000    
     32465 TIP3     1252     SWM4     DOH2     DOH2     -1.71640      0.400000           0   0.00000       0.00000    
     32466 TIP3     1252     SWM4     OM       LPDW     -1.11466       0.00000          -1   0.00000       0.00000    
     32467 TIP3     1252     SWM4     H1       HDW      0.557330       1.00800           0   0.00000       0.00000    
     32468 TIP3     1252     SWM4     H2       HDW      0.557330       1.00800           0   0.00000       0.00000    
     32469 TIP3     1253     SWM4     OH2      ODW       1.71640       15.5994           0 -0.978253       1.30000    
     32470 TIP3     1253     SWM4     DOH2     DOH2     -1.71640      0.400000           0   0.00000       0.00000    
     32471 TIP3     1253     SWM4     OM       LPDW     -1.11466       0.00000          -1   0.00000       0.00000    
     32472 TIP3     1253     SWM4     H1       HDW      0.557330       1.00800           0   0.00000       0.00000    
     32473 TIP3     1253     SWM4     H2       HDW      0.557330       1.00800           0   0.00000       0.00000    
     32474 TIP3     1254     SWM4     OH2      ODW       1.71640       15.5994           0 -0.978253       1.30000    
     32475 TIP3     1254     SWM4     DOH2     DOH2     -1.71640      0.400000           0   0.00000       0.00000    
     32476 TIP3     1254     SWM4     OM       LPDW     -1.11466       0.00000          -1   0.00000       0.00000    
     32477 TIP3     1254     SWM4     H1       HDW      0.557330       1.00800           0   0.00000       0.00000    
     32478 TIP3     1254     SWM4     H2       HDW      0.557330       1.00800           0   0.00000       0.00000    
     32479 TIP3     1255     SWM4     OH2      ODW       1.71640       15.5994           0 -0.978253       1.30000    
     32480 TIP3     1255     SWM4     DOH2     DOH2     -1.71640      0.400000           0   0.00000       0.00000    
     32481 TIP3     1255     SWM4     OM       LPDW     -1.11466       0.00000          -1   0.00000       0.00000    
     32482 TIP3     1255     SWM4     H1       HDW      0.557330       1.00800           0   0.00000       0.00000    
     32483 TIP3     1255     SWM4     H2       HDW      0.557330       1.00800           0   0.00000       0.00000    
     32484 TIP3     1256     SWM4     OH2      ODW       1.71640       15.5994           0 -0.978253       1.30000    
     32485 TIP3     1256     SWM4     DOH2     DOH2     -1.71640      0.400000           0   0.00000       0.00000    
     32486 TIP3     1256     SWM4     OM       LPDW     -1.11466       0.00000          -1   0.00000       0.00000    
     32487 TIP3     1256     SWM4     H1       HDW      0.557330       1.00800           0   0.00000       0.00000    
     32488 TIP3     1256     SWM4     H2       HDW      0.557330       1.00800           0   0.00000       0.00000    
     32489 TIP3     1257     SWM4     OH2      ODW       1.71640       15.5994           0 -0.978253       1.30000    
     32490 TIP3     1257     SWM4     DOH2     DOH2     -1.71640      0.400000           0   0.00000       0.00000    
     32491 TIP3     1257     SWM4     OM       LPDW     -1.11466       0.00000          -1   0.00000       0.00000    
     32492 TIP3     1257     SWM4     H1       HDW      0.557330       1.00800           0   0.00000       0.00000    
     32493 TIP3     1257     SWM4     H2       HDW      0.557330       1.00800           0   0.00000       0.00000    
     32494 TIP3     1258     SWM4     OH2      ODW       1.71640       15.5994           0 -0.978253       1.30000    
     32495 TIP3     1258     SWM4     DOH2     DOH2     -1.71640      0.400000           0   0.00000       0.00000    
     32496 TIP3     1258     SWM4     OM       LPDW     -1.11466       0.00000          -1   0.00000       0.00000    
     32497 TIP3     1258     SWM4     H1       HDW      0.557330       1.00800           0   0.00000       0.00000    
     32498 TIP3     1258     SWM4     H2       HDW      0.557330       1.00800           0   0.00000       0.00000    
     32499 TIP3     1259     SWM4     OH2      ODW       1.71640       15.5994           0 -0.978253       1.30000    
     32500 TIP3     1259     SWM4     DOH2     DOH2     -1.71640      0.400000           0   0.00000       0.00000    
     32501 TIP3     1259     SWM4     OM       LPDW     -1.11466       0.00000          -1   0.00000       0.00000    
     32502 TIP3     1259     SWM4     H1       HDW      0.557330       1.00800           0   0.00000       0.00000    
     32503 TIP3     1259     SWM4     H2       HDW      0.557330       1.00800           0   0.00000       0.00000    
     32504 TIP3     1260     SWM4     OH2      ODW       1.71640       15.5994           0 -0.978253       1.30000    
     32505 TIP3     1260     SWM4     DOH2     DOH2     -1.71640      0.400000           0   0.00000       0.00000    
     32506 TIP3     1260     SWM4     OM       LPDW     -1.11466       0.00000          -1   0.00000       0.00000    
     32507 TIP3     1260     SWM4     H1       HDW      0.557330       1.00800           0   0.00000       0.00000    
     32508 TIP3     1260     SWM4     H2       HDW      0.557330       1.00800           0   0.00000       0.00000    
     32509 TIP3     1261     SWM4     OH2      ODW       1.71640       15.5994           0 -0.978253       1.30000    
     32510 TIP3     1261     SWM4     DOH2     DOH2     -1.71640      0.400000           0   0.00000       0.00000    
     32511 TIP3     1261     SWM4     OM       LPDW     -1.11466       0.00000          -1   0.00000       0.00000    
     32512 TIP3     1261     SWM4     H1       HDW      0.557330       1.00800           0   0.00000       0.00000    
     32513 TIP3     1261     SWM4     H2       HDW      0.557330       1.00800           0   0.00000       0.00000    
     32514 TIP3     1262     SWM4     OH2      ODW       1.71640       15.5994           0 -0.978253       1.30000    
     32515 TIP3     1262     SWM4     DOH2     DOH2     -1.71640      0.400000           0   0.00000       0.00000    
     32516 TIP3     1262     SWM4     OM       LPDW     -1.11466       0.00000          -1   0.00000       0.00000    
     32517 TIP3     1262     SWM4     H1       HDW      0.557330       1.00800           0   0.00000       0.00000    
     32518 TIP3     1262     SWM4     H2       HDW      0.557330       1.00800           0   0.00000       0.00000    
     32519 TIP3     1263     SWM4     OH2      ODW       1.71640       15.5994           0 -0.978253       1.30000    
     32520 TIP3     1263     SWM4     DOH2     DOH2     -1.71640      0.400000           0   0.00000       0.00000    
     32521 TIP3     1263     SWM4     OM       LPDW     -1.11466       0.00000          -1   0.00000       0.00000    
     32522 TIP3     1263     SWM4     H1       HDW      0.557330       1.00800           0   0.00000       0.00000    
     32523 TIP3     1263     SWM4     H2       HDW      0.557330       1.00800           0   0.00000       0.00000    
     32524 TIP3     1264     SWM4     OH2      ODW       1.71640       15.5994           0 -0.978253       1.30000    
     32525 TIP3     1264     SWM4     DOH2     DOH2     -1.71640      0.400000           0   0.00000       0.00000    
     32526 TIP3     1264     SWM4     OM       LPDW     -1.11466       0.00000          -1   0.00000       0.00000    
     32527 TIP3     1264     SWM4     H1       HDW      0.557330       1.00800           0   0.00000       0.00000    
     32528 TIP3     1264     SWM4     H2       HDW      0.557330       1.00800           0   0.00000       0.00000    
     32529 TIP3     1265     SWM4     OH2      ODW       1.71640       15.5994           0 -0.978253       1.30000    
     32530 TIP3     1265     SWM4     DOH2     DOH2     -1.71640      0.400000           0   0.00000       0.00000    
     32531 TIP3     1265     SWM4     OM       LPDW     -1.11466       0.00000          -1   0.00000       0.00000    
     32532 TIP3     1265     SWM4     H1       HDW      0.557330       1.00800           0   0.00000       0.00000    
     32533 TIP3     1265     SWM4     H2       HDW      0.557330       1.00800           0   0.00000       0.00000    
     32534 TIP3     1266     SWM4     OH2      ODW       1.71640       15.5994           0 -0.978253       1.30000    
     32535 TIP3     1266     SWM4     DOH2     DOH2     -1.71640      0.400000           0   0.00000       0.00000    
     32536 TIP3     1266     SWM4     OM       LPDW     -1.11466       0.00000          -1   0.00000       0.00000    
     32537 TIP3     1266     SWM4     H1       HDW      0.557330       1.00800           0   0.00000       0.00000    
     32538 TIP3     1266     SWM4     H2       HDW      0.557330       1.00800           0   0.00000       0.00000    
     32539 TIP3     1267     SWM4     OH2      ODW       1.71640       15.5994           0 -0.978253       1.30000    
     32540 TIP3     1267     SWM4     DOH2     DOH2     -1.71640      0.400000           0   0.00000       0.00000    
     32541 TIP3     1267     SWM4     OM       LPDW     -1.11466       0.00000          -1   0.00000       0.00000    
     32542 TIP3     1267     SWM4     H1       HDW      0.557330       1.00800           0   0.00000       0.00000    
     32543 TIP3     1267     SWM4     H2       HDW      0.557330       1.00800           0   0.00000       0.00000    
     32544 TIP3     1268     SWM4     OH2      ODW       1.71640       15.5994           0 -0.978253       1.30000    
     32545 TIP3     1268     SWM4     DOH2     DOH2     -1.71640      0.400000           0   0.00000       0.00000    
     32546 TIP3     1268     SWM4     OM       LPDW     -1.11466       0.00000          -1   0.00000       0.00000    
     32547 TIP3     1268     SWM4     H1       HDW      0.557330       1.00800           0   0.00000       0.00000    
     32548 TIP3     1268     SWM4     H2       HDW      0.557330       1.00800           0   0.00000       0.00000    
     32549 TIP3     1269     SWM4     OH2      ODW       1.71640       15.5994           0 -0.978253       1.30000    
     32550 TIP3     1269     SWM4     DOH2     DOH2     -1.71640      0.400000           0   0.00000       0.00000    
     32551 TIP3     1269     SWM4     OM       LPDW     -1.11466       0.00000          -1   0.00000       0.00000    
     32552 TIP3     1269     SWM4     H1       HDW      0.557330       1.00800           0   0.00000       0.00000    
     32553 TIP3     1269     SWM4     H2       HDW      0.557330       1.00800           0   0.00000       0.00000    
     32554 TIP3     1270     SWM4     OH2      ODW       1.71640       15.5994           0 -0.978253       1.30000    
     32555 TIP3     1270     SWM4     DOH2     DOH2     -1.71640      0.400000           0   0.00000       0.00000    
     32556 TIP3     1270     SWM4     OM       LPDW     -1.11466       0.00000          -1   0.00000       0.00000    
     32557 TIP3     1270     SWM4     H1       HDW      0.557330       1.00800           0   0.00000       0.00000    
     32558 TIP3     1270     SWM4     H2       HDW      0.557330       1.00800           0   0.00000       0.00000    
     32559 TIP3     1271     SWM4     OH2      ODW       1.71640       15.5994           0 -0.978253       1.30000    
     32560 TIP3     1271     SWM4     DOH2     DOH2     -1.71640      0.400000           0   0.00000       0.00000    
     32561 TIP3     1271     SWM4     OM       LPDW     -1.11466       0.00000          -1   0.00000       0.00000    
     32562 TIP3     1271     SWM4     H1       HDW      0.557330       1.00800           0   0.00000       0.00000    
     32563 TIP3     1271     SWM4     H2       HDW      0.557330       1.00800           0   0.00000       0.00000    
     32564 TIP3     1272     SWM4     OH2      ODW       1.71640       15.5994           0 -0.978253       1.30000    
     32565 TIP3     1272     SWM4     DOH2     DOH2     -1.71640      0.400000           0   0.00000       0.00000    
     32566 TIP3     1272     SWM4     OM       LPDW     -1.11466       0.00000          -1   0.00000       0.00000    
     32567 TIP3     1272     SWM4     H1       HDW      0.557330       1.00800           0   0.00000       0.00000    
     32568 TIP3     1272     SWM4     H2       HDW      0.557330       1.00800           0   0.00000       0.00000    
     32569 TIP3     1273     SWM4     OH2      ODW       1.71640       15.5994           0 -0.978253       1.30000    
     32570 TIP3     1273     SWM4     DOH2     DOH2     -1.71640      0.400000           0   0.00000       0.00000    
     32571 TIP3     1273     SWM4     OM       LPDW     -1.11466       0.00000          -1   0.00000       0.00000    
     32572 TIP3     1273     SWM4     H1       HDW      0.557330       1.00800           0   0.00000       0.00000    
     32573 TIP3     1273     SWM4     H2       HDW      0.557330       1.00800           0   0.00000       0.00000    
     32574 TIP3     1274     SWM4     OH2      ODW       1.71640       15.5994           0 -0.978253       1.30000    
     32575 TIP3     1274     SWM4     DOH2     DOH2     -1.71640      0.400000           0   0.00000       0.00000    
     32576 TIP3     1274     SWM4     OM       LPDW     -1.11466       0.00000          -1   0.00000       0.00000    
     32577 TIP3     1274     SWM4     H1       HDW      0.557330       1.00800           0   0.00000       0.00000    
     32578 TIP3     1274     SWM4     H2       HDW      0.557330       1.00800           0   0.00000       0.00000    
     32579 TIP3     1275     SWM4     OH2      ODW       1.71640       15.5994           0 -0.978253       1.30000    
     32580 TIP3     1275     SWM4     DOH2     DOH2     -1.71640      0.400000           0   0.00000       0.00000    
     32581 TIP3     1275     SWM4     OM       LPDW     -1.11466       0.00000          -1   0.00000       0.00000    
     32582 TIP3     1275     SWM4     H1       HDW      0.557330       1.00800           0   0.00000       0.00000    
     32583 TIP3     1275     SWM4     H2       HDW      0.557330       1.00800           0   0.00000       0.00000    
     32584 TIP3     1276     SWM4     OH2      ODW       1.71640       15.5994           0 -0.978253       1.30000    
     32585 TIP3     1276     SWM4     DOH2     DOH2     -1.71640      0.400000           0   0.00000       0.00000    
     32586 TIP3     1276     SWM4     OM       LPDW     -1.11466       0.00000          -1   0.00000       0.00000    
     32587 TIP3     1276     SWM4     H1       HDW      0.557330       1.00800           0   0.00000       0.00000    
     32588 TIP3     1276     SWM4     H2       HDW      0.557330       1.00800           0   0.00000       0.00000    
     32589 TIP3     1277     SWM4     OH2      ODW       1.71640       15.5994           0 -0.978253       1.30000    
     32590 TIP3     1277     SWM4     DOH2     DOH2     -1.71640      0.400000           0   0.00000       0.00000    
     32591 TIP3     1277     SWM4     OM       LPDW     -1.11466       0.00000          -1   0.00000       0.00000    
     32592 TIP3     1277     SWM4     H1       HDW      0.557330       1.00800           0   0.00000       0.00000    
     32593 TIP3     1277     SWM4     H2       HDW      0.557330       1.00800           0   0.00000       0.00000    
     32594 TIP3     1278     SWM4     OH2      ODW       1.71640       15.5994           0 -0.978253       1.30000    
     32595 TIP3     1278     SWM4     DOH2     DOH2     -1.71640      0.400000           0   0.00000       0.00000    
     32596 TIP3     1278     SWM4     OM       LPDW     -1.11466       0.00000          -1   0.00000       0.00000    
     32597 TIP3     1278     SWM4     H1       HDW      0.557330       1.00800           0   0.00000       0.00000    
     32598 TIP3     1278     SWM4     H2       HDW      0.557330       1.00800           0   0.00000       0.00000    
     32599 TIP3     1279     SWM4     OH2      ODW       1.71640       15.5994           0 -0.978253       1.30000    
     32600 TIP3     1279     SWM4     DOH2     DOH2     -1.71640      0.400000           0   0.00000       0.00000    
     32601 TIP3     1279     SWM4     OM       LPDW     -1.11466       0.00000          -1   0.00000       0.00000    
     32602 TIP3     1279     SWM4     H1       HDW      0.557330       1.00800           0   0.00000       0.00000    
     32603 TIP3     1279     SWM4     H2       HDW      0.557330       1.00800           0   0.00000       0.00000    
     32604 TIP3     1280     SWM4     OH2      ODW       1.71640       15.5994           0 -0.978253       1.30000    
     32605 TIP3     1280     SWM4     DOH2     DOH2     -1.71640      0.400000           0   0.00000       0.00000    
     32606 TIP3     1280     SWM4     OM       LPDW     -1.11466       0.00000          -1   0.00000       0.00000    
     32607 TIP3     1280     SWM4     H1       HDW      0.557330       1.00800           0   0.00000       0.00000    
     32608 TIP3     1280     SWM4     H2       HDW      0.557330       1.00800           0   0.00000       0.00000    
     32609 TIP3     1281     SWM4     OH2      ODW       1.71640       15.5994           0 -0.978253       1.30000    
     32610 TIP3     1281     SWM4     DOH2     DOH2     -1.71640      0.400000           0   0.00000       0.00000    
     32611 TIP3     1281     SWM4     OM       LPDW     -1.11466       0.00000          -1   0.00000       0.00000    
     32612 TIP3     1281     SWM4     H1       HDW      0.557330       1.00800           0   0.00000       0.00000    
     32613 TIP3     1281     SWM4     H2       HDW      0.557330       1.00800           0   0.00000       0.00000    
     32614 TIP3     1282     SWM4     OH2      ODW       1.71640       15.5994           0 -0.978253       1.30000    
     32615 TIP3     1282     SWM4     DOH2     DOH2     -1.71640      0.400000           0   0.00000       0.00000    
     32616 TIP3     1282     SWM4     OM       LPDW     -1.11466       0.00000          -1   0.00000       0.00000    
     32617 TIP3     1282     SWM4     H1       HDW      0.557330       1.00800           0   0.00000       0.00000    
     32618 TIP3     1282     SWM4     H2       HDW      0.557330       1.00800           0   0.00000       0.00000    
     32619 TIP3     1283     SWM4     OH2      ODW       1.71640       15.5994           0 -0.978253       1.30000    
     32620 TIP3     1283     SWM4     DOH2     DOH2     -1.71640      0.400000           0   0.00000       0.00000    
     32621 TIP3     1283     SWM4     OM       LPDW     -1.11466       0.00000          -1   0.00000       0.00000    
     32622 TIP3     1283     SWM4     H1       HDW      0.557330       1.00800           0   0.00000       0.00000    
     32623 TIP3     1283     SWM4     H2       HDW      0.557330       1.00800           0   0.00000       0.00000    
     32624 TIP3     1284     SWM4     OH2      ODW       1.71640       15.5994           0 -0.978253       1.30000    
     32625 TIP3     1284     SWM4     DOH2     DOH2     -1.71640      0.400000           0   0.00000       0.00000    
     32626 TIP3     1284     SWM4     OM       LPDW     -1.11466       0.00000          -1   0.00000       0.00000    
     32627 TIP3     1284     SWM4     H1       HDW      0.557330       1.00800           0   0.00000       0.00000    
     32628 TIP3     1284     SWM4     H2       HDW      0.557330       1.00800           0   0.00000       0.00000    
     32629 TIP3     1285     SWM4     OH2      ODW       1.71640       15.5994           0 -0.978253       1.30000    
     32630 TIP3     1285     SWM4     DOH2     DOH2     -1.71640      0.400000           0   0.00000       0.00000    
     32631 TIP3     1285     SWM4     OM       LPDW     -1.11466       0.00000          -1   0.00000       0.00000    
     32632 TIP3     1285     SWM4     H1       HDW      0.557330       1.00800           0   0.00000       0.00000    
     32633 TIP3     1285     SWM4     H2       HDW      0.557330       1.00800           0   0.00000       0.00000    
     32634 TIP3     1286     SWM4     OH2      ODW       1.71640       15.5994           0 -0.978253       1.30000    
     32635 TIP3     1286     SWM4     DOH2     DOH2     -1.71640      0.400000           0   0.00000       0.00000    
     32636 TIP3     1286     SWM4     OM       LPDW     -1.11466       0.00000          -1   0.00000       0.00000    
     32637 TIP3     1286     SWM4     H1       HDW      0.557330       1.00800           0   0.00000       0.00000    
     32638 TIP3     1286     SWM4     H2       HDW      0.557330       1.00800           0   0.00000       0.00000    
     32639 TIP3     1287     SWM4     OH2      ODW       1.71640       15.5994           0 -0.978253       1.30000    
     32640 TIP3     1287     SWM4     DOH2     DOH2     -1.71640      0.400000           0   0.00000       0.00000    
     32641 TIP3     1287     SWM4     OM       LPDW     -1.11466       0.00000          -1   0.00000       0.00000    
     32642 TIP3     1287     SWM4     H1       HDW      0.557330       1.00800           0   0.00000       0.00000    
     32643 TIP3     1287     SWM4     H2       HDW      0.557330       1.00800           0   0.00000       0.00000    
     32644 TIP3     1288     SWM4     OH2      ODW       1.71640       15.5994           0 -0.978253       1.30000    
     32645 TIP3     1288     SWM4     DOH2     DOH2     -1.71640      0.400000           0   0.00000       0.00000    
     32646 TIP3     1288     SWM4     OM       LPDW     -1.11466       0.00000          -1   0.00000       0.00000    
     32647 TIP3     1288     SWM4     H1       HDW      0.557330       1.00800           0   0.00000       0.00000    
     32648 TIP3     1288     SWM4     H2       HDW      0.557330       1.00800           0   0.00000       0.00000    
     32649 TIP3     1289     SWM4     OH2      ODW       1.71640       15.5994           0 -0.978253       1.30000    
     32650 TIP3     1289     SWM4     DOH2     DOH2     -1.71640      0.400000           0   0.00000       0.00000    
     32651 TIP3     1289     SWM4     OM       LPDW     -1.11466       0.00000          -1   0.00000       0.00000    
     32652 TIP3     1289     SWM4     H1       HDW      0.557330       1.00800           0   0.00000       0.00000    
     32653 TIP3     1289     SWM4     H2       HDW      0.557330       1.00800           0   0.00000       0.00000    
     32654 TIP3     1290     SWM4     OH2      ODW       1.71640       15.5994           0 -0.978253       1.30000    
     32655 TIP3     1290     SWM4     DOH2     DOH2     -1.71640      0.400000           0   0.00000       0.00000    
     32656 TIP3     1290     SWM4     OM       LPDW     -1.11466       0.00000          -1   0.00000       0.00000    
     32657 TIP3     1290     SWM4     H1       HDW      0.557330       1.00800           0   0.00000       0.00000    
     32658 TIP3     1290     SWM4     H2       HDW      0.557330       1.00800           0   0.00000       0.00000    
     32659 TIP3     1291     SWM4     OH2      ODW       1.71640       15.5994           0 -0.978253       1.30000    
     32660 TIP3     1291     SWM4     DOH2     DOH2     -1.71640      0.400000           0   0.00000       0.00000    
     32661 TIP3     1291     SWM4     OM       LPDW     -1.11466       0.00000          -1   0.00000       0.00000    
     32662 TIP3     1291     SWM4     H1       HDW      0.557330       1.00800           0   0.00000       0.00000    
     32663 TIP3     1291     SWM4     H2       HDW      0.557330       1.00800           0   0.00000       0.00000    
     32664 TIP3     1292     SWM4     OH2      ODW       1.71640       15.5994           0 -0.978253       1.30000    
     32665 TIP3     1292     SWM4     DOH2     DOH2     -1.71640      0.400000           0   0.00000       0.00000    
     32666 TIP3     1292     SWM4     OM       LPDW     -1.11466       0.00000          -1   0.00000       0.00000    
     32667 TIP3     1292     SWM4     H1       HDW      0.557330       1.00800           0   0.00000       0.00000    
     32668 TIP3     1292     SWM4     H2       HDW      0.557330       1.00800           0   0.00000       0.00000    
     32669 TIP3     1293     SWM4     OH2      ODW       1.71640       15.5994           0 -0.978253       1.30000    
     32670 TIP3     1293     SWM4     DOH2     DOH2     -1.71640      0.400000           0   0.00000       0.00000    
     32671 TIP3     1293     SWM4     OM       LPDW     -1.11466       0.00000          -1   0.00000       0.00000    
     32672 TIP3     1293     SWM4     H1       HDW      0.557330       1.00800           0   0.00000       0.00000    
     32673 TIP3     1293     SWM4     H2       HDW      0.557330       1.00800           0   0.00000       0.00000    
     32674 TIP3     1294     SWM4     OH2      ODW       1.71640       15.5994           0 -0.978253       1.30000    
     32675 TIP3     1294     SWM4     DOH2     DOH2     -1.71640      0.400000           0   0.00000       0.00000    
     32676 TIP3     1294     SWM4     OM       LPDW     -1.11466       0.00000          -1   0.00000       0.00000    
     32677 TIP3     1294     SWM4     H1       HDW      0.557330       1.00800           0   0.00000       0.00000    
     32678 TIP3     1294     SWM4     H2       HDW      0.557330       1.00800           0   0.00000       0.00000    
     32679 TIP3     1295     SWM4     OH2      ODW       1.71640       15.5994           0 -0.978253       1.30000    
     32680 TIP3     1295     SWM4     DOH2     DOH2     -1.71640      0.400000           0   0.00000       0.00000    
     32681 TIP3     1295     SWM4     OM       LPDW     -1.11466       0.00000          -1   0.00000       0.00000    
     32682 TIP3     1295     SWM4     H1       HDW      0.557330       1.00800           0   0.00000       0.00000    
     32683 TIP3     1295     SWM4     H2       HDW      0.557330       1.00800           0   0.00000       0.00000    
     32684 TIP3     1296     SWM4     OH2      ODW       1.71640       15.5994           0 -0.978253       1.30000    
     32685 TIP3     1296     SWM4     DOH2     DOH2     -1.71640      0.400000           0   0.00000       0.00000    
     32686 TIP3     1296     SWM4     OM       LPDW     -1.11466       0.00000          -1   0.00000       0.00000    
     32687 TIP3     1296     SWM4     H1       HDW      0.557330       1.00800           0   0.00000       0.00000    
     32688 TIP3     1296     SWM4     H2       HDW      0.557330       1.00800           0   0.00000       0.00000    
     32689 TIP3     1297     SWM4     OH2      ODW       1.71640       15.5994           0 -0.978253       1.30000    
     32690 TIP3     1297     SWM4     DOH2     DOH2     -1.71640      0.400000           0   0.00000       0.00000    
     32691 TIP3     1297     SWM4     OM       LPDW     -1.11466       0.00000          -1   0.00000       0.00000    
     32692 TIP3     1297     SWM4     H1       HDW      0.557330       1.00800           0   0.00000       0.00000    
     32693 TIP3     1297     SWM4     H2       HDW      0.557330       1.00800           0   0.00000       0.00000    
     32694 TIP3     1298     SWM4     OH2      ODW       1.71640       15.5994           0 -0.978253       1.30000    
     32695 TIP3     1298     SWM4     DOH2     DOH2     -1.71640      0.400000           0   0.00000       0.00000    
     32696 TIP3     1298     SWM4     OM       LPDW     -1.11466       0.00000          -1   0.00000       0.00000    
     32697 TIP3     1298     SWM4     H1       HDW      0.557330       1.00800           0   0.00000       0.00000    
     32698 TIP3     1298     SWM4     H2       HDW      0.557330       1.00800           0   0.00000       0.00000    
     32699 TIP3     1299     SWM4     OH2      ODW       1.71640       15.5994           0 -0.978253       1.30000    
     32700 TIP3     1299     SWM4     DOH2     DOH2     -1.71640      0.400000           0   0.00000       0.00000    
     32701 TIP3     1299     SWM4     OM       LPDW     -1.11466       0.00000          -1   0.00000       0.00000    
     32702 TIP3     1299     SWM4     H1       HDW      0.557330       1.00800           0   0.00000       0.00000    
     32703 TIP3     1299     SWM4     H2       HDW      0.557330       1.00800           0   0.00000       0.00000    
     32704 TIP3     1300     SWM4     OH2      ODW       1.71640       15.5994           0 -0.978253       1.30000    
     32705 TIP3     1300     SWM4     DOH2     DOH2     -1.71640      0.400000           0   0.00000       0.00000    
     32706 TIP3     1300     SWM4     OM       LPDW     -1.11466       0.00000          -1   0.00000       0.00000    
     32707 TIP3     1300     SWM4     H1       HDW      0.557330       1.00800           0   0.00000       0.00000    
     32708 TIP3     1300     SWM4     H2       HDW      0.557330       1.00800           0   0.00000       0.00000    
     32709 TIP3     1301     SWM4     OH2      ODW       1.71640       15.5994           0 -0.978253       1.30000    
     32710 TIP3     1301     SWM4     DOH2     DOH2     -1.71640      0.400000           0   0.00000       0.00000    
     32711 TIP3     1301     SWM4     OM       LPDW     -1.11466       0.00000          -1   0.00000       0.00000    
     32712 TIP3     1301     SWM4     H1       HDW      0.557330       1.00800           0   0.00000       0.00000    
     32713 TIP3     1301     SWM4     H2       HDW      0.557330       1.00800           0   0.00000       0.00000    
     32714 TIP3     1302     SWM4     OH2      ODW       1.71640       15.5994           0 -0.978253       1.30000    
     32715 TIP3     1302     SWM4     DOH2     DOH2     -1.71640      0.400000           0   0.00000       0.00000    
     32716 TIP3     1302     SWM4     OM       LPDW     -1.11466       0.00000          -1   0.00000       0.00000    
     32717 TIP3     1302     SWM4     H1       HDW      0.557330       1.00800           0   0.00000       0.00000    
     32718 TIP3     1302     SWM4     H2       HDW      0.557330       1.00800           0   0.00000       0.00000    
     32719 TIP3     1303     SWM4     OH2      ODW       1.71640       15.5994           0 -0.978253       1.30000    
     32720 TIP3     1303     SWM4     DOH2     DOH2     -1.71640      0.400000           0   0.00000       0.00000    
     32721 TIP3     1303     SWM4     OM       LPDW     -1.11466       0.00000          -1   0.00000       0.00000    
     32722 TIP3     1303     SWM4     H1       HDW      0.557330       1.00800           0   0.00000       0.00000    
     32723 TIP3     1303     SWM4     H2       HDW      0.557330       1.00800           0   0.00000       0.00000    
     32724 TIP3     1304     SWM4     OH2      ODW       1.71640       15.5994           0 -0.978253       1.30000    
     32725 TIP3     1304     SWM4     DOH2     DOH2     -1.71640      0.400000           0   0.00000       0.00000    
     32726 TIP3     1304     SWM4     OM       LPDW     -1.11466       0.00000          -1   0.00000       0.00000    
     32727 TIP3     1304     SWM4     H1       HDW      0.557330       1.00800           0   0.00000       0.00000    
     32728 TIP3     1304     SWM4     H2       HDW      0.557330       1.00800           0   0.00000       0.00000    
     32729 TIP3     1305     SWM4     OH2      ODW       1.71640       15.5994           0 -0.978253       1.30000    
     32730 TIP3     1305     SWM4     DOH2     DOH2     -1.71640      0.400000           0   0.00000       0.00000    
     32731 TIP3     1305     SWM4     OM       LPDW     -1.11466       0.00000          -1   0.00000       0.00000    
     32732 TIP3     1305     SWM4     H1       HDW      0.557330       1.00800           0   0.00000       0.00000    
     32733 TIP3     1305     SWM4     H2       HDW      0.557330       1.00800           0   0.00000       0.00000    
     32734 TIP3     1306     SWM4     OH2      ODW       1.71640       15.5994           0 -0.978253       1.30000    
     32735 TIP3     1306     SWM4     DOH2     DOH2     -1.71640      0.400000           0   0.00000       0.00000    
     32736 TIP3     1306     SWM4     OM       LPDW     -1.11466       0.00000          -1   0.00000       0.00000    
     32737 TIP3     1306     SWM4     H1       HDW      0.557330       1.00800           0   0.00000       0.00000    
     32738 TIP3     1306     SWM4     H2       HDW      0.557330       1.00800           0   0.00000       0.00000    
     32739 TIP3     1307     SWM4     OH2      ODW       1.71640       15.5994           0 -0.978253       1.30000    
     32740 TIP3     1307     SWM4     DOH2     DOH2     -1.71640      0.400000           0   0.00000       0.00000    
     32741 TIP3     1307     SWM4     OM       LPDW     -1.11466       0.00000          -1   0.00000       0.00000    
     32742 TIP3     1307     SWM4     H1       HDW      0.557330       1.00800           0   0.00000       0.00000    
     32743 TIP3     1307     SWM4     H2       HDW      0.557330       1.00800           0   0.00000       0.00000    
     32744 TIP3     1308     SWM4     OH2      ODW       1.71640       15.5994           0 -0.978253       1.30000    
     32745 TIP3     1308     SWM4     DOH2     DOH2     -1.71640      0.400000           0   0.00000       0.00000    
     32746 TIP3     1308     SWM4     OM       LPDW     -1.11466       0.00000          -1   0.00000       0.00000    
     32747 TIP3     1308     SWM4     H1       HDW      0.557330       1.00800           0   0.00000       0.00000    
     32748 TIP3     1308     SWM4     H2       HDW      0.557330       1.00800           0   0.00000       0.00000    
     32749 TIP3     1309     SWM4     OH2      ODW       1.71640       15.5994           0 -0.978253       1.30000    
     32750 TIP3     1309     SWM4     DOH2     DOH2     -1.71640      0.400000           0   0.00000       0.00000    
     32751 TIP3     1309     SWM4     OM       LPDW     -1.11466       0.00000          -1   0.00000       0.00000    
     32752 TIP3     1309     SWM4     H1       HDW      0.557330       1.00800           0   0.00000       0.00000    
     32753 TIP3     1309     SWM4     H2       HDW      0.557330       1.00800           0   0.00000       0.00000    
     32754 TIP3     1310     SWM4     OH2      ODW       1.71640       15.5994           0 -0.978253       1.30000    
     32755 TIP3     1310     SWM4     DOH2     DOH2     -1.71640      0.400000           0   0.00000       0.00000    
     32756 TIP3     1310     SWM4     OM       LPDW     -1.11466       0.00000          -1   0.00000       0.00000    
     32757 TIP3     1310     SWM4     H1       HDW      0.557330       1.00800           0   0.00000       0.00000    
     32758 TIP3     1310     SWM4     H2       HDW      0.557330       1.00800           0   0.00000       0.00000    
     32759 TIP3     1311     SWM4     OH2      ODW       1.71640       15.5994           0 -0.978253       1.30000    
     32760 TIP3     1311     SWM4     DOH2     DOH2     -1.71640      0.400000           0   0.00000       0.00000    
     32761 TIP3     1311     SWM4     OM       LPDW     -1.11466       0.00000          -1   0.00000       0.00000    
     32762 TIP3     1311     SWM4     H1       HDW      0.557330       1.00800           0   0.00000       0.00000    
     32763 TIP3     1311     SWM4     H2       HDW      0.557330       1.00800           0   0.00000       0.00000    
     32764 TIP3     1312     SWM4     OH2      ODW       1.71640       15.5994           0 -0.978253       1.30000    
     32765 TIP3     1312     SWM4     DOH2     DOH2     -1.71640      0.400000           0   0.00000       0.00000    
     32766 TIP3     1312     SWM4     OM       LPDW     -1.11466       0.00000          -1   0.00000       0.00000    
     32767 TIP3     1312     SWM4     H1       HDW      0.557330       1.00800           0   0.00000       0.00000    
     32768 TIP3     1312     SWM4     H2       HDW      0.557330       1.00800           0   0.00000       0.00000    
     32769 TIP3     1313     SWM4     OH2      ODW       1.71640       15.5994           0 -0.978253       1.30000    
     32770 TIP3     1313     SWM4     DOH2     DOH2     -1.71640      0.400000           0   0.00000       0.00000    
     32771 TIP3     1313     SWM4     OM       LPDW     -1.11466       0.00000          -1   0.00000       0.00000    
     32772 TIP3     1313     SWM4     H1       HDW      0.557330       1.00800           0   0.00000       0.00000    
     32773 TIP3     1313     SWM4     H2       HDW      0.557330       1.00800           0   0.00000       0.00000    
     32774 TIP3     1314     SWM4     OH2      ODW       1.71640       15.5994           0 -0.978253       1.30000    
     32775 TIP3     1314     SWM4     DOH2     DOH2     -1.71640      0.400000           0   0.00000       0.00000    
     32776 TIP3     1314     SWM4     OM       LPDW     -1.11466       0.00000          -1   0.00000       0.00000    
     32777 TIP3     1314     SWM4     H1       HDW      0.557330       1.00800           0   0.00000       0.00000    
     32778 TIP3     1314     SWM4     H2       HDW      0.557330       1.00800           0   0.00000       0.00000    
     32779 TIP3     1315     SWM4     OH2      ODW       1.71640       15.5994           0 -0.978253       1.30000    
     32780 TIP3     1315     SWM4     DOH2     DOH2     -1.71640      0.400000           0   0.00000       0.00000    
     32781 TIP3     1315     SWM4     OM       LPDW     -1.11466       0.00000          -1   0.00000       0.00000    
     32782 TIP3     1315     SWM4     H1       HDW      0.557330       1.00800           0   0.00000       0.00000    
     32783 TIP3     1315     SWM4     H2       HDW      0.557330       1.00800           0   0.00000       0.00000    
     32784 TIP3     1316     SWM4     OH2      ODW       1.71640       15.5994           0 -0.978253       1.30000    
     32785 TIP3     1316     SWM4     DOH2     DOH2     -1.71640      0.400000           0   0.00000       0.00000    
     32786 TIP3     1316     SWM4     OM       LPDW     -1.11466       0.00000          -1   0.00000       0.00000    
     32787 TIP3     1316     SWM4     H1       HDW      0.557330       1.00800           0   0.00000       0.00000    
     32788 TIP3     1316     SWM4     H2       HDW      0.557330       1.00800           0   0.00000       0.00000    
     32789 TIP3     1317     SWM4     OH2      ODW       1.71640       15.5994           0 -0.978253       1.30000    
     32790 TIP3     1317     SWM4     DOH2     DOH2     -1.71640      0.400000           0   0.00000       0.00000    
     32791 TIP3     1317     SWM4     OM       LPDW     -1.11466       0.00000          -1   0.00000       0.00000    
     32792 TIP3     1317     SWM4     H1       HDW      0.557330       1.00800           0   0.00000       0.00000    
     32793 TIP3     1317     SWM4     H2       HDW      0.557330       1.00800           0   0.00000       0.00000    
     32794 TIP3     1318     SWM4     OH2      ODW       1.71640       15.5994           0 -0.978253       1.30000    
     32795 TIP3     1318     SWM4     DOH2     DOH2     -1.71640      0.400000           0   0.00000       0.00000    
     32796 TIP3     1318     SWM4     OM       LPDW     -1.11466       0.00000          -1   0.00000       0.00000    
     32797 TIP3     1318     SWM4     H1       HDW      0.557330       1.00800           0   0.00000       0.00000    
     32798 TIP3     1318     SWM4     H2       HDW      0.557330       1.00800           0   0.00000       0.00000    
     32799 TIP3     1319     SWM4     OH2      ODW       1.71640       15.5994           0 -0.978253       1.30000    
     32800 TIP3     1319     SWM4     DOH2     DOH2     -1.71640      0.400000           0   0.00000       0.00000    
     32801 TIP3     1319     SWM4     OM       LPDW     -1.11466       0.00000          -1   0.00000       0.00000    
     32802 TIP3     1319     SWM4     H1       HDW      0.557330       1.00800           0   0.00000       0.00000    
     32803 TIP3     1319     SWM4     H2       HDW      0.557330       1.00800           0   0.00000       0.00000    
     32804 TIP3     1320     SWM4     OH2      ODW       1.71640       15.5994           0 -0.978253       1.30000    
     32805 TIP3     1320     SWM4     DOH2     DOH2     -1.71640      0.400000           0   0.00000       0.00000    
     32806 TIP3     1320     SWM4     OM       LPDW     -1.11466       0.00000          -1   0.00000       0.00000    
     32807 TIP3     1320     SWM4     H1       HDW      0.557330       1.00800           0   0.00000       0.00000    
     32808 TIP3     1320     SWM4     H2       HDW      0.557330       1.00800           0   0.00000       0.00000    
     32809 TIP3     1321     SWM4     OH2      ODW       1.71640       15.5994           0 -0.978253       1.30000    
     32810 TIP3     1321     SWM4     DOH2     DOH2     -1.71640      0.400000           0   0.00000       0.00000    
     32811 TIP3     1321     SWM4     OM       LPDW     -1.11466       0.00000          -1   0.00000       0.00000    
     32812 TIP3     1321     SWM4     H1       HDW      0.557330       1.00800           0   0.00000       0.00000    
     32813 TIP3     1321     SWM4     H2       HDW      0.557330       1.00800           0   0.00000       0.00000    
     32814 TIP3     1322     SWM4     OH2      ODW       1.71640       15.5994           0 -0.978253       1.30000    
     32815 TIP3     1322     SWM4     DOH2     DOH2     -1.71640      0.400000           0   0.00000       0.00000    
     32816 TIP3     1322     SWM4     OM       LPDW     -1.11466       0.00000          -1   0.00000       0.00000    
     32817 TIP3     1322     SWM4     H1       HDW      0.557330       1.00800           0   0.00000       0.00000    
     32818 TIP3     1322     SWM4     H2       HDW      0.557330       1.00800           0   0.00000       0.00000    
     32819 TIP3     1323     SWM4     OH2      ODW       1.71640       15.5994           0 -0.978253       1.30000    
     32820 TIP3     1323     SWM4     DOH2     DOH2     -1.71640      0.400000           0   0.00000       0.00000    
     32821 TIP3     1323     SWM4     OM       LPDW     -1.11466       0.00000          -1   0.00000       0.00000    
     32822 TIP3     1323     SWM4     H1       HDW      0.557330       1.00800           0   0.00000       0.00000    
     32823 TIP3     1323     SWM4     H2       HDW      0.557330       1.00800           0   0.00000       0.00000    
     32824 TIP3     1324     SWM4     OH2      ODW       1.71640       15.5994           0 -0.978253       1.30000    
     32825 TIP3     1324     SWM4     DOH2     DOH2     -1.71640      0.400000           0   0.00000       0.00000    
     32826 TIP3     1324     SWM4     OM       LPDW     -1.11466       0.00000          -1   0.00000       0.00000    
     32827 TIP3     1324     SWM4     H1       HDW      0.557330       1.00800           0   0.00000       0.00000    
     32828 TIP3     1324     SWM4     H2       HDW      0.557330       1.00800           0   0.00000       0.00000    
     32829 TIP3     1325     SWM4     OH2      ODW       1.71640       15.5994           0 -0.978253       1.30000    
     32830 TIP3     1325     SWM4     DOH2     DOH2     -1.71640      0.400000           0   0.00000       0.00000    
     32831 TIP3     1325     SWM4     OM       LPDW     -1.11466       0.00000          -1   0.00000       0.00000    
     32832 TIP3     1325     SWM4     H1       HDW      0.557330       1.00800           0   0.00000       0.00000    
     32833 TIP3     1325     SWM4     H2       HDW      0.557330       1.00800           0   0.00000       0.00000    
     32834 TIP3     1326     SWM4     OH2      ODW       1.71640       15.5994           0 -0.978253       1.30000    
     32835 TIP3     1326     SWM4     DOH2     DOH2     -1.71640      0.400000           0   0.00000       0.00000    
     32836 TIP3     1326     SWM4     OM       LPDW     -1.11466       0.00000          -1   0.00000       0.00000    
     32837 TIP3     1326     SWM4     H1       HDW      0.557330       1.00800           0   0.00000       0.00000    
     32838 TIP3     1326     SWM4     H2       HDW      0.557330       1.00800           0   0.00000       0.00000    
     32839 TIP3     1327     SWM4     OH2      ODW       1.71640       15.5994           0 -0.978253       1.30000    
     32840 TIP3     1327     SWM4     DOH2     DOH2     -1.71640      0.400000           0   0.00000       0.00000    
     32841 TIP3     1327     SWM4     OM       LPDW     -1.11466       0.00000          -1   0.00000       0.00000    
     32842 TIP3     1327     SWM4     H1       HDW      0.557330       1.00800           0   0.00000       0.00000    
     32843 TIP3     1327     SWM4     H2       HDW      0.557330       1.00800           0   0.00000       0.00000    
     32844 TIP3     1328     SWM4     OH2      ODW       1.71640       15.5994           0 -0.978253       1.30000    
     32845 TIP3     1328     SWM4     DOH2     DOH2     -1.71640      0.400000           0   0.00000       0.00000    
     32846 TIP3     1328     SWM4     OM       LPDW     -1.11466       0.00000          -1   0.00000       0.00000    
     32847 TIP3     1328     SWM4     H1       HDW      0.557330       1.00800           0   0.00000       0.00000    
     32848 TIP3     1328     SWM4     H2       HDW      0.557330       1.00800           0   0.00000       0.00000    
     32849 TIP3     1329     SWM4     OH2      ODW       1.71640       15.5994           0 -0.978253       1.30000    
     32850 TIP3     1329     SWM4     DOH2     DOH2     -1.71640      0.400000           0   0.00000       0.00000    
     32851 TIP3     1329     SWM4     OM       LPDW     -1.11466       0.00000          -1   0.00000       0.00000    
     32852 TIP3     1329     SWM4     H1       HDW      0.557330       1.00800           0   0.00000       0.00000    
     32853 TIP3     1329     SWM4     H2       HDW      0.557330       1.00800           0   0.00000       0.00000    
     32854 TIP3     1330     SWM4     OH2      ODW       1.71640       15.5994           0 -0.978253       1.30000    
     32855 TIP3     1330     SWM4     DOH2     DOH2     -1.71640      0.400000           0   0.00000       0.00000    
     32856 TIP3     1330     SWM4     OM       LPDW     -1.11466       0.00000          -1   0.00000       0.00000    
     32857 TIP3     1330     SWM4     H1       HDW      0.557330       1.00800           0   0.00000       0.00000    
     32858 TIP3     1330     SWM4     H2       HDW      0.557330       1.00800           0   0.00000       0.00000    
     32859 TIP3     1331     SWM4     OH2      ODW       1.71640       15.5994           0 -0.978253       1.30000    
     32860 TIP3     1331     SWM4     DOH2     DOH2     -1.71640      0.400000           0   0.00000       0.00000    
     32861 TIP3     1331     SWM4     OM       LPDW     -1.11466       0.00000          -1   0.00000       0.00000    
     32862 TIP3     1331     SWM4     H1       HDW      0.557330       1.00800           0   0.00000       0.00000    
     32863 TIP3     1331     SWM4     H2       HDW      0.557330       1.00800           0   0.00000       0.00000    
     32864 TIP3     1332     SWM4     OH2      ODW       1.71640       15.5994           0 -0.978253       1.30000    
     32865 TIP3     1332     SWM4     DOH2     DOH2     -1.71640      0.400000           0   0.00000       0.00000    
     32866 TIP3     1332     SWM4     OM       LPDW     -1.11466       0.00000          -1   0.00000       0.00000    
     32867 TIP3     1332     SWM4     H1       HDW      0.557330       1.00800           0   0.00000       0.00000    
     32868 TIP3     1332     SWM4     H2       HDW      0.557330       1.00800           0   0.00000       0.00000    
     32869 TIP3     1333     SWM4     OH2      ODW       1.71640       15.5994           0 -0.978253       1.30000    
     32870 TIP3     1333     SWM4     DOH2     DOH2     -1.71640      0.400000           0   0.00000       0.00000    
     32871 TIP3     1333     SWM4     OM       LPDW     -1.11466       0.00000          -1   0.00000       0.00000    
     32872 TIP3     1333     SWM4     H1       HDW      0.557330       1.00800           0   0.00000       0.00000    
     32873 TIP3     1333     SWM4     H2       HDW      0.557330       1.00800           0   0.00000       0.00000    
     32874 TIP3     1334     SWM4     OH2      ODW       1.71640       15.5994           0 -0.978253       1.30000    
     32875 TIP3     1334     SWM4     DOH2     DOH2     -1.71640      0.400000           0   0.00000       0.00000    
     32876 TIP3     1334     SWM4     OM       LPDW     -1.11466       0.00000          -1   0.00000       0.00000    
     32877 TIP3     1334     SWM4     H1       HDW      0.557330       1.00800           0   0.00000       0.00000    
     32878 TIP3     1334     SWM4     H2       HDW      0.557330       1.00800           0   0.00000       0.00000    
     32879 TIP3     1335     SWM4     OH2      ODW       1.71640       15.5994           0 -0.978253       1.30000    
     32880 TIP3     1335     SWM4     DOH2     DOH2     -1.71640      0.400000           0   0.00000       0.00000    
     32881 TIP3     1335     SWM4     OM       LPDW     -1.11466       0.00000          -1   0.00000       0.00000    
     32882 TIP3     1335     SWM4     H1       HDW      0.557330       1.00800           0   0.00000       0.00000    
     32883 TIP3     1335     SWM4     H2       HDW      0.557330       1.00800           0   0.00000       0.00000    
     32884 TIP3     1336     SWM4     OH2      ODW       1.71640       15.5994           0 -0.978253       1.30000    
     32885 TIP3     1336     SWM4     DOH2     DOH2     -1.71640      0.400000           0   0.00000       0.00000    
     32886 TIP3     1336     SWM4     OM       LPDW     -1.11466       0.00000          -1   0.00000       0.00000    
     32887 TIP3     1336     SWM4     H1       HDW      0.557330       1.00800           0   0.00000       0.00000    
     32888 TIP3     1336     SWM4     H2       HDW      0.557330       1.00800           0   0.00000       0.00000    
     32889 TIP3     1337     SWM4     OH2      ODW       1.71640       15.5994           0 -0.978253       1.30000    
     32890 TIP3     1337     SWM4     DOH2     DOH2     -1.71640      0.400000           0   0.00000       0.00000    
     32891 TIP3     1337     SWM4     OM       LPDW     -1.11466       0.00000          -1   0.00000       0.00000    
     32892 TIP3     1337     SWM4     H1       HDW      0.557330       1.00800           0   0.00000       0.00000    
     32893 TIP3     1337     SWM4     H2       HDW      0.557330       1.00800           0   0.00000       0.00000    
     32894 TIP3     1338     SWM4     OH2      ODW       1.71640       15.5994           0 -0.978253       1.30000    
     32895 TIP3     1338     SWM4     DOH2     DOH2     -1.71640      0.400000           0   0.00000       0.00000    
     32896 TIP3     1338     SWM4     OM       LPDW     -1.11466       0.00000          -1   0.00000       0.00000    
     32897 TIP3     1338     SWM4     H1       HDW      0.557330       1.00800           0   0.00000       0.00000    
     32898 TIP3     1338     SWM4     H2       HDW      0.557330       1.00800           0   0.00000       0.00000    
     32899 TIP3     1339     SWM4     OH2      ODW       1.71640       15.5994           0 -0.978253       1.30000    
     32900 TIP3     1339     SWM4     DOH2     DOH2     -1.71640      0.400000           0   0.00000       0.00000    
     32901 TIP3     1339     SWM4     OM       LPDW     -1.11466       0.00000          -1   0.00000       0.00000    
     32902 TIP3     1339     SWM4     H1       HDW      0.557330       1.00800           0   0.00000       0.00000    
     32903 TIP3     1339     SWM4     H2       HDW      0.557330       1.00800           0   0.00000       0.00000    
     32904 TIP3     1340     SWM4     OH2      ODW       1.71640       15.5994           0 -0.978253       1.30000    
     32905 TIP3     1340     SWM4     DOH2     DOH2     -1.71640      0.400000           0   0.00000       0.00000    
     32906 TIP3     1340     SWM4     OM       LPDW     -1.11466       0.00000          -1   0.00000       0.00000    
     32907 TIP3     1340     SWM4     H1       HDW      0.557330       1.00800           0   0.00000       0.00000    
     32908 TIP3     1340     SWM4     H2       HDW      0.557330       1.00800           0   0.00000       0.00000    
     32909 TIP3     1341     SWM4     OH2      ODW       1.71640       15.5994           0 -0.978253       1.30000    
     32910 TIP3     1341     SWM4     DOH2     DOH2     -1.71640      0.400000           0   0.00000       0.00000    
     32911 TIP3     1341     SWM4     OM       LPDW     -1.11466       0.00000          -1   0.00000       0.00000    
     32912 TIP3     1341     SWM4     H1       HDW      0.557330       1.00800           0   0.00000       0.00000    
     32913 TIP3     1341     SWM4     H2       HDW      0.557330       1.00800           0   0.00000       0.00000    
     32914 TIP3     1342     SWM4     OH2      ODW       1.71640       15.5994           0 -0.978253       1.30000    
     32915 TIP3     1342     SWM4     DOH2     DOH2     -1.71640      0.400000           0   0.00000       0.00000    
     32916 TIP3     1342     SWM4     OM       LPDW     -1.11466       0.00000          -1   0.00000       0.00000    
     32917 TIP3     1342     SWM4     H1       HDW      0.557330       1.00800           0   0.00000       0.00000    
     32918 TIP3     1342     SWM4     H2       HDW      0.557330       1.00800           0   0.00000       0.00000    
     32919 TIP3     1343     SWM4     OH2      ODW       1.71640       15.5994           0 -0.978253       1.30000    
     32920 TIP3     1343     SWM4     DOH2     DOH2     -1.71640      0.400000           0   0.00000       0.00000    
     32921 TIP3     1343     SWM4     OM       LPDW     -1.11466       0.00000          -1   0.00000       0.00000    
     32922 TIP3     1343     SWM4     H1       HDW      0.557330       1.00800           0   0.00000       0.00000    
     32923 TIP3     1343     SWM4     H2       HDW      0.557330       1.00800           0   0.00000       0.00000    
     32924 TIP3     1344     SWM4     OH2      ODW       1.71640       15.5994           0 -0.978253       1.30000    
     32925 TIP3     1344     SWM4     DOH2     DOH2     -1.71640      0.400000           0   0.00000       0.00000    
     32926 TIP3     1344     SWM4     OM       LPDW     -1.11466       0.00000          -1   0.00000       0.00000    
     32927 TIP3     1344     SWM4     H1       HDW      0.557330       1.00800           0   0.00000       0.00000    
     32928 TIP3     1344     SWM4     H2       HDW      0.557330       1.00800           0   0.00000       0.00000    
     32929 TIP3     1345     SWM4     OH2      ODW       1.71640       15.5994           0 -0.978253       1.30000    
     32930 TIP3     1345     SWM4     DOH2     DOH2     -1.71640      0.400000           0   0.00000       0.00000    
     32931 TIP3     1345     SWM4     OM       LPDW     -1.11466       0.00000          -1   0.00000       0.00000    
     32932 TIP3     1345     SWM4     H1       HDW      0.557330       1.00800           0   0.00000       0.00000    
     32933 TIP3     1345     SWM4     H2       HDW      0.557330       1.00800           0   0.00000       0.00000    
     32934 TIP3     1346     SWM4     OH2      ODW       1.71640       15.5994           0 -0.978253       1.30000    
     32935 TIP3     1346     SWM4     DOH2     DOH2     -1.71640      0.400000           0   0.00000       0.00000    
     32936 TIP3     1346     SWM4     OM       LPDW     -1.11466       0.00000          -1   0.00000       0.00000    
     32937 TIP3     1346     SWM4     H1       HDW      0.557330       1.00800           0   0.00000       0.00000    
     32938 TIP3     1346     SWM4     H2       HDW      0.557330       1.00800           0   0.00000       0.00000    
     32939 TIP3     1347     SWM4     OH2      ODW       1.71640       15.5994           0 -0.978253       1.30000    
     32940 TIP3     1347     SWM4     DOH2     DOH2     -1.71640      0.400000           0   0.00000       0.00000    
     32941 TIP3     1347     SWM4     OM       LPDW     -1.11466       0.00000          -1   0.00000       0.00000    
     32942 TIP3     1347     SWM4     H1       HDW      0.557330       1.00800           0   0.00000       0.00000    
     32943 TIP3     1347     SWM4     H2       HDW      0.557330       1.00800           0   0.00000       0.00000    
     32944 TIP3     1348     SWM4     OH2      ODW       1.71640       15.5994           0 -0.978253       1.30000    
     32945 TIP3     1348     SWM4     DOH2     DOH2     -1.71640      0.400000           0   0.00000       0.00000    
     32946 TIP3     1348     SWM4     OM       LPDW     -1.11466       0.00000          -1   0.00000       0.00000    
     32947 TIP3     1348     SWM4     H1       HDW      0.557330       1.00800           0   0.00000       0.00000    
     32948 TIP3     1348     SWM4     H2       HDW      0.557330       1.00800           0   0.00000       0.00000    
     32949 TIP3     1349     SWM4     OH2      ODW       1.71640       15.5994           0 -0.978253       1.30000    
     32950 TIP3     1349     SWM4     DOH2     DOH2     -1.71640      0.400000           0   0.00000       0.00000    
     32951 TIP3     1349     SWM4     OM       LPDW     -1.11466       0.00000          -1   0.00000       0.00000    
     32952 TIP3     1349     SWM4     H1       HDW      0.557330       1.00800           0   0.00000       0.00000    
     32953 TIP3     1349     SWM4     H2       HDW      0.557330       1.00800           0   0.00000       0.00000    
     32954 TIP3     1350     SWM4     OH2      ODW       1.71640       15.5994           0 -0.978253       1.30000    
     32955 TIP3     1350     SWM4     DOH2     DOH2     -1.71640      0.400000           0   0.00000       0.00000    
     32956 TIP3     1350     SWM4     OM       LPDW     -1.11466       0.00000          -1   0.00000       0.00000    
     32957 TIP3     1350     SWM4     H1       HDW      0.557330       1.00800           0   0.00000       0.00000    
     32958 TIP3     1350     SWM4     H2       HDW      0.557330       1.00800           0   0.00000       0.00000    
     32959 TIP3     1351     SWM4     OH2      ODW       1.71640       15.5994           0 -0.978253       1.30000    
     32960 TIP3     1351     SWM4     DOH2     DOH2     -1.71640      0.400000           0   0.00000       0.00000    
     32961 TIP3     1351     SWM4     OM       LPDW     -1.11466       0.00000          -1   0.00000       0.00000    
     32962 TIP3     1351     SWM4     H1       HDW      0.557330       1.00800           0   0.00000       0.00000    
     32963 TIP3     1351     SWM4     H2       HDW      0.557330       1.00800           0   0.00000       0.00000    
     32964 TIP3     1352     SWM4     OH2      ODW       1.71640       15.5994           0 -0.978253       1.30000    
     32965 TIP3     1352     SWM4     DOH2     DOH2     -1.71640      0.400000           0   0.00000       0.00000    
     32966 TIP3     1352     SWM4     OM       LPDW     -1.11466       0.00000          -1   0.00000       0.00000    
     32967 TIP3     1352     SWM4     H1       HDW      0.557330       1.00800           0   0.00000       0.00000    
     32968 TIP3     1352     SWM4     H2       HDW      0.557330       1.00800           0   0.00000       0.00000    
     32969 TIP3     1353     SWM4     OH2      ODW       1.71640       15.5994           0 -0.978253       1.30000    
     32970 TIP3     1353     SWM4     DOH2     DOH2     -1.71640      0.400000           0   0.00000       0.00000    
     32971 TIP3     1353     SWM4     OM       LPDW     -1.11466       0.00000          -1   0.00000       0.00000    
     32972 TIP3     1353     SWM4     H1       HDW      0.557330       1.00800           0   0.00000       0.00000    
     32973 TIP3     1353     SWM4     H2       HDW      0.557330       1.00800           0   0.00000       0.00000    
     32974 TIP3     1354     SWM4     OH2      ODW       1.71640       15.5994           0 -0.978253       1.30000    
     32975 TIP3     1354     SWM4     DOH2     DOH2     -1.71640      0.400000           0   0.00000       0.00000    
     32976 TIP3     1354     SWM4     OM       LPDW     -1.11466       0.00000          -1   0.00000       0.00000    
     32977 TIP3     1354     SWM4     H1       HDW      0.557330       1.00800           0   0.00000       0.00000    
     32978 TIP3     1354     SWM4     H2       HDW      0.557330       1.00800           0   0.00000       0.00000    
     32979 TIP3     1355     SWM4     OH2      ODW       1.71640       15.5994           0 -0.978253       1.30000    
     32980 TIP3     1355     SWM4     DOH2     DOH2     -1.71640      0.400000           0   0.00000       0.00000    
     32981 TIP3     1355     SWM4     OM       LPDW     -1.11466       0.00000          -1   0.00000       0.00000    
     32982 TIP3     1355     SWM4     H1       HDW      0.557330       1.00800           0   0.00000       0.00000    
     32983 TIP3     1355     SWM4     H2       HDW      0.557330       1.00800           0   0.00000       0.00000    
     32984 TIP3     1356     SWM4     OH2      ODW       1.71640       15.5994           0 -0.978253       1.30000    
     32985 TIP3     1356     SWM4     DOH2     DOH2     -1.71640      0.400000           0   0.00000       0.00000    
     32986 TIP3     1356     SWM4     OM       LPDW     -1.11466       0.00000          -1   0.00000       0.00000    
     32987 TIP3     1356     SWM4     H1       HDW      0.557330       1.00800           0   0.00000       0.00000    
     32988 TIP3     1356     SWM4     H2       HDW      0.557330       1.00800           0   0.00000       0.00000    
     32989 TIP3     1357     SWM4     OH2      ODW       1.71640       15.5994           0 -0.978253       1.30000    
     32990 TIP3     1357     SWM4     DOH2     DOH2     -1.71640      0.400000           0   0.00000       0.00000    
     32991 TIP3     1357     SWM4     OM       LPDW     -1.11466       0.00000          -1   0.00000       0.00000    
     32992 TIP3     1357     SWM4     H1       HDW      0.557330       1.00800           0   0.00000       0.00000    
     32993 TIP3     1357     SWM4     H2       HDW      0.557330       1.00800           0   0.00000       0.00000    
     32994 TIP3     1358     SWM4     OH2      ODW       1.71640       15.5994           0 -0.978253       1.30000    
     32995 TIP3     1358     SWM4     DOH2     DOH2     -1.71640      0.400000           0   0.00000       0.00000    
     32996 TIP3     1358     SWM4     OM       LPDW     -1.11466       0.00000          -1   0.00000       0.00000    
     32997 TIP3     1358     SWM4     H1       HDW      0.557330       1.00800           0   0.00000       0.00000    
     32998 TIP3     1358     SWM4     H2       HDW      0.557330       1.00800           0   0.00000       0.00000    
     32999 TIP3     1359     SWM4     OH2      ODW       1.71640       15.5994           0 -0.978253       1.30000    
     33000 TIP3     1359     SWM4     DOH2     DOH2     -1.71640      0.400000           0   0.00000       0.00000    
     33001 TIP3     1359     SWM4     OM       LPDW     -1.11466       0.00000          -1   0.00000       0.00000    
     33002 TIP3     1359     SWM4     H1       HDW      0.557330       1.00800           0   0.00000       0.00000    
     33003 TIP3     1359     SWM4     H2       HDW      0.557330       1.00800           0   0.00000       0.00000    
     33004 TIP3     1360     SWM4     OH2      ODW       1.71640       15.5994           0 -0.978253       1.30000    
     33005 TIP3     1360     SWM4     DOH2     DOH2     -1.71640      0.400000           0   0.00000       0.00000    
     33006 TIP3     1360     SWM4     OM       LPDW     -1.11466       0.00000          -1   0.00000       0.00000    
     33007 TIP3     1360     SWM4     H1       HDW      0.557330       1.00800           0   0.00000       0.00000    
     33008 TIP3     1360     SWM4     H2       HDW      0.557330       1.00800           0   0.00000       0.00000    
     33009 TIP3     1361     SWM4     OH2      ODW       1.71640       15.5994           0 -0.978253       1.30000    
     33010 TIP3     1361     SWM4     DOH2     DOH2     -1.71640      0.400000           0   0.00000       0.00000    
     33011 TIP3     1361     SWM4     OM       LPDW     -1.11466       0.00000          -1   0.00000       0.00000    
     33012 TIP3     1361     SWM4     H1       HDW      0.557330       1.00800           0   0.00000       0.00000    
     33013 TIP3     1361     SWM4     H2       HDW      0.557330       1.00800           0   0.00000       0.00000    
     33014 TIP3     1362     SWM4     OH2      ODW       1.71640       15.5994           0 -0.978253       1.30000    
     33015 TIP3     1362     SWM4     DOH2     DOH2     -1.71640      0.400000           0   0.00000       0.00000    
     33016 TIP3     1362     SWM4     OM       LPDW     -1.11466       0.00000          -1   0.00000       0.00000    
     33017 TIP3     1362     SWM4     H1       HDW      0.557330       1.00800           0   0.00000       0.00000    
     33018 TIP3     1362     SWM4     H2       HDW      0.557330       1.00800           0   0.00000       0.00000    
     33019 TIP3     1363     SWM4     OH2      ODW       1.71640       15.5994           0 -0.978253       1.30000    
     33020 TIP3     1363     SWM4     DOH2     DOH2     -1.71640      0.400000           0   0.00000       0.00000    
     33021 TIP3     1363     SWM4     OM       LPDW     -1.11466       0.00000          -1   0.00000       0.00000    
     33022 TIP3     1363     SWM4     H1       HDW      0.557330       1.00800           0   0.00000       0.00000    
     33023 TIP3     1363     SWM4     H2       HDW      0.557330       1.00800           0   0.00000       0.00000    
     33024 TIP3     1364     SWM4     OH2      ODW       1.71640       15.5994           0 -0.978253       1.30000    
     33025 TIP3     1364     SWM4     DOH2     DOH2     -1.71640      0.400000           0   0.00000       0.00000    
     33026 TIP3     1364     SWM4     OM       LPDW     -1.11466       0.00000          -1   0.00000       0.00000    
     33027 TIP3     1364     SWM4     H1       HDW      0.557330       1.00800           0   0.00000       0.00000    
     33028 TIP3     1364     SWM4     H2       HDW      0.557330       1.00800           0   0.00000       0.00000    
     33029 TIP3     1365     SWM4     OH2      ODW       1.71640       15.5994           0 -0.978253       1.30000    
     33030 TIP3     1365     SWM4     DOH2     DOH2     -1.71640      0.400000           0   0.00000       0.00000    
     33031 TIP3     1365     SWM4     OM       LPDW     -1.11466       0.00000          -1   0.00000       0.00000    
     33032 TIP3     1365     SWM4     H1       HDW      0.557330       1.00800           0   0.00000       0.00000    
     33033 TIP3     1365     SWM4     H2       HDW      0.557330       1.00800           0   0.00000       0.00000    
     33034 TIP3     1366     SWM4     OH2      ODW       1.71640       15.5994           0 -0.978253       1.30000    
     33035 TIP3     1366     SWM4     DOH2     DOH2     -1.71640      0.400000           0   0.00000       0.00000    
     33036 TIP3     1366     SWM4     OM       LPDW     -1.11466       0.00000          -1   0.00000       0.00000    
     33037 TIP3     1366     SWM4     H1       HDW      0.557330       1.00800           0   0.00000       0.00000    
     33038 TIP3     1366     SWM4     H2       HDW      0.557330       1.00800           0   0.00000       0.00000    
     33039 TIP3     1367     SWM4     OH2      ODW       1.71640       15.5994           0 -0.978253       1.30000    
     33040 TIP3     1367     SWM4     DOH2     DOH2     -1.71640      0.400000           0   0.00000       0.00000    
     33041 TIP3     1367     SWM4     OM       LPDW     -1.11466       0.00000          -1   0.00000       0.00000    
     33042 TIP3     1367     SWM4     H1       HDW      0.557330       1.00800           0   0.00000       0.00000    
     33043 TIP3     1367     SWM4     H2       HDW      0.557330       1.00800           0   0.00000       0.00000    
     33044 TIP3     1368     SWM4     OH2      ODW       1.71640       15.5994           0 -0.978253       1.30000    
     33045 TIP3     1368     SWM4     DOH2     DOH2     -1.71640      0.400000           0   0.00000       0.00000    
     33046 TIP3     1368     SWM4     OM       LPDW     -1.11466       0.00000          -1   0.00000       0.00000    
     33047 TIP3     1368     SWM4     H1       HDW      0.557330       1.00800           0   0.00000       0.00000    
     33048 TIP3     1368     SWM4     H2       HDW      0.557330       1.00800           0   0.00000       0.00000    
     33049 TIP3     1369     SWM4     OH2      ODW       1.71640       15.5994           0 -0.978253       1.30000    
     33050 TIP3     1369     SWM4     DOH2     DOH2     -1.71640      0.400000           0   0.00000       0.00000    
     33051 TIP3     1369     SWM4     OM       LPDW     -1.11466       0.00000          -1   0.00000       0.00000    
     33052 TIP3     1369     SWM4     H1       HDW      0.557330       1.00800           0   0.00000       0.00000    
     33053 TIP3     1369     SWM4     H2       HDW      0.557330       1.00800           0   0.00000       0.00000    
     33054 TIP3     1370     SWM4     OH2      ODW       1.71640       15.5994           0 -0.978253       1.30000    
     33055 TIP3     1370     SWM4     DOH2     DOH2     -1.71640      0.400000           0   0.00000       0.00000    
     33056 TIP3     1370     SWM4     OM       LPDW     -1.11466       0.00000          -1   0.00000       0.00000    
     33057 TIP3     1370     SWM4     H1       HDW      0.557330       1.00800           0   0.00000       0.00000    
     33058 TIP3     1370     SWM4     H2       HDW      0.557330       1.00800           0   0.00000       0.00000    
     33059 TIP3     1371     SWM4     OH2      ODW       1.71640       15.5994           0 -0.978253       1.30000    
     33060 TIP3     1371     SWM4     DOH2     DOH2     -1.71640      0.400000           0   0.00000       0.00000    
     33061 TIP3     1371     SWM4     OM       LPDW     -1.11466       0.00000          -1   0.00000       0.00000    
     33062 TIP3     1371     SWM4     H1       HDW      0.557330       1.00800           0   0.00000       0.00000    
     33063 TIP3     1371     SWM4     H2       HDW      0.557330       1.00800           0   0.00000       0.00000    
     33064 TIP3     1372     SWM4     OH2      ODW       1.71640       15.5994           0 -0.978253       1.30000    
     33065 TIP3     1372     SWM4     DOH2     DOH2     -1.71640      0.400000           0   0.00000       0.00000    
     33066 TIP3     1372     SWM4     OM       LPDW     -1.11466       0.00000          -1   0.00000       0.00000    
     33067 TIP3     1372     SWM4     H1       HDW      0.557330       1.00800           0   0.00000       0.00000    
     33068 TIP3     1372     SWM4     H2       HDW      0.557330       1.00800           0   0.00000       0.00000    
     33069 TIP3     1373     SWM4     OH2      ODW       1.71640       15.5994           0 -0.978253       1.30000    
     33070 TIP3     1373     SWM4     DOH2     DOH2     -1.71640      0.400000           0   0.00000       0.00000    
     33071 TIP3     1373     SWM4     OM       LPDW     -1.11466       0.00000          -1   0.00000       0.00000    
     33072 TIP3     1373     SWM4     H1       HDW      0.557330       1.00800           0   0.00000       0.00000    
     33073 TIP3     1373     SWM4     H2       HDW      0.557330       1.00800           0   0.00000       0.00000    
     33074 TIP3     1374     SWM4     OH2      ODW       1.71640       15.5994           0 -0.978253       1.30000    
     33075 TIP3     1374     SWM4     DOH2     DOH2     -1.71640      0.400000           0   0.00000       0.00000    
     33076 TIP3     1374     SWM4     OM       LPDW     -1.11466       0.00000          -1   0.00000       0.00000    
     33077 TIP3     1374     SWM4     H1       HDW      0.557330       1.00800           0   0.00000       0.00000    
     33078 TIP3     1374     SWM4     H2       HDW      0.557330       1.00800           0   0.00000       0.00000    
     33079 TIP3     1375     SWM4     OH2      ODW       1.71640       15.5994           0 -0.978253       1.30000    
     33080 TIP3     1375     SWM4     DOH2     DOH2     -1.71640      0.400000           0   0.00000       0.00000    
     33081 TIP3     1375     SWM4     OM       LPDW     -1.11466       0.00000          -1   0.00000       0.00000    
     33082 TIP3     1375     SWM4     H1       HDW      0.557330       1.00800           0   0.00000       0.00000    
     33083 TIP3     1375     SWM4     H2       HDW      0.557330       1.00800           0   0.00000       0.00000    
     33084 TIP3     1376     SWM4     OH2      ODW       1.71640       15.5994           0 -0.978253       1.30000    
     33085 TIP3     1376     SWM4     DOH2     DOH2     -1.71640      0.400000           0   0.00000       0.00000    
     33086 TIP3     1376     SWM4     OM       LPDW     -1.11466       0.00000          -1   0.00000       0.00000    
     33087 TIP3     1376     SWM4     H1       HDW      0.557330       1.00800           0   0.00000       0.00000    
     33088 TIP3     1376     SWM4     H2       HDW      0.557330       1.00800           0   0.00000       0.00000    
     33089 TIP3     1377     SWM4     OH2      ODW       1.71640       15.5994           0 -0.978253       1.30000    
     33090 TIP3     1377     SWM4     DOH2     DOH2     -1.71640      0.400000           0   0.00000       0.00000    
     33091 TIP3     1377     SWM4     OM       LPDW     -1.11466       0.00000          -1   0.00000       0.00000    
     33092 TIP3     1377     SWM4     H1       HDW      0.557330       1.00800           0   0.00000       0.00000    
     33093 TIP3     1377     SWM4     H2       HDW      0.557330       1.00800           0   0.00000       0.00000    
     33094 TIP3     1378     SWM4     OH2      ODW       1.71640       15.5994           0 -0.978253       1.30000    
     33095 TIP3     1378     SWM4     DOH2     DOH2     -1.71640      0.400000           0   0.00000       0.00000    
     33096 TIP3     1378     SWM4     OM       LPDW     -1.11466       0.00000          -1   0.00000       0.00000    
     33097 TIP3     1378     SWM4     H1       HDW      0.557330       1.00800           0   0.00000       0.00000    
     33098 TIP3     1378     SWM4     H2       HDW      0.557330       1.00800           0   0.00000       0.00000    
     33099 TIP3     1379     SWM4     OH2      ODW       1.71640       15.5994           0 -0.978253       1.30000    
     33100 TIP3     1379     SWM4     DOH2     DOH2     -1.71640      0.400000           0   0.00000       0.00000    
     33101 TIP3     1379     SWM4     OM       LPDW     -1.11466       0.00000          -1   0.00000       0.00000    
     33102 TIP3     1379     SWM4     H1       HDW      0.557330       1.00800           0   0.00000       0.00000    
     33103 TIP3     1379     SWM4     H2       HDW      0.557330       1.00800           0   0.00000       0.00000    
     33104 TIP3     1380     SWM4     OH2      ODW       1.71640       15.5994           0 -0.978253       1.30000    
     33105 TIP3     1380     SWM4     DOH2     DOH2     -1.71640      0.400000           0   0.00000       0.00000    
     33106 TIP3     1380     SWM4     OM       LPDW     -1.11466       0.00000          -1   0.00000       0.00000    
     33107 TIP3     1380     SWM4     H1       HDW      0.557330       1.00800           0   0.00000       0.00000    
     33108 TIP3     1380     SWM4     H2       HDW      0.557330       1.00800           0   0.00000       0.00000    
     33109 TIP3     1381     SWM4     OH2      ODW       1.71640       15.5994           0 -0.978253       1.30000    
     33110 TIP3     1381     SWM4     DOH2     DOH2     -1.71640      0.400000           0   0.00000       0.00000    
     33111 TIP3     1381     SWM4     OM       LPDW     -1.11466       0.00000          -1   0.00000       0.00000    
     33112 TIP3     1381     SWM4     H1       HDW      0.557330       1.00800           0   0.00000       0.00000    
     33113 TIP3     1381     SWM4     H2       HDW      0.557330       1.00800           0   0.00000       0.00000    
     33114 TIP3     1382     SWM4     OH2      ODW       1.71640       15.5994           0 -0.978253       1.30000    
     33115 TIP3     1382     SWM4     DOH2     DOH2     -1.71640      0.400000           0   0.00000       0.00000    
     33116 TIP3     1382     SWM4     OM       LPDW     -1.11466       0.00000          -1   0.00000       0.00000    
     33117 TIP3     1382     SWM4     H1       HDW      0.557330       1.00800           0   0.00000       0.00000    
     33118 TIP3     1382     SWM4     H2       HDW      0.557330       1.00800           0   0.00000       0.00000    
     33119 TIP3     1383     SWM4     OH2      ODW       1.71640       15.5994           0 -0.978253       1.30000    
     33120 TIP3     1383     SWM4     DOH2     DOH2     -1.71640      0.400000           0   0.00000       0.00000    
     33121 TIP3     1383     SWM4     OM       LPDW     -1.11466       0.00000          -1   0.00000       0.00000    
     33122 TIP3     1383     SWM4     H1       HDW      0.557330       1.00800           0   0.00000       0.00000    
     33123 TIP3     1383     SWM4     H2       HDW      0.557330       1.00800           0   0.00000       0.00000    
     33124 TIP3     1384     SWM4     OH2      ODW       1.71640       15.5994           0 -0.978253       1.30000    
     33125 TIP3     1384     SWM4     DOH2     DOH2     -1.71640      0.400000           0   0.00000       0.00000    
     33126 TIP3     1384     SWM4     OM       LPDW     -1.11466       0.00000          -1   0.00000       0.00000    
     33127 TIP3     1384     SWM4     H1       HDW      0.557330       1.00800           0   0.00000       0.00000    
     33128 TIP3     1384     SWM4     H2       HDW      0.557330       1.00800           0   0.00000       0.00000    
     33129 TIP3     1385     SWM4     OH2      ODW       1.71640       15.5994           0 -0.978253       1.30000    
     33130 TIP3     1385     SWM4     DOH2     DOH2     -1.71640      0.400000           0   0.00000       0.00000    
     33131 TIP3     1385     SWM4     OM       LPDW     -1.11466       0.00000          -1   0.00000       0.00000    
     33132 TIP3     1385     SWM4     H1       HDW      0.557330       1.00800           0   0.00000       0.00000    
     33133 TIP3     1385     SWM4     H2       HDW      0.557330       1.00800           0   0.00000       0.00000    
     33134 TIP3     1386     SWM4     OH2      ODW       1.71640       15.5994           0 -0.978253       1.30000    
     33135 TIP3     1386     SWM4     DOH2     DOH2     -1.71640      0.400000           0   0.00000       0.00000    
     33136 TIP3     1386     SWM4     OM       LPDW     -1.11466       0.00000          -1   0.00000       0.00000    
     33137 TIP3     1386     SWM4     H1       HDW      0.557330       1.00800           0   0.00000       0.00000    
     33138 TIP3     1386     SWM4     H2       HDW      0.557330       1.00800           0   0.00000       0.00000    
     33139 TIP3     1387     SWM4     OH2      ODW       1.71640       15.5994           0 -0.978253       1.30000    
     33140 TIP3     1387     SWM4     DOH2     DOH2     -1.71640      0.400000           0   0.00000       0.00000    
     33141 TIP3     1387     SWM4     OM       LPDW     -1.11466       0.00000          -1   0.00000       0.00000    
     33142 TIP3     1387     SWM4     H1       HDW      0.557330       1.00800           0   0.00000       0.00000    
     33143 TIP3     1387     SWM4     H2       HDW      0.557330       1.00800           0   0.00000       0.00000    
     33144 TIP3     1388     SWM4     OH2      ODW       1.71640       15.5994           0 -0.978253       1.30000    
     33145 TIP3     1388     SWM4     DOH2     DOH2     -1.71640      0.400000           0   0.00000       0.00000    
     33146 TIP3     1388     SWM4     OM       LPDW     -1.11466       0.00000          -1   0.00000       0.00000    
     33147 TIP3     1388     SWM4     H1       HDW      0.557330       1.00800           0   0.00000       0.00000    
     33148 TIP3     1388     SWM4     H2       HDW      0.557330       1.00800           0   0.00000       0.00000    
     33149 TIP3     1389     SWM4     OH2      ODW       1.71640       15.5994           0 -0.978253       1.30000    
     33150 TIP3     1389     SWM4     DOH2     DOH2     -1.71640      0.400000           0   0.00000       0.00000    
     33151 TIP3     1389     SWM4     OM       LPDW     -1.11466       0.00000          -1   0.00000       0.00000    
     33152 TIP3     1389     SWM4     H1       HDW      0.557330       1.00800           0   0.00000       0.00000    
     33153 TIP3     1389     SWM4     H2       HDW      0.557330       1.00800           0   0.00000       0.00000    
     33154 TIP3     1390     SWM4     OH2      ODW       1.71640       15.5994           0 -0.978253       1.30000    
     33155 TIP3     1390     SWM4     DOH2     DOH2     -1.71640      0.400000           0   0.00000       0.00000    
     33156 TIP3     1390     SWM4     OM       LPDW     -1.11466       0.00000          -1   0.00000       0.00000    
     33157 TIP3     1390     SWM4     H1       HDW      0.557330       1.00800           0   0.00000       0.00000    
     33158 TIP3     1390     SWM4     H2       HDW      0.557330       1.00800           0   0.00000       0.00000    
     33159 TIP3     1391     SWM4     OH2      ODW       1.71640       15.5994           0 -0.978253       1.30000    
     33160 TIP3     1391     SWM4     DOH2     DOH2     -1.71640      0.400000           0   0.00000       0.00000    
     33161 TIP3     1391     SWM4     OM       LPDW     -1.11466       0.00000          -1   0.00000       0.00000    
     33162 TIP3     1391     SWM4     H1       HDW      0.557330       1.00800           0   0.00000       0.00000    
     33163 TIP3     1391     SWM4     H2       HDW      0.557330       1.00800           0   0.00000       0.00000    
     33164 TIP3     1392     SWM4     OH2      ODW       1.71640       15.5994           0 -0.978253       1.30000    
     33165 TIP3     1392     SWM4     DOH2     DOH2     -1.71640      0.400000           0   0.00000       0.00000    
     33166 TIP3     1392     SWM4     OM       LPDW     -1.11466       0.00000          -1   0.00000       0.00000    
     33167 TIP3     1392     SWM4     H1       HDW      0.557330       1.00800           0   0.00000       0.00000    
     33168 TIP3     1392     SWM4     H2       HDW      0.557330       1.00800           0   0.00000       0.00000    
     33169 TIP3     1393     SWM4     OH2      ODW       1.71640       15.5994           0 -0.978253       1.30000    
     33170 TIP3     1393     SWM4     DOH2     DOH2     -1.71640      0.400000           0   0.00000       0.00000    
     33171 TIP3     1393     SWM4     OM       LPDW     -1.11466       0.00000          -1   0.00000       0.00000    
     33172 TIP3     1393     SWM4     H1       HDW      0.557330       1.00800           0   0.00000       0.00000    
     33173 TIP3     1393     SWM4     H2       HDW      0.557330       1.00800           0   0.00000       0.00000    
     33174 TIP3     1394     SWM4     OH2      ODW       1.71640       15.5994           0 -0.978253       1.30000    
     33175 TIP3     1394     SWM4     DOH2     DOH2     -1.71640      0.400000           0   0.00000       0.00000    
     33176 TIP3     1394     SWM4     OM       LPDW     -1.11466       0.00000          -1   0.00000       0.00000    
     33177 TIP3     1394     SWM4     H1       HDW      0.557330       1.00800           0   0.00000       0.00000    
     33178 TIP3     1394     SWM4     H2       HDW      0.557330       1.00800           0   0.00000       0.00000    
     33179 TIP3     1395     SWM4     OH2      ODW       1.71640       15.5994           0 -0.978253       1.30000    
     33180 TIP3     1395     SWM4     DOH2     DOH2     -1.71640      0.400000           0   0.00000       0.00000    
     33181 TIP3     1395     SWM4     OM       LPDW     -1.11466       0.00000          -1   0.00000       0.00000    
     33182 TIP3     1395     SWM4     H1       HDW      0.557330       1.00800           0   0.00000       0.00000    
     33183 TIP3     1395     SWM4     H2       HDW      0.557330       1.00800           0   0.00000       0.00000    
     33184 TIP3     1396     SWM4     OH2      ODW       1.71640       15.5994           0 -0.978253       1.30000    
     33185 TIP3     1396     SWM4     DOH2     DOH2     -1.71640      0.400000           0   0.00000       0.00000    
     33186 TIP3     1396     SWM4     OM       LPDW     -1.11466       0.00000          -1   0.00000       0.00000    
     33187 TIP3     1396     SWM4     H1       HDW      0.557330       1.00800           0   0.00000       0.00000    
     33188 TIP3     1396     SWM4     H2       HDW      0.557330       1.00800           0   0.00000       0.00000    
     33189 TIP3     1397     SWM4     OH2      ODW       1.71640       15.5994           0 -0.978253       1.30000    
     33190 TIP3     1397     SWM4     DOH2     DOH2     -1.71640      0.400000           0   0.00000       0.00000    
     33191 TIP3     1397     SWM4     OM       LPDW     -1.11466       0.00000          -1   0.00000       0.00000    
     33192 TIP3     1397     SWM4     H1       HDW      0.557330       1.00800           0   0.00000       0.00000    
     33193 TIP3     1397     SWM4     H2       HDW      0.557330       1.00800           0   0.00000       0.00000    
     33194 TIP3     1398     SWM4     OH2      ODW       1.71640       15.5994           0 -0.978253       1.30000    
     33195 TIP3     1398     SWM4     DOH2     DOH2     -1.71640      0.400000           0   0.00000       0.00000    
     33196 TIP3     1398     SWM4     OM       LPDW     -1.11466       0.00000          -1   0.00000       0.00000    
     33197 TIP3     1398     SWM4     H1       HDW      0.557330       1.00800           0   0.00000       0.00000    
     33198 TIP3     1398     SWM4     H2       HDW      0.557330       1.00800           0   0.00000       0.00000    
     33199 TIP3     1399     SWM4     OH2      ODW       1.71640       15.5994           0 -0.978253       1.30000    
     33200 TIP3     1399     SWM4     DOH2     DOH2     -1.71640      0.400000           0   0.00000       0.00000    
     33201 TIP3     1399     SWM4     OM       LPDW     -1.11466       0.00000          -1   0.00000       0.00000    
     33202 TIP3     1399     SWM4     H1       HDW      0.557330       1.00800           0   0.00000       0.00000    
     33203 TIP3     1399     SWM4     H2       HDW      0.557330       1.00800           0   0.00000       0.00000    
     33204 TIP3     1400     SWM4     OH2      ODW       1.71640       15.5994           0 -0.978253       1.30000    
     33205 TIP3     1400     SWM4     DOH2     DOH2     -1.71640      0.400000           0   0.00000       0.00000    
     33206 TIP3     1400     SWM4     OM       LPDW     -1.11466       0.00000          -1   0.00000       0.00000    
     33207 TIP3     1400     SWM4     H1       HDW      0.557330       1.00800           0   0.00000       0.00000    
     33208 TIP3     1400     SWM4     H2       HDW      0.557330       1.00800           0   0.00000       0.00000    
     33209 TIP3     1401     SWM4     OH2      ODW       1.71640       15.5994           0 -0.978253       1.30000    
     33210 TIP3     1401     SWM4     DOH2     DOH2     -1.71640      0.400000           0   0.00000       0.00000    
     33211 TIP3     1401     SWM4     OM       LPDW     -1.11466       0.00000          -1   0.00000       0.00000    
     33212 TIP3     1401     SWM4     H1       HDW      0.557330       1.00800           0   0.00000       0.00000    
     33213 TIP3     1401     SWM4     H2       HDW      0.557330       1.00800           0   0.00000       0.00000    
     33214 TIP3     1402     SWM4     OH2      ODW       1.71640       15.5994           0 -0.978253       1.30000    
     33215 TIP3     1402     SWM4     DOH2     DOH2     -1.71640      0.400000           0   0.00000       0.00000    
     33216 TIP3     1402     SWM4     OM       LPDW     -1.11466       0.00000          -1   0.00000       0.00000    
     33217 TIP3     1402     SWM4     H1       HDW      0.557330       1.00800           0   0.00000       0.00000    
     33218 TIP3     1402     SWM4     H2       HDW      0.557330       1.00800           0   0.00000       0.00000    
     33219 TIP3     1403     SWM4     OH2      ODW       1.71640       15.5994           0 -0.978253       1.30000    
     33220 TIP3     1403     SWM4     DOH2     DOH2     -1.71640      0.400000           0   0.00000       0.00000    
     33221 TIP3     1403     SWM4     OM       LPDW     -1.11466       0.00000          -1   0.00000       0.00000    
     33222 TIP3     1403     SWM4     H1       HDW      0.557330       1.00800           0   0.00000       0.00000    
     33223 TIP3     1403     SWM4     H2       HDW      0.557330       1.00800           0   0.00000       0.00000    
     33224 TIP3     1404     SWM4     OH2      ODW       1.71640       15.5994           0 -0.978253       1.30000    
     33225 TIP3     1404     SWM4     DOH2     DOH2     -1.71640      0.400000           0   0.00000       0.00000    
     33226 TIP3     1404     SWM4     OM       LPDW     -1.11466       0.00000          -1   0.00000       0.00000    
     33227 TIP3     1404     SWM4     H1       HDW      0.557330       1.00800           0   0.00000       0.00000    
     33228 TIP3     1404     SWM4     H2       HDW      0.557330       1.00800           0   0.00000       0.00000    
     33229 TIP3     1405     SWM4     OH2      ODW       1.71640       15.5994           0 -0.978253       1.30000    
     33230 TIP3     1405     SWM4     DOH2     DOH2     -1.71640      0.400000           0   0.00000       0.00000    
     33231 TIP3     1405     SWM4     OM       LPDW     -1.11466       0.00000          -1   0.00000       0.00000    
     33232 TIP3     1405     SWM4     H1       HDW      0.557330       1.00800           0   0.00000       0.00000    
     33233 TIP3     1405     SWM4     H2       HDW      0.557330       1.00800           0   0.00000       0.00000    
     33234 TIP3     1406     SWM4     OH2      ODW       1.71640       15.5994           0 -0.978253       1.30000    
     33235 TIP3     1406     SWM4     DOH2     DOH2     -1.71640      0.400000           0   0.00000       0.00000    
     33236 TIP3     1406     SWM4     OM       LPDW     -1.11466       0.00000          -1   0.00000       0.00000    
     33237 TIP3     1406     SWM4     H1       HDW      0.557330       1.00800           0   0.00000       0.00000    
     33238 TIP3     1406     SWM4     H2       HDW      0.557330       1.00800           0   0.00000       0.00000    
     33239 TIP3     1407     SWM4     OH2      ODW       1.71640       15.5994           0 -0.978253       1.30000    
     33240 TIP3     1407     SWM4     DOH2     DOH2     -1.71640      0.400000           0   0.00000       0.00000    
     33241 TIP3     1407     SWM4     OM       LPDW     -1.11466       0.00000          -1   0.00000       0.00000    
     33242 TIP3     1407     SWM4     H1       HDW      0.557330       1.00800           0   0.00000       0.00000    
     33243 TIP3     1407     SWM4     H2       HDW      0.557330       1.00800           0   0.00000       0.00000    
     33244 TIP3     1408     SWM4     OH2      ODW       1.71640       15.5994           0 -0.978253       1.30000    
     33245 TIP3     1408     SWM4     DOH2     DOH2     -1.71640      0.400000           0   0.00000       0.00000    
     33246 TIP3     1408     SWM4     OM       LPDW     -1.11466       0.00000          -1   0.00000       0.00000    
     33247 TIP3     1408     SWM4     H1       HDW      0.557330       1.00800           0   0.00000       0.00000    
     33248 TIP3     1408     SWM4     H2       HDW      0.557330       1.00800           0   0.00000       0.00000    
     33249 TIP3     1409     SWM4     OH2      ODW       1.71640       15.5994           0 -0.978253       1.30000    
     33250 TIP3     1409     SWM4     DOH2     DOH2     -1.71640      0.400000           0   0.00000       0.00000    
     33251 TIP3     1409     SWM4     OM       LPDW     -1.11466       0.00000          -1   0.00000       0.00000    
     33252 TIP3     1409     SWM4     H1       HDW      0.557330       1.00800           0   0.00000       0.00000    
     33253 TIP3     1409     SWM4     H2       HDW      0.557330       1.00800           0   0.00000       0.00000    
     33254 TIP3     1410     SWM4     OH2      ODW       1.71640       15.5994           0 -0.978253       1.30000    
     33255 TIP3     1410     SWM4     DOH2     DOH2     -1.71640      0.400000           0   0.00000       0.00000    
     33256 TIP3     1410     SWM4     OM       LPDW     -1.11466       0.00000          -1   0.00000       0.00000    
     33257 TIP3     1410     SWM4     H1       HDW      0.557330       1.00800           0   0.00000       0.00000    
     33258 TIP3     1410     SWM4     H2       HDW      0.557330       1.00800           0   0.00000       0.00000    
     33259 TIP3     1411     SWM4     OH2      ODW       1.71640       15.5994           0 -0.978253       1.30000    
     33260 TIP3     1411     SWM4     DOH2     DOH2     -1.71640      0.400000           0   0.00000       0.00000    
     33261 TIP3     1411     SWM4     OM       LPDW     -1.11466       0.00000          -1   0.00000       0.00000    
     33262 TIP3     1411     SWM4     H1       HDW      0.557330       1.00800           0   0.00000       0.00000    
     33263 TIP3     1411     SWM4     H2       HDW      0.557330       1.00800           0   0.00000       0.00000    
     33264 TIP3     1412     SWM4     OH2      ODW       1.71640       15.5994           0 -0.978253       1.30000    
     33265 TIP3     1412     SWM4     DOH2     DOH2     -1.71640      0.400000           0   0.00000       0.00000    
     33266 TIP3     1412     SWM4     OM       LPDW     -1.11466       0.00000          -1   0.00000       0.00000    
     33267 TIP3     1412     SWM4     H1       HDW      0.557330       1.00800           0   0.00000       0.00000    
     33268 TIP3     1412     SWM4     H2       HDW      0.557330       1.00800           0   0.00000       0.00000    
     33269 TIP3     1413     SWM4     OH2      ODW       1.71640       15.5994           0 -0.978253       1.30000    
     33270 TIP3     1413     SWM4     DOH2     DOH2     -1.71640      0.400000           0   0.00000       0.00000    
     33271 TIP3     1413     SWM4     OM       LPDW     -1.11466       0.00000          -1   0.00000       0.00000    
     33272 TIP3     1413     SWM4     H1       HDW      0.557330       1.00800           0   0.00000       0.00000    
     33273 TIP3     1413     SWM4     H2       HDW      0.557330       1.00800           0   0.00000       0.00000    
     33274 TIP3     1414     SWM4     OH2      ODW       1.71640       15.5994           0 -0.978253       1.30000    
     33275 TIP3     1414     SWM4     DOH2     DOH2     -1.71640      0.400000           0   0.00000       0.00000    
     33276 TIP3     1414     SWM4     OM       LPDW     -1.11466       0.00000          -1   0.00000       0.00000    
     33277 TIP3     1414     SWM4     H1       HDW      0.557330       1.00800           0   0.00000       0.00000    
     33278 TIP3     1414     SWM4     H2       HDW      0.557330       1.00800           0   0.00000       0.00000    
     33279 TIP3     1415     SWM4     OH2      ODW       1.71640       15.5994           0 -0.978253       1.30000    
     33280 TIP3     1415     SWM4     DOH2     DOH2     -1.71640      0.400000           0   0.00000       0.00000    
     33281 TIP3     1415     SWM4     OM       LPDW     -1.11466       0.00000          -1   0.00000       0.00000    
     33282 TIP3     1415     SWM4     H1       HDW      0.557330       1.00800           0   0.00000       0.00000    
     33283 TIP3     1415     SWM4     H2       HDW      0.557330       1.00800           0   0.00000       0.00000    
     33284 TIP3     1416     SWM4     OH2      ODW       1.71640       15.5994           0 -0.978253       1.30000    
     33285 TIP3     1416     SWM4     DOH2     DOH2     -1.71640      0.400000           0   0.00000       0.00000    
     33286 TIP3     1416     SWM4     OM       LPDW     -1.11466       0.00000          -1   0.00000       0.00000    
     33287 TIP3     1416     SWM4     H1       HDW      0.557330       1.00800           0   0.00000       0.00000    
     33288 TIP3     1416     SWM4     H2       HDW      0.557330       1.00800           0   0.00000       0.00000    
     33289 TIP3     1417     SWM4     OH2      ODW       1.71640       15.5994           0 -0.978253       1.30000    
     33290 TIP3     1417     SWM4     DOH2     DOH2     -1.71640      0.400000           0   0.00000       0.00000    
     33291 TIP3     1417     SWM4     OM       LPDW     -1.11466       0.00000          -1   0.00000       0.00000    
     33292 TIP3     1417     SWM4     H1       HDW      0.557330       1.00800           0   0.00000       0.00000    
     33293 TIP3     1417     SWM4     H2       HDW      0.557330       1.00800           0   0.00000       0.00000    
     33294 TIP3     1418     SWM4     OH2      ODW       1.71640       15.5994           0 -0.978253       1.30000    
     33295 TIP3     1418     SWM4     DOH2     DOH2     -1.71640      0.400000           0   0.00000       0.00000    
     33296 TIP3     1418     SWM4     OM       LPDW     -1.11466       0.00000          -1   0.00000       0.00000    
     33297 TIP3     1418     SWM4     H1       HDW      0.557330       1.00800           0   0.00000       0.00000    
     33298 TIP3     1418     SWM4     H2       HDW      0.557330       1.00800           0   0.00000       0.00000    
     33299 TIP3     1419     SWM4     OH2      ODW       1.71640       15.5994           0 -0.978253       1.30000    
     33300 TIP3     1419     SWM4     DOH2     DOH2     -1.71640      0.400000           0   0.00000       0.00000    
     33301 TIP3     1419     SWM4     OM       LPDW     -1.11466       0.00000          -1   0.00000       0.00000    
     33302 TIP3     1419     SWM4     H1       HDW      0.557330       1.00800           0   0.00000       0.00000    
     33303 TIP3     1419     SWM4     H2       HDW      0.557330       1.00800           0   0.00000       0.00000    
     33304 TIP3     1420     SWM4     OH2      ODW       1.71640       15.5994           0 -0.978253       1.30000    
     33305 TIP3     1420     SWM4     DOH2     DOH2     -1.71640      0.400000           0   0.00000       0.00000    
     33306 TIP3     1420     SWM4     OM       LPDW     -1.11466       0.00000          -1   0.00000       0.00000    
     33307 TIP3     1420     SWM4     H1       HDW      0.557330       1.00800           0   0.00000       0.00000    
     33308 TIP3     1420     SWM4     H2       HDW      0.557330       1.00800           0   0.00000       0.00000    
     33309 TIP3     1421     SWM4     OH2      ODW       1.71640       15.5994           0 -0.978253       1.30000    
     33310 TIP3     1421     SWM4     DOH2     DOH2     -1.71640      0.400000           0   0.00000       0.00000    
     33311 TIP3     1421     SWM4     OM       LPDW     -1.11466       0.00000          -1   0.00000       0.00000    
     33312 TIP3     1421     SWM4     H1       HDW      0.557330       1.00800           0   0.00000       0.00000    
     33313 TIP3     1421     SWM4     H2       HDW      0.557330       1.00800           0   0.00000       0.00000    
     33314 TIP3     1422     SWM4     OH2      ODW       1.71640       15.5994           0 -0.978253       1.30000    
     33315 TIP3     1422     SWM4     DOH2     DOH2     -1.71640      0.400000           0   0.00000       0.00000    
     33316 TIP3     1422     SWM4     OM       LPDW     -1.11466       0.00000          -1   0.00000       0.00000    
     33317 TIP3     1422     SWM4     H1       HDW      0.557330       1.00800           0   0.00000       0.00000    
     33318 TIP3     1422     SWM4     H2       HDW      0.557330       1.00800           0   0.00000       0.00000    
     33319 TIP3     1423     SWM4     OH2      ODW       1.71640       15.5994           0 -0.978253       1.30000    
     33320 TIP3     1423     SWM4     DOH2     DOH2     -1.71640      0.400000           0   0.00000       0.00000    
     33321 TIP3     1423     SWM4     OM       LPDW     -1.11466       0.00000          -1   0.00000       0.00000    
     33322 TIP3     1423     SWM4     H1       HDW      0.557330       1.00800           0   0.00000       0.00000    
     33323 TIP3     1423     SWM4     H2       HDW      0.557330       1.00800           0   0.00000       0.00000    
     33324 TIP3     1424     SWM4     OH2      ODW       1.71640       15.5994           0 -0.978253       1.30000    
     33325 TIP3     1424     SWM4     DOH2     DOH2     -1.71640      0.400000           0   0.00000       0.00000    
     33326 TIP3     1424     SWM4     OM       LPDW     -1.11466       0.00000          -1   0.00000       0.00000    
     33327 TIP3     1424     SWM4     H1       HDW      0.557330       1.00800           0   0.00000       0.00000    
     33328 TIP3     1424     SWM4     H2       HDW      0.557330       1.00800           0   0.00000       0.00000    
     33329 TIP3     1425     SWM4     OH2      ODW       1.71640       15.5994           0 -0.978253       1.30000    
     33330 TIP3     1425     SWM4     DOH2     DOH2     -1.71640      0.400000           0   0.00000       0.00000    
     33331 TIP3     1425     SWM4     OM       LPDW     -1.11466       0.00000          -1   0.00000       0.00000    
     33332 TIP3     1425     SWM4     H1       HDW      0.557330       1.00800           0   0.00000       0.00000    
     33333 TIP3     1425     SWM4     H2       HDW      0.557330       1.00800           0   0.00000       0.00000    
     33334 TIP3     1426     SWM4     OH2      ODW       1.71640       15.5994           0 -0.978253       1.30000    
     33335 TIP3     1426     SWM4     DOH2     DOH2     -1.71640      0.400000           0   0.00000       0.00000    
     33336 TIP3     1426     SWM4     OM       LPDW     -1.11466       0.00000          -1   0.00000       0.00000    
     33337 TIP3     1426     SWM4     H1       HDW      0.557330       1.00800           0   0.00000       0.00000    
     33338 TIP3     1426     SWM4     H2       HDW      0.557330       1.00800           0   0.00000       0.00000    
     33339 TIP3     1427     SWM4     OH2      ODW       1.71640       15.5994           0 -0.978253       1.30000    
     33340 TIP3     1427     SWM4     DOH2     DOH2     -1.71640      0.400000           0   0.00000       0.00000    
     33341 TIP3     1427     SWM4     OM       LPDW     -1.11466       0.00000          -1   0.00000       0.00000    
     33342 TIP3     1427     SWM4     H1       HDW      0.557330       1.00800           0   0.00000       0.00000    
     33343 TIP3     1427     SWM4     H2       HDW      0.557330       1.00800           0   0.00000       0.00000    
     33344 TIP3     1428     SWM4     OH2      ODW       1.71640       15.5994           0 -0.978253       1.30000    
     33345 TIP3     1428     SWM4     DOH2     DOH2     -1.71640      0.400000           0   0.00000       0.00000    
     33346 TIP3     1428     SWM4     OM       LPDW     -1.11466       0.00000          -1   0.00000       0.00000    
     33347 TIP3     1428     SWM4     H1       HDW      0.557330       1.00800           0   0.00000       0.00000    
     33348 TIP3     1428     SWM4     H2       HDW      0.557330       1.00800           0   0.00000       0.00000    
     33349 TIP3     1429     SWM4     OH2      ODW       1.71640       15.5994           0 -0.978253       1.30000    
     33350 TIP3     1429     SWM4     DOH2     DOH2     -1.71640      0.400000           0   0.00000       0.00000    
     33351 TIP3     1429     SWM4     OM       LPDW     -1.11466       0.00000          -1   0.00000       0.00000    
     33352 TIP3     1429     SWM4     H1       HDW      0.557330       1.00800           0   0.00000       0.00000    
     33353 TIP3     1429     SWM4     H2       HDW      0.557330       1.00800           0   0.00000       0.00000    
     33354 TIP3     1430     SWM4     OH2      ODW       1.71640       15.5994           0 -0.978253       1.30000    
     33355 TIP3     1430     SWM4     DOH2     DOH2     -1.71640      0.400000           0   0.00000       0.00000    
     33356 TIP3     1430     SWM4     OM       LPDW     -1.11466       0.00000          -1   0.00000       0.00000    
     33357 TIP3     1430     SWM4     H1       HDW      0.557330       1.00800           0   0.00000       0.00000    
     33358 TIP3     1430     SWM4     H2       HDW      0.557330       1.00800           0   0.00000       0.00000    
     33359 TIP3     1431     SWM4     OH2      ODW       1.71640       15.5994           0 -0.978253       1.30000    
     33360 TIP3     1431     SWM4     DOH2     DOH2     -1.71640      0.400000           0   0.00000       0.00000    
     33361 TIP3     1431     SWM4     OM       LPDW     -1.11466       0.00000          -1   0.00000       0.00000    
     33362 TIP3     1431     SWM4     H1       HDW      0.557330       1.00800           0   0.00000       0.00000    
     33363 TIP3     1431     SWM4     H2       HDW      0.557330       1.00800           0   0.00000       0.00000    
     33364 TIP3     1432     SWM4     OH2      ODW       1.71640       15.5994           0 -0.978253       1.30000    
     33365 TIP3     1432     SWM4     DOH2     DOH2     -1.71640      0.400000           0   0.00000       0.00000    
     33366 TIP3     1432     SWM4     OM       LPDW     -1.11466       0.00000          -1   0.00000       0.00000    
     33367 TIP3     1432     SWM4     H1       HDW      0.557330       1.00800           0   0.00000       0.00000    
     33368 TIP3     1432     SWM4     H2       HDW      0.557330       1.00800           0   0.00000       0.00000    
     33369 TIP3     1433     SWM4     OH2      ODW       1.71640       15.5994           0 -0.978253       1.30000    
     33370 TIP3     1433     SWM4     DOH2     DOH2     -1.71640      0.400000           0   0.00000       0.00000    
     33371 TIP3     1433     SWM4     OM       LPDW     -1.11466       0.00000          -1   0.00000       0.00000    
     33372 TIP3     1433     SWM4     H1       HDW      0.557330       1.00800           0   0.00000       0.00000    
     33373 TIP3     1433     SWM4     H2       HDW      0.557330       1.00800           0   0.00000       0.00000    
     33374 TIP3     1434     SWM4     OH2      ODW       1.71640       15.5994           0 -0.978253       1.30000    
     33375 TIP3     1434     SWM4     DOH2     DOH2     -1.71640      0.400000           0   0.00000       0.00000    
     33376 TIP3     1434     SWM4     OM       LPDW     -1.11466       0.00000          -1   0.00000       0.00000    
     33377 TIP3     1434     SWM4     H1       HDW      0.557330       1.00800           0   0.00000       0.00000    
     33378 TIP3     1434     SWM4     H2       HDW      0.557330       1.00800           0   0.00000       0.00000    
     33379 TIP3     1435     SWM4     OH2      ODW       1.71640       15.5994           0 -0.978253       1.30000    
     33380 TIP3     1435     SWM4     DOH2     DOH2     -1.71640      0.400000           0   0.00000       0.00000    
     33381 TIP3     1435     SWM4     OM       LPDW     -1.11466       0.00000          -1   0.00000       0.00000    
     33382 TIP3     1435     SWM4     H1       HDW      0.557330       1.00800           0   0.00000       0.00000    
     33383 TIP3     1435     SWM4     H2       HDW      0.557330       1.00800           0   0.00000       0.00000    
     33384 TIP3     1436     SWM4     OH2      ODW       1.71640       15.5994           0 -0.978253       1.30000    
     33385 TIP3     1436     SWM4     DOH2     DOH2     -1.71640      0.400000           0   0.00000       0.00000    
     33386 TIP3     1436     SWM4     OM       LPDW     -1.11466       0.00000          -1   0.00000       0.00000    
     33387 TIP3     1436     SWM4     H1       HDW      0.557330       1.00800           0   0.00000       0.00000    
     33388 TIP3     1436     SWM4     H2       HDW      0.557330       1.00800           0   0.00000       0.00000    
     33389 TIP3     1437     SWM4     OH2      ODW       1.71640       15.5994           0 -0.978253       1.30000    
     33390 TIP3     1437     SWM4     DOH2     DOH2     -1.71640      0.400000           0   0.00000       0.00000    
     33391 TIP3     1437     SWM4     OM       LPDW     -1.11466       0.00000          -1   0.00000       0.00000    
     33392 TIP3     1437     SWM4     H1       HDW      0.557330       1.00800           0   0.00000       0.00000    
     33393 TIP3     1437     SWM4     H2       HDW      0.557330       1.00800           0   0.00000       0.00000    
     33394 TIP3     1438     SWM4     OH2      ODW       1.71640       15.5994           0 -0.978253       1.30000    
     33395 TIP3     1438     SWM4     DOH2     DOH2     -1.71640      0.400000           0   0.00000       0.00000    
     33396 TIP3     1438     SWM4     OM       LPDW     -1.11466       0.00000          -1   0.00000       0.00000    
     33397 TIP3     1438     SWM4     H1       HDW      0.557330       1.00800           0   0.00000       0.00000    
     33398 TIP3     1438     SWM4     H2       HDW      0.557330       1.00800           0   0.00000       0.00000    
     33399 TIP3     1439     SWM4     OH2      ODW       1.71640       15.5994           0 -0.978253       1.30000    
     33400 TIP3     1439     SWM4     DOH2     DOH2     -1.71640      0.400000           0   0.00000       0.00000    
     33401 TIP3     1439     SWM4     OM       LPDW     -1.11466       0.00000          -1   0.00000       0.00000    
     33402 TIP3     1439     SWM4     H1       HDW      0.557330       1.00800           0   0.00000       0.00000    
     33403 TIP3     1439     SWM4     H2       HDW      0.557330       1.00800           0   0.00000       0.00000    
     33404 TIP3     1440     SWM4     OH2      ODW       1.71640       15.5994           0 -0.978253       1.30000    
     33405 TIP3     1440     SWM4     DOH2     DOH2     -1.71640      0.400000           0   0.00000       0.00000    
     33406 TIP3     1440     SWM4     OM       LPDW     -1.11466       0.00000          -1   0.00000       0.00000    
     33407 TIP3     1440     SWM4     H1       HDW      0.557330       1.00800           0   0.00000       0.00000    
     33408 TIP3     1440     SWM4     H2       HDW      0.557330       1.00800           0   0.00000       0.00000    
     33409 TIP3     1441     SWM4     OH2      ODW       1.71640       15.5994           0 -0.978253       1.30000    
     33410 TIP3     1441     SWM4     DOH2     DOH2     -1.71640      0.400000           0   0.00000       0.00000    
     33411 TIP3     1441     SWM4     OM       LPDW     -1.11466       0.00000          -1   0.00000       0.00000    
     33412 TIP3     1441     SWM4     H1       HDW      0.557330       1.00800           0   0.00000       0.00000    
     33413 TIP3     1441     SWM4     H2       HDW      0.557330       1.00800           0   0.00000       0.00000    
     33414 TIP3     1442     SWM4     OH2      ODW       1.71640       15.5994           0 -0.978253       1.30000    
     33415 TIP3     1442     SWM4     DOH2     DOH2     -1.71640      0.400000           0   0.00000       0.00000    
     33416 TIP3     1442     SWM4     OM       LPDW     -1.11466       0.00000          -1   0.00000       0.00000    
     33417 TIP3     1442     SWM4     H1       HDW      0.557330       1.00800           0   0.00000       0.00000    
     33418 TIP3     1442     SWM4     H2       HDW      0.557330       1.00800           0   0.00000       0.00000    
     33419 TIP3     1443     SWM4     OH2      ODW       1.71640       15.5994           0 -0.978253       1.30000    
     33420 TIP3     1443     SWM4     DOH2     DOH2     -1.71640      0.400000           0   0.00000       0.00000    
     33421 TIP3     1443     SWM4     OM       LPDW     -1.11466       0.00000          -1   0.00000       0.00000    
     33422 TIP3     1443     SWM4     H1       HDW      0.557330       1.00800           0   0.00000       0.00000    
     33423 TIP3     1443     SWM4     H2       HDW      0.557330       1.00800           0   0.00000       0.00000    
     33424 TIP3     1444     SWM4     OH2      ODW       1.71640       15.5994           0 -0.978253       1.30000    
     33425 TIP3     1444     SWM4     DOH2     DOH2     -1.71640      0.400000           0   0.00000       0.00000    
     33426 TIP3     1444     SWM4     OM       LPDW     -1.11466       0.00000          -1   0.00000       0.00000    
     33427 TIP3     1444     SWM4     H1       HDW      0.557330       1.00800           0   0.00000       0.00000    
     33428 TIP3     1444     SWM4     H2       HDW      0.557330       1.00800           0   0.00000       0.00000    
     33429 TIP3     1445     SWM4     OH2      ODW       1.71640       15.5994           0 -0.978253       1.30000    
     33430 TIP3     1445     SWM4     DOH2     DOH2     -1.71640      0.400000           0   0.00000       0.00000    
     33431 TIP3     1445     SWM4     OM       LPDW     -1.11466       0.00000          -1   0.00000       0.00000    
     33432 TIP3     1445     SWM4     H1       HDW      0.557330       1.00800           0   0.00000       0.00000    
     33433 TIP3     1445     SWM4     H2       HDW      0.557330       1.00800           0   0.00000       0.00000    
     33434 TIP3     1446     SWM4     OH2      ODW       1.71640       15.5994           0 -0.978253       1.30000    
     33435 TIP3     1446     SWM4     DOH2     DOH2     -1.71640      0.400000           0   0.00000       0.00000    
     33436 TIP3     1446     SWM4     OM       LPDW     -1.11466       0.00000          -1   0.00000       0.00000    
     33437 TIP3     1446     SWM4     H1       HDW      0.557330       1.00800           0   0.00000       0.00000    
     33438 TIP3     1446     SWM4     H2       HDW      0.557330       1.00800           0   0.00000       0.00000    
     33439 TIP3     1447     SWM4     OH2      ODW       1.71640       15.5994           0 -0.978253       1.30000    
     33440 TIP3     1447     SWM4     DOH2     DOH2     -1.71640      0.400000           0   0.00000       0.00000    
     33441 TIP3     1447     SWM4     OM       LPDW     -1.11466       0.00000          -1   0.00000       0.00000    
     33442 TIP3     1447     SWM4     H1       HDW      0.557330       1.00800           0   0.00000       0.00000    
     33443 TIP3     1447     SWM4     H2       HDW      0.557330       1.00800           0   0.00000       0.00000    
     33444 TIP3     1448     SWM4     OH2      ODW       1.71640       15.5994           0 -0.978253       1.30000    
     33445 TIP3     1448     SWM4     DOH2     DOH2     -1.71640      0.400000           0   0.00000       0.00000    
     33446 TIP3     1448     SWM4     OM       LPDW     -1.11466       0.00000          -1   0.00000       0.00000    
     33447 TIP3     1448     SWM4     H1       HDW      0.557330       1.00800           0   0.00000       0.00000    
     33448 TIP3     1448     SWM4     H2       HDW      0.557330       1.00800           0   0.00000       0.00000    
     33449 TIP3     1449     SWM4     OH2      ODW       1.71640       15.5994           0 -0.978253       1.30000    
     33450 TIP3     1449     SWM4     DOH2     DOH2     -1.71640      0.400000           0   0.00000       0.00000    
     33451 TIP3     1449     SWM4     OM       LPDW     -1.11466       0.00000          -1   0.00000       0.00000    
     33452 TIP3     1449     SWM4     H1       HDW      0.557330       1.00800           0   0.00000       0.00000    
     33453 TIP3     1449     SWM4     H2       HDW      0.557330       1.00800           0   0.00000       0.00000    
     33454 TIP3     1450     SWM4     OH2      ODW       1.71640       15.5994           0 -0.978253       1.30000    
     33455 TIP3     1450     SWM4     DOH2     DOH2     -1.71640      0.400000           0   0.00000       0.00000    
     33456 TIP3     1450     SWM4     OM       LPDW     -1.11466       0.00000          -1   0.00000       0.00000    
     33457 TIP3     1450     SWM4     H1       HDW      0.557330       1.00800           0   0.00000       0.00000    
     33458 TIP3     1450     SWM4     H2       HDW      0.557330       1.00800           0   0.00000       0.00000    
     33459 TIP3     1451     SWM4     OH2      ODW       1.71640       15.5994           0 -0.978253       1.30000    
     33460 TIP3     1451     SWM4     DOH2     DOH2     -1.71640      0.400000           0   0.00000       0.00000    
     33461 TIP3     1451     SWM4     OM       LPDW     -1.11466       0.00000          -1   0.00000       0.00000    
     33462 TIP3     1451     SWM4     H1       HDW      0.557330       1.00800           0   0.00000       0.00000    
     33463 TIP3     1451     SWM4     H2       HDW      0.557330       1.00800           0   0.00000       0.00000    
     33464 TIP3     1452     SWM4     OH2      ODW       1.71640       15.5994           0 -0.978253       1.30000    
     33465 TIP3     1452     SWM4     DOH2     DOH2     -1.71640      0.400000           0   0.00000       0.00000    
     33466 TIP3     1452     SWM4     OM       LPDW     -1.11466       0.00000          -1   0.00000       0.00000    
     33467 TIP3     1452     SWM4     H1       HDW      0.557330       1.00800           0   0.00000       0.00000    
     33468 TIP3     1452     SWM4     H2       HDW      0.557330       1.00800           0   0.00000       0.00000    
     33469 TIP3     1453     SWM4     OH2      ODW       1.71640       15.5994           0 -0.978253       1.30000    
     33470 TIP3     1453     SWM4     DOH2     DOH2     -1.71640      0.400000           0   0.00000       0.00000    
     33471 TIP3     1453     SWM4     OM       LPDW     -1.11466       0.00000          -1   0.00000       0.00000    
     33472 TIP3     1453     SWM4     H1       HDW      0.557330       1.00800           0   0.00000       0.00000    
     33473 TIP3     1453     SWM4     H2       HDW      0.557330       1.00800           0   0.00000       0.00000    
     33474 TIP3     1454     SWM4     OH2      ODW       1.71640       15.5994           0 -0.978253       1.30000    
     33475 TIP3     1454     SWM4     DOH2     DOH2     -1.71640      0.400000           0   0.00000       0.00000    
     33476 TIP3     1454     SWM4     OM       LPDW     -1.11466       0.00000          -1   0.00000       0.00000    
     33477 TIP3     1454     SWM4     H1       HDW      0.557330       1.00800           0   0.00000       0.00000    
     33478 TIP3     1454     SWM4     H2       HDW      0.557330       1.00800           0   0.00000       0.00000    
     33479 TIP3     1455     SWM4     OH2      ODW       1.71640       15.5994           0 -0.978253       1.30000    
     33480 TIP3     1455     SWM4     DOH2     DOH2     -1.71640      0.400000           0   0.00000       0.00000    
     33481 TIP3     1455     SWM4     OM       LPDW     -1.11466       0.00000          -1   0.00000       0.00000    
     33482 TIP3     1455     SWM4     H1       HDW      0.557330       1.00800           0   0.00000       0.00000    
     33483 TIP3     1455     SWM4     H2       HDW      0.557330       1.00800           0   0.00000       0.00000    
     33484 TIP3     1456     SWM4     OH2      ODW       1.71640       15.5994           0 -0.978253       1.30000    
     33485 TIP3     1456     SWM4     DOH2     DOH2     -1.71640      0.400000           0   0.00000       0.00000    
     33486 TIP3     1456     SWM4     OM       LPDW     -1.11466       0.00000          -1   0.00000       0.00000    
     33487 TIP3     1456     SWM4     H1       HDW      0.557330       1.00800           0   0.00000       0.00000    
     33488 TIP3     1456     SWM4     H2       HDW      0.557330       1.00800           0   0.00000       0.00000    
     33489 TIP3     1457     SWM4     OH2      ODW       1.71640       15.5994           0 -0.978253       1.30000    
     33490 TIP3     1457     SWM4     DOH2     DOH2     -1.71640      0.400000           0   0.00000       0.00000    
     33491 TIP3     1457     SWM4     OM       LPDW     -1.11466       0.00000          -1   0.00000       0.00000    
     33492 TIP3     1457     SWM4     H1       HDW      0.557330       1.00800           0   0.00000       0.00000    
     33493 TIP3     1457     SWM4     H2       HDW      0.557330       1.00800           0   0.00000       0.00000    
     33494 TIP3     1458     SWM4     OH2      ODW       1.71640       15.5994           0 -0.978253       1.30000    
     33495 TIP3     1458     SWM4     DOH2     DOH2     -1.71640      0.400000           0   0.00000       0.00000    
     33496 TIP3     1458     SWM4     OM       LPDW     -1.11466       0.00000          -1   0.00000       0.00000    
     33497 TIP3     1458     SWM4     H1       HDW      0.557330       1.00800           0   0.00000       0.00000    
     33498 TIP3     1458     SWM4     H2       HDW      0.557330       1.00800           0   0.00000       0.00000    
     33499 TIP3     1459     SWM4     OH2      ODW       1.71640       15.5994           0 -0.978253       1.30000    
     33500 TIP3     1459     SWM4     DOH2     DOH2     -1.71640      0.400000           0   0.00000       0.00000    
     33501 TIP3     1459     SWM4     OM       LPDW     -1.11466       0.00000          -1   0.00000       0.00000    
     33502 TIP3     1459     SWM4     H1       HDW      0.557330       1.00800           0   0.00000       0.00000    
     33503 TIP3     1459     SWM4     H2       HDW      0.557330       1.00800           0   0.00000       0.00000    
     33504 TIP3     1460     SWM4     OH2      ODW       1.71640       15.5994           0 -0.978253       1.30000    
     33505 TIP3     1460     SWM4     DOH2     DOH2     -1.71640      0.400000           0   0.00000       0.00000    
     33506 TIP3     1460     SWM4     OM       LPDW     -1.11466       0.00000          -1   0.00000       0.00000    
     33507 TIP3     1460     SWM4     H1       HDW      0.557330       1.00800           0   0.00000       0.00000    
     33508 TIP3     1460     SWM4     H2       HDW      0.557330       1.00800           0   0.00000       0.00000    
     33509 TIP3     1461     SWM4     OH2      ODW       1.71640       15.5994           0 -0.978253       1.30000    
     33510 TIP3     1461     SWM4     DOH2     DOH2     -1.71640      0.400000           0   0.00000       0.00000    
     33511 TIP3     1461     SWM4     OM       LPDW     -1.11466       0.00000          -1   0.00000       0.00000    
     33512 TIP3     1461     SWM4     H1       HDW      0.557330       1.00800           0   0.00000       0.00000    
     33513 TIP3     1461     SWM4     H2       HDW      0.557330       1.00800           0   0.00000       0.00000    
     33514 TIP3     1462     SWM4     OH2      ODW       1.71640       15.5994           0 -0.978253       1.30000    
     33515 TIP3     1462     SWM4     DOH2     DOH2     -1.71640      0.400000           0   0.00000       0.00000    
     33516 TIP3     1462     SWM4     OM       LPDW     -1.11466       0.00000          -1   0.00000       0.00000    
     33517 TIP3     1462     SWM4     H1       HDW      0.557330       1.00800           0   0.00000       0.00000    
     33518 TIP3     1462     SWM4     H2       HDW      0.557330       1.00800           0   0.00000       0.00000    
     33519 TIP3     1463     SWM4     OH2      ODW       1.71640       15.5994           0 -0.978253       1.30000    
     33520 TIP3     1463     SWM4     DOH2     DOH2     -1.71640      0.400000           0   0.00000       0.00000    
     33521 TIP3     1463     SWM4     OM       LPDW     -1.11466       0.00000          -1   0.00000       0.00000    
     33522 TIP3     1463     SWM4     H1       HDW      0.557330       1.00800           0   0.00000       0.00000    
     33523 TIP3     1463     SWM4     H2       HDW      0.557330       1.00800           0   0.00000       0.00000    
     33524 TIP3     1464     SWM4     OH2      ODW       1.71640       15.5994           0 -0.978253       1.30000    
     33525 TIP3     1464     SWM4     DOH2     DOH2     -1.71640      0.400000           0   0.00000       0.00000    
     33526 TIP3     1464     SWM4     OM       LPDW     -1.11466       0.00000          -1   0.00000       0.00000    
     33527 TIP3     1464     SWM4     H1       HDW      0.557330       1.00800           0   0.00000       0.00000    
     33528 TIP3     1464     SWM4     H2       HDW      0.557330       1.00800           0   0.00000       0.00000    
     33529 TIP3     1465     SWM4     OH2      ODW       1.71640       15.5994           0 -0.978253       1.30000    
     33530 TIP3     1465     SWM4     DOH2     DOH2     -1.71640      0.400000           0   0.00000       0.00000    
     33531 TIP3     1465     SWM4     OM       LPDW     -1.11466       0.00000          -1   0.00000       0.00000    
     33532 TIP3     1465     SWM4     H1       HDW      0.557330       1.00800           0   0.00000       0.00000    
     33533 TIP3     1465     SWM4     H2       HDW      0.557330       1.00800           0   0.00000       0.00000    
     33534 TIP3     1466     SWM4     OH2      ODW       1.71640       15.5994           0 -0.978253       1.30000    
     33535 TIP3     1466     SWM4     DOH2     DOH2     -1.71640      0.400000           0   0.00000       0.00000    
     33536 TIP3     1466     SWM4     OM       LPDW     -1.11466       0.00000          -1   0.00000       0.00000    
     33537 TIP3     1466     SWM4     H1       HDW      0.557330       1.00800           0   0.00000       0.00000    
     33538 TIP3     1466     SWM4     H2       HDW      0.557330       1.00800           0   0.00000       0.00000    
     33539 TIP3     1467     SWM4     OH2      ODW       1.71640       15.5994           0 -0.978253       1.30000    
     33540 TIP3     1467     SWM4     DOH2     DOH2     -1.71640      0.400000           0   0.00000       0.00000    
     33541 TIP3     1467     SWM4     OM       LPDW     -1.11466       0.00000          -1   0.00000       0.00000    
     33542 TIP3     1467     SWM4     H1       HDW      0.557330       1.00800           0   0.00000       0.00000    
     33543 TIP3     1467     SWM4     H2       HDW      0.557330       1.00800           0   0.00000       0.00000    
     33544 TIP3     1468     SWM4     OH2      ODW       1.71640       15.5994           0 -0.978253       1.30000    
     33545 TIP3     1468     SWM4     DOH2     DOH2     -1.71640      0.400000           0   0.00000       0.00000    
     33546 TIP3     1468     SWM4     OM       LPDW     -1.11466       0.00000          -1   0.00000       0.00000    
     33547 TIP3     1468     SWM4     H1       HDW      0.557330       1.00800           0   0.00000       0.00000    
     33548 TIP3     1468     SWM4     H2       HDW      0.557330       1.00800           0   0.00000       0.00000    
     33549 TIP3     1469     SWM4     OH2      ODW       1.71640       15.5994           0 -0.978253       1.30000    
     33550 TIP3     1469     SWM4     DOH2     DOH2     -1.71640      0.400000           0   0.00000       0.00000    
     33551 TIP3     1469     SWM4     OM       LPDW     -1.11466       0.00000          -1   0.00000       0.00000    
     33552 TIP3     1469     SWM4     H1       HDW      0.557330       1.00800           0   0.00000       0.00000    
     33553 TIP3     1469     SWM4     H2       HDW      0.557330       1.00800           0   0.00000       0.00000    
     33554 TIP3     1470     SWM4     OH2      ODW       1.71640       15.5994           0 -0.978253       1.30000    
     33555 TIP3     1470     SWM4     DOH2     DOH2     -1.71640      0.400000           0   0.00000       0.00000    
     33556 TIP3     1470     SWM4     OM       LPDW     -1.11466       0.00000          -1   0.00000       0.00000    
     33557 TIP3     1470     SWM4     H1       HDW      0.557330       1.00800           0   0.00000       0.00000    
     33558 TIP3     1470     SWM4     H2       HDW      0.557330       1.00800           0   0.00000       0.00000    
     33559 TIP3     1471     SWM4     OH2      ODW       1.71640       15.5994           0 -0.978253       1.30000    
     33560 TIP3     1471     SWM4     DOH2     DOH2     -1.71640      0.400000           0   0.00000       0.00000    
     33561 TIP3     1471     SWM4     OM       LPDW     -1.11466       0.00000          -1   0.00000       0.00000    
     33562 TIP3     1471     SWM4     H1       HDW      0.557330       1.00800           0   0.00000       0.00000    
     33563 TIP3     1471     SWM4     H2       HDW      0.557330       1.00800           0   0.00000       0.00000    
     33564 TIP3     1472     SWM4     OH2      ODW       1.71640       15.5994           0 -0.978253       1.30000    
     33565 TIP3     1472     SWM4     DOH2     DOH2     -1.71640      0.400000           0   0.00000       0.00000    
     33566 TIP3     1472     SWM4     OM       LPDW     -1.11466       0.00000          -1   0.00000       0.00000    
     33567 TIP3     1472     SWM4     H1       HDW      0.557330       1.00800           0   0.00000       0.00000    
     33568 TIP3     1472     SWM4     H2       HDW      0.557330       1.00800           0   0.00000       0.00000    
     33569 TIP3     1473     SWM4     OH2      ODW       1.71640       15.5994           0 -0.978253       1.30000    
     33570 TIP3     1473     SWM4     DOH2     DOH2     -1.71640      0.400000           0   0.00000       0.00000    
     33571 TIP3     1473     SWM4     OM       LPDW     -1.11466       0.00000          -1   0.00000       0.00000    
     33572 TIP3     1473     SWM4     H1       HDW      0.557330       1.00800           0   0.00000       0.00000    
     33573 TIP3     1473     SWM4     H2       HDW      0.557330       1.00800           0   0.00000       0.00000    
     33574 TIP3     1474     SWM4     OH2      ODW       1.71640       15.5994           0 -0.978253       1.30000    
     33575 TIP3     1474     SWM4     DOH2     DOH2     -1.71640      0.400000           0   0.00000       0.00000    
     33576 TIP3     1474     SWM4     OM       LPDW     -1.11466       0.00000          -1   0.00000       0.00000    
     33577 TIP3     1474     SWM4     H1       HDW      0.557330       1.00800           0   0.00000       0.00000    
     33578 TIP3     1474     SWM4     H2       HDW      0.557330       1.00800           0   0.00000       0.00000    
     33579 TIP3     1475     SWM4     OH2      ODW       1.71640       15.5994           0 -0.978253       1.30000    
     33580 TIP3     1475     SWM4     DOH2     DOH2     -1.71640      0.400000           0   0.00000       0.00000    
     33581 TIP3     1475     SWM4     OM       LPDW     -1.11466       0.00000          -1   0.00000       0.00000    
     33582 TIP3     1475     SWM4     H1       HDW      0.557330       1.00800           0   0.00000       0.00000    
     33583 TIP3     1475     SWM4     H2       HDW      0.557330       1.00800           0   0.00000       0.00000    
     33584 TIP3     1476     SWM4     OH2      ODW       1.71640       15.5994           0 -0.978253       1.30000    
     33585 TIP3     1476     SWM4     DOH2     DOH2     -1.71640      0.400000           0   0.00000       0.00000    
     33586 TIP3     1476     SWM4     OM       LPDW     -1.11466       0.00000          -1   0.00000       0.00000    
     33587 TIP3     1476     SWM4     H1       HDW      0.557330       1.00800           0   0.00000       0.00000    
     33588 TIP3     1476     SWM4     H2       HDW      0.557330       1.00800           0   0.00000       0.00000    
     33589 TIP3     1477     SWM4     OH2      ODW       1.71640       15.5994           0 -0.978253       1.30000    
     33590 TIP3     1477     SWM4     DOH2     DOH2     -1.71640      0.400000           0   0.00000       0.00000    
     33591 TIP3     1477     SWM4     OM       LPDW     -1.11466       0.00000          -1   0.00000       0.00000    
     33592 TIP3     1477     SWM4     H1       HDW      0.557330       1.00800           0   0.00000       0.00000    
     33593 TIP3     1477     SWM4     H2       HDW      0.557330       1.00800           0   0.00000       0.00000    
     33594 TIP3     1478     SWM4     OH2      ODW       1.71640       15.5994           0 -0.978253       1.30000    
     33595 TIP3     1478     SWM4     DOH2     DOH2     -1.71640      0.400000           0   0.00000       0.00000    
     33596 TIP3     1478     SWM4     OM       LPDW     -1.11466       0.00000          -1   0.00000       0.00000    
     33597 TIP3     1478     SWM4     H1       HDW      0.557330       1.00800           0   0.00000       0.00000    
     33598 TIP3     1478     SWM4     H2       HDW      0.557330       1.00800           0   0.00000       0.00000    
     33599 TIP3     1479     SWM4     OH2      ODW       1.71640       15.5994           0 -0.978253       1.30000    
     33600 TIP3     1479     SWM4     DOH2     DOH2     -1.71640      0.400000           0   0.00000       0.00000    
     33601 TIP3     1479     SWM4     OM       LPDW     -1.11466       0.00000          -1   0.00000       0.00000    
     33602 TIP3     1479     SWM4     H1       HDW      0.557330       1.00800           0   0.00000       0.00000    
     33603 TIP3     1479     SWM4     H2       HDW      0.557330       1.00800           0   0.00000       0.00000    
     33604 TIP3     1480     SWM4     OH2      ODW       1.71640       15.5994           0 -0.978253       1.30000    
     33605 TIP3     1480     SWM4     DOH2     DOH2     -1.71640      0.400000           0   0.00000       0.00000    
     33606 TIP3     1480     SWM4     OM       LPDW     -1.11466       0.00000          -1   0.00000       0.00000    
     33607 TIP3     1480     SWM4     H1       HDW      0.557330       1.00800           0   0.00000       0.00000    
     33608 TIP3     1480     SWM4     H2       HDW      0.557330       1.00800           0   0.00000       0.00000    
     33609 TIP3     1481     SWM4     OH2      ODW       1.71640       15.5994           0 -0.978253       1.30000    
     33610 TIP3     1481     SWM4     DOH2     DOH2     -1.71640      0.400000           0   0.00000       0.00000    
     33611 TIP3     1481     SWM4     OM       LPDW     -1.11466       0.00000          -1   0.00000       0.00000    
     33612 TIP3     1481     SWM4     H1       HDW      0.557330       1.00800           0   0.00000       0.00000    
     33613 TIP3     1481     SWM4     H2       HDW      0.557330       1.00800           0   0.00000       0.00000    
     33614 TIP3     1482     SWM4     OH2      ODW       1.71640       15.5994           0 -0.978253       1.30000    
     33615 TIP3     1482     SWM4     DOH2     DOH2     -1.71640      0.400000           0   0.00000       0.00000    
     33616 TIP3     1482     SWM4     OM       LPDW     -1.11466       0.00000          -1   0.00000       0.00000    
     33617 TIP3     1482     SWM4     H1       HDW      0.557330       1.00800           0   0.00000       0.00000    
     33618 TIP3     1482     SWM4     H2       HDW      0.557330       1.00800           0   0.00000       0.00000    
     33619 TIP3     1483     SWM4     OH2      ODW       1.71640       15.5994           0 -0.978253       1.30000    
     33620 TIP3     1483     SWM4     DOH2     DOH2     -1.71640      0.400000           0   0.00000       0.00000    
     33621 TIP3     1483     SWM4     OM       LPDW     -1.11466       0.00000          -1   0.00000       0.00000    
     33622 TIP3     1483     SWM4     H1       HDW      0.557330       1.00800           0   0.00000       0.00000    
     33623 TIP3     1483     SWM4     H2       HDW      0.557330       1.00800           0   0.00000       0.00000    
     33624 TIP3     1484     SWM4     OH2      ODW       1.71640       15.5994           0 -0.978253       1.30000    
     33625 TIP3     1484     SWM4     DOH2     DOH2     -1.71640      0.400000           0   0.00000       0.00000    
     33626 TIP3     1484     SWM4     OM       LPDW     -1.11466       0.00000          -1   0.00000       0.00000    
     33627 TIP3     1484     SWM4     H1       HDW      0.557330       1.00800           0   0.00000       0.00000    
     33628 TIP3     1484     SWM4     H2       HDW      0.557330       1.00800           0   0.00000       0.00000    
     33629 TIP3     1485     SWM4     OH2      ODW       1.71640       15.5994           0 -0.978253       1.30000    
     33630 TIP3     1485     SWM4     DOH2     DOH2     -1.71640      0.400000           0   0.00000       0.00000    
     33631 TIP3     1485     SWM4     OM       LPDW     -1.11466       0.00000          -1   0.00000       0.00000    
     33632 TIP3     1485     SWM4     H1       HDW      0.557330       1.00800           0   0.00000       0.00000    
     33633 TIP3     1485     SWM4     H2       HDW      0.557330       1.00800           0   0.00000       0.00000    
     33634 TIP3     1486     SWM4     OH2      ODW       1.71640       15.5994           0 -0.978253       1.30000    
     33635 TIP3     1486     SWM4     DOH2     DOH2     -1.71640      0.400000           0   0.00000       0.00000    
     33636 TIP3     1486     SWM4     OM       LPDW     -1.11466       0.00000          -1   0.00000       0.00000    
     33637 TIP3     1486     SWM4     H1       HDW      0.557330       1.00800           0   0.00000       0.00000    
     33638 TIP3     1486     SWM4     H2       HDW      0.557330       1.00800           0   0.00000       0.00000    
     33639 TIP3     1487     SWM4     OH2      ODW       1.71640       15.5994           0 -0.978253       1.30000    
     33640 TIP3     1487     SWM4     DOH2     DOH2     -1.71640      0.400000           0   0.00000       0.00000    
     33641 TIP3     1487     SWM4     OM       LPDW     -1.11466       0.00000          -1   0.00000       0.00000    
     33642 TIP3     1487     SWM4     H1       HDW      0.557330       1.00800           0   0.00000       0.00000    
     33643 TIP3     1487     SWM4     H2       HDW      0.557330       1.00800           0   0.00000       0.00000    
     33644 TIP3     1488     SWM4     OH2      ODW       1.71640       15.5994           0 -0.978253       1.30000    
     33645 TIP3     1488     SWM4     DOH2     DOH2     -1.71640      0.400000           0   0.00000       0.00000    
     33646 TIP3     1488     SWM4     OM       LPDW     -1.11466       0.00000          -1   0.00000       0.00000    
     33647 TIP3     1488     SWM4     H1       HDW      0.557330       1.00800           0   0.00000       0.00000    
     33648 TIP3     1488     SWM4     H2       HDW      0.557330       1.00800           0   0.00000       0.00000    
     33649 TIP3     1489     SWM4     OH2      ODW       1.71640       15.5994           0 -0.978253       1.30000    
     33650 TIP3     1489     SWM4     DOH2     DOH2     -1.71640      0.400000           0   0.00000       0.00000    
     33651 TIP3     1489     SWM4     OM       LPDW     -1.11466       0.00000          -1   0.00000       0.00000    
     33652 TIP3     1489     SWM4     H1       HDW      0.557330       1.00800           0   0.00000       0.00000    
     33653 TIP3     1489     SWM4     H2       HDW      0.557330       1.00800           0   0.00000       0.00000    
     33654 TIP3     1490     SWM4     OH2      ODW       1.71640       15.5994           0 -0.978253       1.30000    
     33655 TIP3     1490     SWM4     DOH2     DOH2     -1.71640      0.400000           0   0.00000       0.00000    
     33656 TIP3     1490     SWM4     OM       LPDW     -1.11466       0.00000          -1   0.00000       0.00000    
     33657 TIP3     1490     SWM4     H1       HDW      0.557330       1.00800           0   0.00000       0.00000    
     33658 TIP3     1490     SWM4     H2       HDW      0.557330       1.00800           0   0.00000       0.00000    
     33659 TIP3     1491     SWM4     OH2      ODW       1.71640       15.5994           0 -0.978253       1.30000    
     33660 TIP3     1491     SWM4     DOH2     DOH2     -1.71640      0.400000           0   0.00000       0.00000    
     33661 TIP3     1491     SWM4     OM       LPDW     -1.11466       0.00000          -1   0.00000       0.00000    
     33662 TIP3     1491     SWM4     H1       HDW      0.557330       1.00800           0   0.00000       0.00000    
     33663 TIP3     1491     SWM4     H2       HDW      0.557330       1.00800           0   0.00000       0.00000    
     33664 TIP3     1492     SWM4     OH2      ODW       1.71640       15.5994           0 -0.978253       1.30000    
     33665 TIP3     1492     SWM4     DOH2     DOH2     -1.71640      0.400000           0   0.00000       0.00000    
     33666 TIP3     1492     SWM4     OM       LPDW     -1.11466       0.00000          -1   0.00000       0.00000    
     33667 TIP3     1492     SWM4     H1       HDW      0.557330       1.00800           0   0.00000       0.00000    
     33668 TIP3     1492     SWM4     H2       HDW      0.557330       1.00800           0   0.00000       0.00000    
     33669 TIP3     1493     SWM4     OH2      ODW       1.71640       15.5994           0 -0.978253       1.30000    
     33670 TIP3     1493     SWM4     DOH2     DOH2     -1.71640      0.400000           0   0.00000       0.00000    
     33671 TIP3     1493     SWM4     OM       LPDW     -1.11466       0.00000          -1   0.00000       0.00000    
     33672 TIP3     1493     SWM4     H1       HDW      0.557330       1.00800           0   0.00000       0.00000    
     33673 TIP3     1493     SWM4     H2       HDW      0.557330       1.00800           0   0.00000       0.00000    
     33674 TIP3     1494     SWM4     OH2      ODW       1.71640       15.5994           0 -0.978253       1.30000    
     33675 TIP3     1494     SWM4     DOH2     DOH2     -1.71640      0.400000           0   0.00000       0.00000    
     33676 TIP3     1494     SWM4     OM       LPDW     -1.11466       0.00000          -1   0.00000       0.00000    
     33677 TIP3     1494     SWM4     H1       HDW      0.557330       1.00800           0   0.00000       0.00000    
     33678 TIP3     1494     SWM4     H2       HDW      0.557330       1.00800           0   0.00000       0.00000    
     33679 TIP3     1495     SWM4     OH2      ODW       1.71640       15.5994           0 -0.978253       1.30000    
     33680 TIP3     1495     SWM4     DOH2     DOH2     -1.71640      0.400000           0   0.00000       0.00000    
     33681 TIP3     1495     SWM4     OM       LPDW     -1.11466       0.00000          -1   0.00000       0.00000    
     33682 TIP3     1495     SWM4     H1       HDW      0.557330       1.00800           0   0.00000       0.00000    
     33683 TIP3     1495     SWM4     H2       HDW      0.557330       1.00800           0   0.00000       0.00000    
     33684 TIP3     1496     SWM4     OH2      ODW       1.71640       15.5994           0 -0.978253       1.30000    
     33685 TIP3     1496     SWM4     DOH2     DOH2     -1.71640      0.400000           0   0.00000       0.00000    
     33686 TIP3     1496     SWM4     OM       LPDW     -1.11466       0.00000          -1   0.00000       0.00000    
     33687 TIP3     1496     SWM4     H1       HDW      0.557330       1.00800           0   0.00000       0.00000    
     33688 TIP3     1496     SWM4     H2       HDW      0.557330       1.00800           0   0.00000       0.00000    
     33689 TIP3     1497     SWM4     OH2      ODW       1.71640       15.5994           0 -0.978253       1.30000    
     33690 TIP3     1497     SWM4     DOH2     DOH2     -1.71640      0.400000           0   0.00000       0.00000    
     33691 TIP3     1497     SWM4     OM       LPDW     -1.11466       0.00000          -1   0.00000       0.00000    
     33692 TIP3     1497     SWM4     H1       HDW      0.557330       1.00800           0   0.00000       0.00000    
     33693 TIP3     1497     SWM4     H2       HDW      0.557330       1.00800           0   0.00000       0.00000    
     33694 TIP3     1498     SWM4     OH2      ODW       1.71640       15.5994           0 -0.978253       1.30000    
     33695 TIP3     1498     SWM4     DOH2     DOH2     -1.71640      0.400000           0   0.00000       0.00000    
     33696 TIP3     1498     SWM4     OM       LPDW     -1.11466       0.00000          -1   0.00000       0.00000    
     33697 TIP3     1498     SWM4     H1       HDW      0.557330       1.00800           0   0.00000       0.00000    
     33698 TIP3     1498     SWM4     H2       HDW      0.557330       1.00800           0   0.00000       0.00000    
     33699 TIP3     1499     SWM4     OH2      ODW       1.71640       15.5994           0 -0.978253       1.30000    
     33700 TIP3     1499     SWM4     DOH2     DOH2     -1.71640      0.400000           0   0.00000       0.00000    
     33701 TIP3     1499     SWM4     OM       LPDW     -1.11466       0.00000          -1   0.00000       0.00000    
     33702 TIP3     1499     SWM4     H1       HDW      0.557330       1.00800           0   0.00000       0.00000    
     33703 TIP3     1499     SWM4     H2       HDW      0.557330       1.00800           0   0.00000       0.00000    
     33704 TIP3     1500     SWM4     OH2      ODW       1.71640       15.5994           0 -0.978253       1.30000    
     33705 TIP3     1500     SWM4     DOH2     DOH2     -1.71640      0.400000           0   0.00000       0.00000    
     33706 TIP3     1500     SWM4     OM       LPDW     -1.11466       0.00000          -1   0.00000       0.00000    
     33707 TIP3     1500     SWM4     H1       HDW      0.557330       1.00800           0   0.00000       0.00000    
     33708 TIP3     1500     SWM4     H2       HDW      0.557330       1.00800           0   0.00000       0.00000    
     33709 TIP3     1501     SWM4     OH2      ODW       1.71640       15.5994           0 -0.978253       1.30000    
     33710 TIP3     1501     SWM4     DOH2     DOH2     -1.71640      0.400000           0   0.00000       0.00000    
     33711 TIP3     1501     SWM4     OM       LPDW     -1.11466       0.00000          -1   0.00000       0.00000    
     33712 TIP3     1501     SWM4     H1       HDW      0.557330       1.00800           0   0.00000       0.00000    
     33713 TIP3     1501     SWM4     H2       HDW      0.557330       1.00800           0   0.00000       0.00000    
     33714 TIP3     1502     SWM4     OH2      ODW       1.71640       15.5994           0 -0.978253       1.30000    
     33715 TIP3     1502     SWM4     DOH2     DOH2     -1.71640      0.400000           0   0.00000       0.00000    
     33716 TIP3     1502     SWM4     OM       LPDW     -1.11466       0.00000          -1   0.00000       0.00000    
     33717 TIP3     1502     SWM4     H1       HDW      0.557330       1.00800           0   0.00000       0.00000    
     33718 TIP3     1502     SWM4     H2       HDW      0.557330       1.00800           0   0.00000       0.00000    
     33719 TIP3     1503     SWM4     OH2      ODW       1.71640       15.5994           0 -0.978253       1.30000    
     33720 TIP3     1503     SWM4     DOH2     DOH2     -1.71640      0.400000           0   0.00000       0.00000    
     33721 TIP3     1503     SWM4     OM       LPDW     -1.11466       0.00000          -1   0.00000       0.00000    
     33722 TIP3     1503     SWM4     H1       HDW      0.557330       1.00800           0   0.00000       0.00000    
     33723 TIP3     1503     SWM4     H2       HDW      0.557330       1.00800           0   0.00000       0.00000    
     33724 TIP3     1504     SWM4     OH2      ODW       1.71640       15.5994           0 -0.978253       1.30000    
     33725 TIP3     1504     SWM4     DOH2     DOH2     -1.71640      0.400000           0   0.00000       0.00000    
     33726 TIP3     1504     SWM4     OM       LPDW     -1.11466       0.00000          -1   0.00000       0.00000    
     33727 TIP3     1504     SWM4     H1       HDW      0.557330       1.00800           0   0.00000       0.00000    
     33728 TIP3     1504     SWM4     H2       HDW      0.557330       1.00800           0   0.00000       0.00000    
     33729 TIP3     1505     SWM4     OH2      ODW       1.71640       15.5994           0 -0.978253       1.30000    
     33730 TIP3     1505     SWM4     DOH2     DOH2     -1.71640      0.400000           0   0.00000       0.00000    
     33731 TIP3     1505     SWM4     OM       LPDW     -1.11466       0.00000          -1   0.00000       0.00000    
     33732 TIP3     1505     SWM4     H1       HDW      0.557330       1.00800           0   0.00000       0.00000    
     33733 TIP3     1505     SWM4     H2       HDW      0.557330       1.00800           0   0.00000       0.00000    
     33734 TIP3     1506     SWM4     OH2      ODW       1.71640       15.5994           0 -0.978253       1.30000    
     33735 TIP3     1506     SWM4     DOH2     DOH2     -1.71640      0.400000           0   0.00000       0.00000    
     33736 TIP3     1506     SWM4     OM       LPDW     -1.11466       0.00000          -1   0.00000       0.00000    
     33737 TIP3     1506     SWM4     H1       HDW      0.557330       1.00800           0   0.00000       0.00000    
     33738 TIP3     1506     SWM4     H2       HDW      0.557330       1.00800           0   0.00000       0.00000    
     33739 TIP3     1507     SWM4     OH2      ODW       1.71640       15.5994           0 -0.978253       1.30000    
     33740 TIP3     1507     SWM4     DOH2     DOH2     -1.71640      0.400000           0   0.00000       0.00000    
     33741 TIP3     1507     SWM4     OM       LPDW     -1.11466       0.00000          -1   0.00000       0.00000    
     33742 TIP3     1507     SWM4     H1       HDW      0.557330       1.00800           0   0.00000       0.00000    
     33743 TIP3     1507     SWM4     H2       HDW      0.557330       1.00800           0   0.00000       0.00000    
     33744 TIP3     1508     SWM4     OH2      ODW       1.71640       15.5994           0 -0.978253       1.30000    
     33745 TIP3     1508     SWM4     DOH2     DOH2     -1.71640      0.400000           0   0.00000       0.00000    
     33746 TIP3     1508     SWM4     OM       LPDW     -1.11466       0.00000          -1   0.00000       0.00000    
     33747 TIP3     1508     SWM4     H1       HDW      0.557330       1.00800           0   0.00000       0.00000    
     33748 TIP3     1508     SWM4     H2       HDW      0.557330       1.00800           0   0.00000       0.00000    
     33749 TIP3     1509     SWM4     OH2      ODW       1.71640       15.5994           0 -0.978253       1.30000    
     33750 TIP3     1509     SWM4     DOH2     DOH2     -1.71640      0.400000           0   0.00000       0.00000    
     33751 TIP3     1509     SWM4     OM       LPDW     -1.11466       0.00000          -1   0.00000       0.00000    
     33752 TIP3     1509     SWM4     H1       HDW      0.557330       1.00800           0   0.00000       0.00000    
     33753 TIP3     1509     SWM4     H2       HDW      0.557330       1.00800           0   0.00000       0.00000    
     33754 TIP3     1510     SWM4     OH2      ODW       1.71640       15.5994           0 -0.978253       1.30000    
     33755 TIP3     1510     SWM4     DOH2     DOH2     -1.71640      0.400000           0   0.00000       0.00000    
     33756 TIP3     1510     SWM4     OM       LPDW     -1.11466       0.00000          -1   0.00000       0.00000    
     33757 TIP3     1510     SWM4     H1       HDW      0.557330       1.00800           0   0.00000       0.00000    
     33758 TIP3     1510     SWM4     H2       HDW      0.557330       1.00800           0   0.00000       0.00000    
     33759 TIP3     1511     SWM4     OH2      ODW       1.71640       15.5994           0 -0.978253       1.30000    
     33760 TIP3     1511     SWM4     DOH2     DOH2     -1.71640      0.400000           0   0.00000       0.00000    
     33761 TIP3     1511     SWM4     OM       LPDW     -1.11466       0.00000          -1   0.00000       0.00000    
     33762 TIP3     1511     SWM4     H1       HDW      0.557330       1.00800           0   0.00000       0.00000    
     33763 TIP3     1511     SWM4     H2       HDW      0.557330       1.00800           0   0.00000       0.00000    
     33764 TIP3     1512     SWM4     OH2      ODW       1.71640       15.5994           0 -0.978253       1.30000    
     33765 TIP3     1512     SWM4     DOH2     DOH2     -1.71640      0.400000           0   0.00000       0.00000    
     33766 TIP3     1512     SWM4     OM       LPDW     -1.11466       0.00000          -1   0.00000       0.00000    
     33767 TIP3     1512     SWM4     H1       HDW      0.557330       1.00800           0   0.00000       0.00000    
     33768 TIP3     1512     SWM4     H2       HDW      0.557330       1.00800           0   0.00000       0.00000    
     33769 TIP3     1513     SWM4     OH2      ODW       1.71640       15.5994           0 -0.978253       1.30000    
     33770 TIP3     1513     SWM4     DOH2     DOH2     -1.71640      0.400000           0   0.00000       0.00000    
     33771 TIP3     1513     SWM4     OM       LPDW     -1.11466       0.00000          -1   0.00000       0.00000    
     33772 TIP3     1513     SWM4     H1       HDW      0.557330       1.00800           0   0.00000       0.00000    
     33773 TIP3     1513     SWM4     H2       HDW      0.557330       1.00800           0   0.00000       0.00000    
     33774 TIP3     1514     SWM4     OH2      ODW       1.71640       15.5994           0 -0.978253       1.30000    
     33775 TIP3     1514     SWM4     DOH2     DOH2     -1.71640      0.400000           0   0.00000       0.00000    
     33776 TIP3     1514     SWM4     OM       LPDW     -1.11466       0.00000          -1   0.00000       0.00000    
     33777 TIP3     1514     SWM4     H1       HDW      0.557330       1.00800           0   0.00000       0.00000    
     33778 TIP3     1514     SWM4     H2       HDW      0.557330       1.00800           0   0.00000       0.00000    
     33779 TIP3     1515     SWM4     OH2      ODW       1.71640       15.5994           0 -0.978253       1.30000    
     33780 TIP3     1515     SWM4     DOH2     DOH2     -1.71640      0.400000           0   0.00000       0.00000    
     33781 TIP3     1515     SWM4     OM       LPDW     -1.11466       0.00000          -1   0.00000       0.00000    
     33782 TIP3     1515     SWM4     H1       HDW      0.557330       1.00800           0   0.00000       0.00000    
     33783 TIP3     1515     SWM4     H2       HDW      0.557330       1.00800           0   0.00000       0.00000    
     33784 TIP3     1516     SWM4     OH2      ODW       1.71640       15.5994           0 -0.978253       1.30000    
     33785 TIP3     1516     SWM4     DOH2     DOH2     -1.71640      0.400000           0   0.00000       0.00000    
     33786 TIP3     1516     SWM4     OM       LPDW     -1.11466       0.00000          -1   0.00000       0.00000    
     33787 TIP3     1516     SWM4     H1       HDW      0.557330       1.00800           0   0.00000       0.00000    
     33788 TIP3     1516     SWM4     H2       HDW      0.557330       1.00800           0   0.00000       0.00000    
     33789 TIP3     1517     SWM4     OH2      ODW       1.71640       15.5994           0 -0.978253       1.30000    
     33790 TIP3     1517     SWM4     DOH2     DOH2     -1.71640      0.400000           0   0.00000       0.00000    
     33791 TIP3     1517     SWM4     OM       LPDW     -1.11466       0.00000          -1   0.00000       0.00000    
     33792 TIP3     1517     SWM4     H1       HDW      0.557330       1.00800           0   0.00000       0.00000    
     33793 TIP3     1517     SWM4     H2       HDW      0.557330       1.00800           0   0.00000       0.00000    
     33794 TIP3     1518     SWM4     OH2      ODW       1.71640       15.5994           0 -0.978253       1.30000    
     33795 TIP3     1518     SWM4     DOH2     DOH2     -1.71640      0.400000           0   0.00000       0.00000    
     33796 TIP3     1518     SWM4     OM       LPDW     -1.11466       0.00000          -1   0.00000       0.00000    
     33797 TIP3     1518     SWM4     H1       HDW      0.557330       1.00800           0   0.00000       0.00000    
     33798 TIP3     1518     SWM4     H2       HDW      0.557330       1.00800           0   0.00000       0.00000    
     33799 TIP3     1519     SWM4     OH2      ODW       1.71640       15.5994           0 -0.978253       1.30000    
     33800 TIP3     1519     SWM4     DOH2     DOH2     -1.71640      0.400000           0   0.00000       0.00000    
     33801 TIP3     1519     SWM4     OM       LPDW     -1.11466       0.00000          -1   0.00000       0.00000    
     33802 TIP3     1519     SWM4     H1       HDW      0.557330       1.00800           0   0.00000       0.00000    
     33803 TIP3     1519     SWM4     H2       HDW      0.557330       1.00800           0   0.00000       0.00000    
     33804 TIP3     1520     SWM4     OH2      ODW       1.71640       15.5994           0 -0.978253       1.30000    
     33805 TIP3     1520     SWM4     DOH2     DOH2     -1.71640      0.400000           0   0.00000       0.00000    
     33806 TIP3     1520     SWM4     OM       LPDW     -1.11466       0.00000          -1   0.00000       0.00000    
     33807 TIP3     1520     SWM4     H1       HDW      0.557330       1.00800           0   0.00000       0.00000    
     33808 TIP3     1520     SWM4     H2       HDW      0.557330       1.00800           0   0.00000       0.00000    
     33809 TIP3     1521     SWM4     OH2      ODW       1.71640       15.5994           0 -0.978253       1.30000    
     33810 TIP3     1521     SWM4     DOH2     DOH2     -1.71640      0.400000           0   0.00000       0.00000    
     33811 TIP3     1521     SWM4     OM       LPDW     -1.11466       0.00000          -1   0.00000       0.00000    
     33812 TIP3     1521     SWM4     H1       HDW      0.557330       1.00800           0   0.00000       0.00000    
     33813 TIP3     1521     SWM4     H2       HDW      0.557330       1.00800           0   0.00000       0.00000    
     33814 TIP3     1522     SWM4     OH2      ODW       1.71640       15.5994           0 -0.978253       1.30000    
     33815 TIP3     1522     SWM4     DOH2     DOH2     -1.71640      0.400000           0   0.00000       0.00000    
     33816 TIP3     1522     SWM4     OM       LPDW     -1.11466       0.00000          -1   0.00000       0.00000    
     33817 TIP3     1522     SWM4     H1       HDW      0.557330       1.00800           0   0.00000       0.00000    
     33818 TIP3     1522     SWM4     H2       HDW      0.557330       1.00800           0   0.00000       0.00000    
     33819 TIP3     1523     SWM4     OH2      ODW       1.71640       15.5994           0 -0.978253       1.30000    
     33820 TIP3     1523     SWM4     DOH2     DOH2     -1.71640      0.400000           0   0.00000       0.00000    
     33821 TIP3     1523     SWM4     OM       LPDW     -1.11466       0.00000          -1   0.00000       0.00000    
     33822 TIP3     1523     SWM4     H1       HDW      0.557330       1.00800           0   0.00000       0.00000    
     33823 TIP3     1523     SWM4     H2       HDW      0.557330       1.00800           0   0.00000       0.00000    
     33824 TIP3     1524     SWM4     OH2      ODW       1.71640       15.5994           0 -0.978253       1.30000    
     33825 TIP3     1524     SWM4     DOH2     DOH2     -1.71640      0.400000           0   0.00000       0.00000    
     33826 TIP3     1524     SWM4     OM       LPDW     -1.11466       0.00000          -1   0.00000       0.00000    
     33827 TIP3     1524     SWM4     H1       HDW      0.557330       1.00800           0   0.00000       0.00000    
     33828 TIP3     1524     SWM4     H2       HDW      0.557330       1.00800           0   0.00000       0.00000    
     33829 TIP3     1525     SWM4     OH2      ODW       1.71640       15.5994           0 -0.978253       1.30000    
     33830 TIP3     1525     SWM4     DOH2     DOH2     -1.71640      0.400000           0   0.00000       0.00000    
     33831 TIP3     1525     SWM4     OM       LPDW     -1.11466       0.00000          -1   0.00000       0.00000    
     33832 TIP3     1525     SWM4     H1       HDW      0.557330       1.00800           0   0.00000       0.00000    
     33833 TIP3     1525     SWM4     H2       HDW      0.557330       1.00800           0   0.00000       0.00000    
     33834 TIP3     1526     SWM4     OH2      ODW       1.71640       15.5994           0 -0.978253       1.30000    
     33835 TIP3     1526     SWM4     DOH2     DOH2     -1.71640      0.400000           0   0.00000       0.00000    
     33836 TIP3     1526     SWM4     OM       LPDW     -1.11466       0.00000          -1   0.00000       0.00000    
     33837 TIP3     1526     SWM4     H1       HDW      0.557330       1.00800           0   0.00000       0.00000    
     33838 TIP3     1526     SWM4     H2       HDW      0.557330       1.00800           0   0.00000       0.00000    
     33839 TIP3     1527     SWM4     OH2      ODW       1.71640       15.5994           0 -0.978253       1.30000    
     33840 TIP3     1527     SWM4     DOH2     DOH2     -1.71640      0.400000           0   0.00000       0.00000    
     33841 TIP3     1527     SWM4     OM       LPDW     -1.11466       0.00000          -1   0.00000       0.00000    
     33842 TIP3     1527     SWM4     H1       HDW      0.557330       1.00800           0   0.00000       0.00000    
     33843 TIP3     1527     SWM4     H2       HDW      0.557330       1.00800           0   0.00000       0.00000    
     33844 TIP3     1528     SWM4     OH2      ODW       1.71640       15.5994           0 -0.978253       1.30000    
     33845 TIP3     1528     SWM4     DOH2     DOH2     -1.71640      0.400000           0   0.00000       0.00000    
     33846 TIP3     1528     SWM4     OM       LPDW     -1.11466       0.00000          -1   0.00000       0.00000    
     33847 TIP3     1528     SWM4     H1       HDW      0.557330       1.00800           0   0.00000       0.00000    
     33848 TIP3     1528     SWM4     H2       HDW      0.557330       1.00800           0   0.00000       0.00000    
     33849 TIP3     1529     SWM4     OH2      ODW       1.71640       15.5994           0 -0.978253       1.30000    
     33850 TIP3     1529     SWM4     DOH2     DOH2     -1.71640      0.400000           0   0.00000       0.00000    
     33851 TIP3     1529     SWM4     OM       LPDW     -1.11466       0.00000          -1   0.00000       0.00000    
     33852 TIP3     1529     SWM4     H1       HDW      0.557330       1.00800           0   0.00000       0.00000    
     33853 TIP3     1529     SWM4     H2       HDW      0.557330       1.00800           0   0.00000       0.00000    
     33854 TIP3     1530     SWM4     OH2      ODW       1.71640       15.5994           0 -0.978253       1.30000    
     33855 TIP3     1530     SWM4     DOH2     DOH2     -1.71640      0.400000           0   0.00000       0.00000    
     33856 TIP3     1530     SWM4     OM       LPDW     -1.11466       0.00000          -1   0.00000       0.00000    
     33857 TIP3     1530     SWM4     H1       HDW      0.557330       1.00800           0   0.00000       0.00000    
     33858 TIP3     1530     SWM4     H2       HDW      0.557330       1.00800           0   0.00000       0.00000    
     33859 TIP3     1531     SWM4     OH2      ODW       1.71640       15.5994           0 -0.978253       1.30000    
     33860 TIP3     1531     SWM4     DOH2     DOH2     -1.71640      0.400000           0   0.00000       0.00000    
     33861 TIP3     1531     SWM4     OM       LPDW     -1.11466       0.00000          -1   0.00000       0.00000    
     33862 TIP3     1531     SWM4     H1       HDW      0.557330       1.00800           0   0.00000       0.00000    
     33863 TIP3     1531     SWM4     H2       HDW      0.557330       1.00800           0   0.00000       0.00000    
     33864 TIP3     1532     SWM4     OH2      ODW       1.71640       15.5994           0 -0.978253       1.30000    
     33865 TIP3     1532     SWM4     DOH2     DOH2     -1.71640      0.400000           0   0.00000       0.00000    
     33866 TIP3     1532     SWM4     OM       LPDW     -1.11466       0.00000          -1   0.00000       0.00000    
     33867 TIP3     1532     SWM4     H1       HDW      0.557330       1.00800           0   0.00000       0.00000    
     33868 TIP3     1532     SWM4     H2       HDW      0.557330       1.00800           0   0.00000       0.00000    
     33869 TIP3     1533     SWM4     OH2      ODW       1.71640       15.5994           0 -0.978253       1.30000    
     33870 TIP3     1533     SWM4     DOH2     DOH2     -1.71640      0.400000           0   0.00000       0.00000    
     33871 TIP3     1533     SWM4     OM       LPDW     -1.11466       0.00000          -1   0.00000       0.00000    
     33872 TIP3     1533     SWM4     H1       HDW      0.557330       1.00800           0   0.00000       0.00000    
     33873 TIP3     1533     SWM4     H2       HDW      0.557330       1.00800           0   0.00000       0.00000    
     33874 TIP3     1534     SWM4     OH2      ODW       1.71640       15.5994           0 -0.978253       1.30000    
     33875 TIP3     1534     SWM4     DOH2     DOH2     -1.71640      0.400000           0   0.00000       0.00000    
     33876 TIP3     1534     SWM4     OM       LPDW     -1.11466       0.00000          -1   0.00000       0.00000    
     33877 TIP3     1534     SWM4     H1       HDW      0.557330       1.00800           0   0.00000       0.00000    
     33878 TIP3     1534     SWM4     H2       HDW      0.557330       1.00800           0   0.00000       0.00000    
     33879 TIP3     1535     SWM4     OH2      ODW       1.71640       15.5994           0 -0.978253       1.30000    
     33880 TIP3     1535     SWM4     DOH2     DOH2     -1.71640      0.400000           0   0.00000       0.00000    
     33881 TIP3     1535     SWM4     OM       LPDW     -1.11466       0.00000          -1   0.00000       0.00000    
     33882 TIP3     1535     SWM4     H1       HDW      0.557330       1.00800           0   0.00000       0.00000    
     33883 TIP3     1535     SWM4     H2       HDW      0.557330       1.00800           0   0.00000       0.00000    
     33884 TIP3     1536     SWM4     OH2      ODW       1.71640       15.5994           0 -0.978253       1.30000    
     33885 TIP3     1536     SWM4     DOH2     DOH2     -1.71640      0.400000           0   0.00000       0.00000    
     33886 TIP3     1536     SWM4     OM       LPDW     -1.11466       0.00000          -1   0.00000       0.00000    
     33887 TIP3     1536     SWM4     H1       HDW      0.557330       1.00800           0   0.00000       0.00000    
     33888 TIP3     1536     SWM4     H2       HDW      0.557330       1.00800           0   0.00000       0.00000    
     33889 TIP3     1537     SWM4     OH2      ODW       1.71640       15.5994           0 -0.978253       1.30000    
     33890 TIP3     1537     SWM4     DOH2     DOH2     -1.71640      0.400000           0   0.00000       0.00000    
     33891 TIP3     1537     SWM4     OM       LPDW     -1.11466       0.00000          -1   0.00000       0.00000    
     33892 TIP3     1537     SWM4     H1       HDW      0.557330       1.00800           0   0.00000       0.00000    
     33893 TIP3     1537     SWM4     H2       HDW      0.557330       1.00800           0   0.00000       0.00000    
     33894 TIP3     1538     SWM4     OH2      ODW       1.71640       15.5994           0 -0.978253       1.30000    
     33895 TIP3     1538     SWM4     DOH2     DOH2     -1.71640      0.400000           0   0.00000       0.00000    
     33896 TIP3     1538     SWM4     OM       LPDW     -1.11466       0.00000          -1   0.00000       0.00000    
     33897 TIP3     1538     SWM4     H1       HDW      0.557330       1.00800           0   0.00000       0.00000    
     33898 TIP3     1538     SWM4     H2       HDW      0.557330       1.00800           0   0.00000       0.00000    
     33899 TIP3     1539     SWM4     OH2      ODW       1.71640       15.5994           0 -0.978253       1.30000    
     33900 TIP3     1539     SWM4     DOH2     DOH2     -1.71640      0.400000           0   0.00000       0.00000    
     33901 TIP3     1539     SWM4     OM       LPDW     -1.11466       0.00000          -1   0.00000       0.00000    
     33902 TIP3     1539     SWM4     H1       HDW      0.557330       1.00800           0   0.00000       0.00000    
     33903 TIP3     1539     SWM4     H2       HDW      0.557330       1.00800           0   0.00000       0.00000    
     33904 TIP3     1540     SWM4     OH2      ODW       1.71640       15.5994           0 -0.978253       1.30000    
     33905 TIP3     1540     SWM4     DOH2     DOH2     -1.71640      0.400000           0   0.00000       0.00000    
     33906 TIP3     1540     SWM4     OM       LPDW     -1.11466       0.00000          -1   0.00000       0.00000    
     33907 TIP3     1540     SWM4     H1       HDW      0.557330       1.00800           0   0.00000       0.00000    
     33908 TIP3     1540     SWM4     H2       HDW      0.557330       1.00800           0   0.00000       0.00000    
     33909 TIP3     1541     SWM4     OH2      ODW       1.71640       15.5994           0 -0.978253       1.30000    
     33910 TIP3     1541     SWM4     DOH2     DOH2     -1.71640      0.400000           0   0.00000       0.00000    
     33911 TIP3     1541     SWM4     OM       LPDW     -1.11466       0.00000          -1   0.00000       0.00000    
     33912 TIP3     1541     SWM4     H1       HDW      0.557330       1.00800           0   0.00000       0.00000    
     33913 TIP3     1541     SWM4     H2       HDW      0.557330       1.00800           0   0.00000       0.00000    
     33914 TIP3     1542     SWM4     OH2      ODW       1.71640       15.5994           0 -0.978253       1.30000    
     33915 TIP3     1542     SWM4     DOH2     DOH2     -1.71640      0.400000           0   0.00000       0.00000    
     33916 TIP3     1542     SWM4     OM       LPDW     -1.11466       0.00000          -1   0.00000       0.00000    
     33917 TIP3     1542     SWM4     H1       HDW      0.557330       1.00800           0   0.00000       0.00000    
     33918 TIP3     1542     SWM4     H2       HDW      0.557330       1.00800           0   0.00000       0.00000    
     33919 TIP3     1543     SWM4     OH2      ODW       1.71640       15.5994           0 -0.978253       1.30000    
     33920 TIP3     1543     SWM4     DOH2     DOH2     -1.71640      0.400000           0   0.00000       0.00000    
     33921 TIP3     1543     SWM4     OM       LPDW     -1.11466       0.00000          -1   0.00000       0.00000    
     33922 TIP3     1543     SWM4     H1       HDW      0.557330       1.00800           0   0.00000       0.00000    
     33923 TIP3     1543     SWM4     H2       HDW      0.557330       1.00800           0   0.00000       0.00000    
     33924 TIP3     1544     SWM4     OH2      ODW       1.71640       15.5994           0 -0.978253       1.30000    
     33925 TIP3     1544     SWM4     DOH2     DOH2     -1.71640      0.400000           0   0.00000       0.00000    
     33926 TIP3     1544     SWM4     OM       LPDW     -1.11466       0.00000          -1   0.00000       0.00000    
     33927 TIP3     1544     SWM4     H1       HDW      0.557330       1.00800           0   0.00000       0.00000    
     33928 TIP3     1544     SWM4     H2       HDW      0.557330       1.00800           0   0.00000       0.00000    
     33929 TIP3     1545     SWM4     OH2      ODW       1.71640       15.5994           0 -0.978253       1.30000    
     33930 TIP3     1545     SWM4     DOH2     DOH2     -1.71640      0.400000           0   0.00000       0.00000    
     33931 TIP3     1545     SWM4     OM       LPDW     -1.11466       0.00000          -1   0.00000       0.00000    
     33932 TIP3     1545     SWM4     H1       HDW      0.557330       1.00800           0   0.00000       0.00000    
     33933 TIP3     1545     SWM4     H2       HDW      0.557330       1.00800           0   0.00000       0.00000    
     33934 TIP3     1546     SWM4     OH2      ODW       1.71640       15.5994           0 -0.978253       1.30000    
     33935 TIP3     1546     SWM4     DOH2     DOH2     -1.71640      0.400000           0   0.00000       0.00000    
     33936 TIP3     1546     SWM4     OM       LPDW     -1.11466       0.00000          -1   0.00000       0.00000    
     33937 TIP3     1546     SWM4     H1       HDW      0.557330       1.00800           0   0.00000       0.00000    
     33938 TIP3     1546     SWM4     H2       HDW      0.557330       1.00800           0   0.00000       0.00000    
     33939 TIP3     1547     SWM4     OH2      ODW       1.71640       15.5994           0 -0.978253       1.30000    
     33940 TIP3     1547     SWM4     DOH2     DOH2     -1.71640      0.400000           0   0.00000       0.00000    
     33941 TIP3     1547     SWM4     OM       LPDW     -1.11466       0.00000          -1   0.00000       0.00000    
     33942 TIP3     1547     SWM4     H1       HDW      0.557330       1.00800           0   0.00000       0.00000    
     33943 TIP3     1547     SWM4     H2       HDW      0.557330       1.00800           0   0.00000       0.00000    
     33944 TIP3     1548     SWM4     OH2      ODW       1.71640       15.5994           0 -0.978253       1.30000    
     33945 TIP3     1548     SWM4     DOH2     DOH2     -1.71640      0.400000           0   0.00000       0.00000    
     33946 TIP3     1548     SWM4     OM       LPDW     -1.11466       0.00000          -1   0.00000       0.00000    
     33947 TIP3     1548     SWM4     H1       HDW      0.557330       1.00800           0   0.00000       0.00000    
     33948 TIP3     1548     SWM4     H2       HDW      0.557330       1.00800           0   0.00000       0.00000    
     33949 TIP3     1549     SWM4     OH2      ODW       1.71640       15.5994           0 -0.978253       1.30000    
     33950 TIP3     1549     SWM4     DOH2     DOH2     -1.71640      0.400000           0   0.00000       0.00000    
     33951 TIP3     1549     SWM4     OM       LPDW     -1.11466       0.00000          -1   0.00000       0.00000    
     33952 TIP3     1549     SWM4     H1       HDW      0.557330       1.00800           0   0.00000       0.00000    
     33953 TIP3     1549     SWM4     H2       HDW      0.557330       1.00800           0   0.00000       0.00000    
     33954 TIP3     1550     SWM4     OH2      ODW       1.71640       15.5994           0 -0.978253       1.30000    
     33955 TIP3     1550     SWM4     DOH2     DOH2     -1.71640      0.400000           0   0.00000       0.00000    
     33956 TIP3     1550     SWM4     OM       LPDW     -1.11466       0.00000          -1   0.00000       0.00000    
     33957 TIP3     1550     SWM4     H1       HDW      0.557330       1.00800           0   0.00000       0.00000    
     33958 TIP3     1550     SWM4     H2       HDW      0.557330       1.00800           0   0.00000       0.00000    
     33959 TIP3     1551     SWM4     OH2      ODW       1.71640       15.5994           0 -0.978253       1.30000    
     33960 TIP3     1551     SWM4     DOH2     DOH2     -1.71640      0.400000           0   0.00000       0.00000    
     33961 TIP3     1551     SWM4     OM       LPDW     -1.11466       0.00000          -1   0.00000       0.00000    
     33962 TIP3     1551     SWM4     H1       HDW      0.557330       1.00800           0   0.00000       0.00000    
     33963 TIP3     1551     SWM4     H2       HDW      0.557330       1.00800           0   0.00000       0.00000    
     33964 TIP3     1552     SWM4     OH2      ODW       1.71640       15.5994           0 -0.978253       1.30000    
     33965 TIP3     1552     SWM4     DOH2     DOH2     -1.71640      0.400000           0   0.00000       0.00000    
     33966 TIP3     1552     SWM4     OM       LPDW     -1.11466       0.00000          -1   0.00000       0.00000    
     33967 TIP3     1552     SWM4     H1       HDW      0.557330       1.00800           0   0.00000       0.00000    
     33968 TIP3     1552     SWM4     H2       HDW      0.557330       1.00800           0   0.00000       0.00000    
     33969 TIP3     1553     SWM4     OH2      ODW       1.71640       15.5994           0 -0.978253       1.30000    
     33970 TIP3     1553     SWM4     DOH2     DOH2     -1.71640      0.400000           0   0.00000       0.00000    
     33971 TIP3     1553     SWM4     OM       LPDW     -1.11466       0.00000          -1   0.00000       0.00000    
     33972 TIP3     1553     SWM4     H1       HDW      0.557330       1.00800           0   0.00000       0.00000    
     33973 TIP3     1553     SWM4     H2       HDW      0.557330       1.00800           0   0.00000       0.00000    
     33974 TIP3     1554     SWM4     OH2      ODW       1.71640       15.5994           0 -0.978253       1.30000    
     33975 TIP3     1554     SWM4     DOH2     DOH2     -1.71640      0.400000           0   0.00000       0.00000    
     33976 TIP3     1554     SWM4     OM       LPDW     -1.11466       0.00000          -1   0.00000       0.00000    
     33977 TIP3     1554     SWM4     H1       HDW      0.557330       1.00800           0   0.00000       0.00000    
     33978 TIP3     1554     SWM4     H2       HDW      0.557330       1.00800           0   0.00000       0.00000    
     33979 TIP3     1555     SWM4     OH2      ODW       1.71640       15.5994           0 -0.978253       1.30000    
     33980 TIP3     1555     SWM4     DOH2     DOH2     -1.71640      0.400000           0   0.00000       0.00000    
     33981 TIP3     1555     SWM4     OM       LPDW     -1.11466       0.00000          -1   0.00000       0.00000    
     33982 TIP3     1555     SWM4     H1       HDW      0.557330       1.00800           0   0.00000       0.00000    
     33983 TIP3     1555     SWM4     H2       HDW      0.557330       1.00800           0   0.00000       0.00000    
     33984 TIP3     1556     SWM4     OH2      ODW       1.71640       15.5994           0 -0.978253       1.30000    
     33985 TIP3     1556     SWM4     DOH2     DOH2     -1.71640      0.400000           0   0.00000       0.00000    
     33986 TIP3     1556     SWM4     OM       LPDW     -1.11466       0.00000          -1   0.00000       0.00000    
     33987 TIP3     1556     SWM4     H1       HDW      0.557330       1.00800           0   0.00000       0.00000    
     33988 TIP3     1556     SWM4     H2       HDW      0.557330       1.00800           0   0.00000       0.00000    
     33989 TIP3     1557     SWM4     OH2      ODW       1.71640       15.5994           0 -0.978253       1.30000    
     33990 TIP3     1557     SWM4     DOH2     DOH2     -1.71640      0.400000           0   0.00000       0.00000    
     33991 TIP3     1557     SWM4     OM       LPDW     -1.11466       0.00000          -1   0.00000       0.00000    
     33992 TIP3     1557     SWM4     H1       HDW      0.557330       1.00800           0   0.00000       0.00000    
     33993 TIP3     1557     SWM4     H2       HDW      0.557330       1.00800           0   0.00000       0.00000    
     33994 TIP3     1558     SWM4     OH2      ODW       1.71640       15.5994           0 -0.978253       1.30000    
     33995 TIP3     1558     SWM4     DOH2     DOH2     -1.71640      0.400000           0   0.00000       0.00000    
     33996 TIP3     1558     SWM4     OM       LPDW     -1.11466       0.00000          -1   0.00000       0.00000    
     33997 TIP3     1558     SWM4     H1       HDW      0.557330       1.00800           0   0.00000       0.00000    
     33998 TIP3     1558     SWM4     H2       HDW      0.557330       1.00800           0   0.00000       0.00000    
     33999 TIP3     1559     SWM4     OH2      ODW       1.71640       15.5994           0 -0.978253       1.30000    
     34000 TIP3     1559     SWM4     DOH2     DOH2     -1.71640      0.400000           0   0.00000       0.00000    
     34001 TIP3     1559     SWM4     OM       LPDW     -1.11466       0.00000          -1   0.00000       0.00000    
     34002 TIP3     1559     SWM4     H1       HDW      0.557330       1.00800           0   0.00000       0.00000    
     34003 TIP3     1559     SWM4     H2       HDW      0.557330       1.00800           0   0.00000       0.00000    
     34004 TIP3     1560     SWM4     OH2      ODW       1.71640       15.5994           0 -0.978253       1.30000    
     34005 TIP3     1560     SWM4     DOH2     DOH2     -1.71640      0.400000           0   0.00000       0.00000    
     34006 TIP3     1560     SWM4     OM       LPDW     -1.11466       0.00000          -1   0.00000       0.00000    
     34007 TIP3     1560     SWM4     H1       HDW      0.557330       1.00800           0   0.00000       0.00000    
     34008 TIP3     1560     SWM4     H2       HDW      0.557330       1.00800           0   0.00000       0.00000    
     34009 TIP3     1561     SWM4     OH2      ODW       1.71640       15.5994           0 -0.978253       1.30000    
     34010 TIP3     1561     SWM4     DOH2     DOH2     -1.71640      0.400000           0   0.00000       0.00000    
     34011 TIP3     1561     SWM4     OM       LPDW     -1.11466       0.00000          -1   0.00000       0.00000    
     34012 TIP3     1561     SWM4     H1       HDW      0.557330       1.00800           0   0.00000       0.00000    
     34013 TIP3     1561     SWM4     H2       HDW      0.557330       1.00800           0   0.00000       0.00000    
     34014 TIP3     1562     SWM4     OH2      ODW       1.71640       15.5994           0 -0.978253       1.30000    
     34015 TIP3     1562     SWM4     DOH2     DOH2     -1.71640      0.400000           0   0.00000       0.00000    
     34016 TIP3     1562     SWM4     OM       LPDW     -1.11466       0.00000          -1   0.00000       0.00000    
     34017 TIP3     1562     SWM4     H1       HDW      0.557330       1.00800           0   0.00000       0.00000    
     34018 TIP3     1562     SWM4     H2       HDW      0.557330       1.00800           0   0.00000       0.00000    
     34019 TIP3     1563     SWM4     OH2      ODW       1.71640       15.5994           0 -0.978253       1.30000    
     34020 TIP3     1563     SWM4     DOH2     DOH2     -1.71640      0.400000           0   0.00000       0.00000    
     34021 TIP3     1563     SWM4     OM       LPDW     -1.11466       0.00000          -1   0.00000       0.00000    
     34022 TIP3     1563     SWM4     H1       HDW      0.557330       1.00800           0   0.00000       0.00000    
     34023 TIP3     1563     SWM4     H2       HDW      0.557330       1.00800           0   0.00000       0.00000    
     34024 TIP3     1564     SWM4     OH2      ODW       1.71640       15.5994           0 -0.978253       1.30000    
     34025 TIP3     1564     SWM4     DOH2     DOH2     -1.71640      0.400000           0   0.00000       0.00000    
     34026 TIP3     1564     SWM4     OM       LPDW     -1.11466       0.00000          -1   0.00000       0.00000    
     34027 TIP3     1564     SWM4     H1       HDW      0.557330       1.00800           0   0.00000       0.00000    
     34028 TIP3     1564     SWM4     H2       HDW      0.557330       1.00800           0   0.00000       0.00000    
     34029 TIP3     1565     SWM4     OH2      ODW       1.71640       15.5994           0 -0.978253       1.30000    
     34030 TIP3     1565     SWM4     DOH2     DOH2     -1.71640      0.400000           0   0.00000       0.00000    
     34031 TIP3     1565     SWM4     OM       LPDW     -1.11466       0.00000          -1   0.00000       0.00000    
     34032 TIP3     1565     SWM4     H1       HDW      0.557330       1.00800           0   0.00000       0.00000    
     34033 TIP3     1565     SWM4     H2       HDW      0.557330       1.00800           0   0.00000       0.00000    
     34034 TIP3     1566     SWM4     OH2      ODW       1.71640       15.5994           0 -0.978253       1.30000    
     34035 TIP3     1566     SWM4     DOH2     DOH2     -1.71640      0.400000           0   0.00000       0.00000    
     34036 TIP3     1566     SWM4     OM       LPDW     -1.11466       0.00000          -1   0.00000       0.00000    
     34037 TIP3     1566     SWM4     H1       HDW      0.557330       1.00800           0   0.00000       0.00000    
     34038 TIP3     1566     SWM4     H2       HDW      0.557330       1.00800           0   0.00000       0.00000    
     34039 TIP3     1567     SWM4     OH2      ODW       1.71640       15.5994           0 -0.978253       1.30000    
     34040 TIP3     1567     SWM4     DOH2     DOH2     -1.71640      0.400000           0   0.00000       0.00000    
     34041 TIP3     1567     SWM4     OM       LPDW     -1.11466       0.00000          -1   0.00000       0.00000    
     34042 TIP3     1567     SWM4     H1       HDW      0.557330       1.00800           0   0.00000       0.00000    
     34043 TIP3     1567     SWM4     H2       HDW      0.557330       1.00800           0   0.00000       0.00000    
     34044 TIP3     1568     SWM4     OH2      ODW       1.71640       15.5994           0 -0.978253       1.30000    
     34045 TIP3     1568     SWM4     DOH2     DOH2     -1.71640      0.400000           0   0.00000       0.00000    
     34046 TIP3     1568     SWM4     OM       LPDW     -1.11466       0.00000          -1   0.00000       0.00000    
     34047 TIP3     1568     SWM4     H1       HDW      0.557330       1.00800           0   0.00000       0.00000    
     34048 TIP3     1568     SWM4     H2       HDW      0.557330       1.00800           0   0.00000       0.00000    
     34049 TIP3     1569     SWM4     OH2      ODW       1.71640       15.5994           0 -0.978253       1.30000    
     34050 TIP3     1569     SWM4     DOH2     DOH2     -1.71640      0.400000           0   0.00000       0.00000    
     34051 TIP3     1569     SWM4     OM       LPDW     -1.11466       0.00000          -1   0.00000       0.00000    
     34052 TIP3     1569     SWM4     H1       HDW      0.557330       1.00800           0   0.00000       0.00000    
     34053 TIP3     1569     SWM4     H2       HDW      0.557330       1.00800           0   0.00000       0.00000    
     34054 TIP3     1570     SWM4     OH2      ODW       1.71640       15.5994           0 -0.978253       1.30000    
     34055 TIP3     1570     SWM4     DOH2     DOH2     -1.71640      0.400000           0   0.00000       0.00000    
     34056 TIP3     1570     SWM4     OM       LPDW     -1.11466       0.00000          -1   0.00000       0.00000    
     34057 TIP3     1570     SWM4     H1       HDW      0.557330       1.00800           0   0.00000       0.00000    
     34058 TIP3     1570     SWM4     H2       HDW      0.557330       1.00800           0   0.00000       0.00000    
     34059 TIP3     1571     SWM4     OH2      ODW       1.71640       15.5994           0 -0.978253       1.30000    
     34060 TIP3     1571     SWM4     DOH2     DOH2     -1.71640      0.400000           0   0.00000       0.00000    
     34061 TIP3     1571     SWM4     OM       LPDW     -1.11466       0.00000          -1   0.00000       0.00000    
     34062 TIP3     1571     SWM4     H1       HDW      0.557330       1.00800           0   0.00000       0.00000    
     34063 TIP3     1571     SWM4     H2       HDW      0.557330       1.00800           0   0.00000       0.00000    
     34064 TIP3     1572     SWM4     OH2      ODW       1.71640       15.5994           0 -0.978253       1.30000    
     34065 TIP3     1572     SWM4     DOH2     DOH2     -1.71640      0.400000           0   0.00000       0.00000    
     34066 TIP3     1572     SWM4     OM       LPDW     -1.11466       0.00000          -1   0.00000       0.00000    
     34067 TIP3     1572     SWM4     H1       HDW      0.557330       1.00800           0   0.00000       0.00000    
     34068 TIP3     1572     SWM4     H2       HDW      0.557330       1.00800           0   0.00000       0.00000    
     34069 TIP3     1573     SWM4     OH2      ODW       1.71640       15.5994           0 -0.978253       1.30000    
     34070 TIP3     1573     SWM4     DOH2     DOH2     -1.71640      0.400000           0   0.00000       0.00000    
     34071 TIP3     1573     SWM4     OM       LPDW     -1.11466       0.00000          -1   0.00000       0.00000    
     34072 TIP3     1573     SWM4     H1       HDW      0.557330       1.00800           0   0.00000       0.00000    
     34073 TIP3     1573     SWM4     H2       HDW      0.557330       1.00800           0   0.00000       0.00000    
     34074 TIP3     1574     SWM4     OH2      ODW       1.71640       15.5994           0 -0.978253       1.30000    
     34075 TIP3     1574     SWM4     DOH2     DOH2     -1.71640      0.400000           0   0.00000       0.00000    
     34076 TIP3     1574     SWM4     OM       LPDW     -1.11466       0.00000          -1   0.00000       0.00000    
     34077 TIP3     1574     SWM4     H1       HDW      0.557330       1.00800           0   0.00000       0.00000    
     34078 TIP3     1574     SWM4     H2       HDW      0.557330       1.00800           0   0.00000       0.00000    
     34079 TIP3     1575     SWM4     OH2      ODW       1.71640       15.5994           0 -0.978253       1.30000    
     34080 TIP3     1575     SWM4     DOH2     DOH2     -1.71640      0.400000           0   0.00000       0.00000    
     34081 TIP3     1575     SWM4     OM       LPDW     -1.11466       0.00000          -1   0.00000       0.00000    
     34082 TIP3     1575     SWM4     H1       HDW      0.557330       1.00800           0   0.00000       0.00000    
     34083 TIP3     1575     SWM4     H2       HDW      0.557330       1.00800           0   0.00000       0.00000    
     34084 TIP3     1576     SWM4     OH2      ODW       1.71640       15.5994           0 -0.978253       1.30000    
     34085 TIP3     1576     SWM4     DOH2     DOH2     -1.71640      0.400000           0   0.00000       0.00000    
     34086 TIP3     1576     SWM4     OM       LPDW     -1.11466       0.00000          -1   0.00000       0.00000    
     34087 TIP3     1576     SWM4     H1       HDW      0.557330       1.00800           0   0.00000       0.00000    
     34088 TIP3     1576     SWM4     H2       HDW      0.557330       1.00800           0   0.00000       0.00000    
     34089 TIP3     1577     SWM4     OH2      ODW       1.71640       15.5994           0 -0.978253       1.30000    
     34090 TIP3     1577     SWM4     DOH2     DOH2     -1.71640      0.400000           0   0.00000       0.00000    
     34091 TIP3     1577     SWM4     OM       LPDW     -1.11466       0.00000          -1   0.00000       0.00000    
     34092 TIP3     1577     SWM4     H1       HDW      0.557330       1.00800           0   0.00000       0.00000    
     34093 TIP3     1577     SWM4     H2       HDW      0.557330       1.00800           0   0.00000       0.00000    
     34094 TIP3     1578     SWM4     OH2      ODW       1.71640       15.5994           0 -0.978253       1.30000    
     34095 TIP3     1578     SWM4     DOH2     DOH2     -1.71640      0.400000           0   0.00000       0.00000    
     34096 TIP3     1578     SWM4     OM       LPDW     -1.11466       0.00000          -1   0.00000       0.00000    
     34097 TIP3     1578     SWM4     H1       HDW      0.557330       1.00800           0   0.00000       0.00000    
     34098 TIP3     1578     SWM4     H2       HDW      0.557330       1.00800           0   0.00000       0.00000    
     34099 TIP3     1579     SWM4     OH2      ODW       1.71640       15.5994           0 -0.978253       1.30000    
     34100 TIP3     1579     SWM4     DOH2     DOH2     -1.71640      0.400000           0   0.00000       0.00000    
     34101 TIP3     1579     SWM4     OM       LPDW     -1.11466       0.00000          -1   0.00000       0.00000    
     34102 TIP3     1579     SWM4     H1       HDW      0.557330       1.00800           0   0.00000       0.00000    
     34103 TIP3     1579     SWM4     H2       HDW      0.557330       1.00800           0   0.00000       0.00000    
     34104 TIP3     1580     SWM4     OH2      ODW       1.71640       15.5994           0 -0.978253       1.30000    
     34105 TIP3     1580     SWM4     DOH2     DOH2     -1.71640      0.400000           0   0.00000       0.00000    
     34106 TIP3     1580     SWM4     OM       LPDW     -1.11466       0.00000          -1   0.00000       0.00000    
     34107 TIP3     1580     SWM4     H1       HDW      0.557330       1.00800           0   0.00000       0.00000    
     34108 TIP3     1580     SWM4     H2       HDW      0.557330       1.00800           0   0.00000       0.00000    
     34109 TIP3     1581     SWM4     OH2      ODW       1.71640       15.5994           0 -0.978253       1.30000    
     34110 TIP3     1581     SWM4     DOH2     DOH2     -1.71640      0.400000           0   0.00000       0.00000    
     34111 TIP3     1581     SWM4     OM       LPDW     -1.11466       0.00000          -1   0.00000       0.00000    
     34112 TIP3     1581     SWM4     H1       HDW      0.557330       1.00800           0   0.00000       0.00000    
     34113 TIP3     1581     SWM4     H2       HDW      0.557330       1.00800           0   0.00000       0.00000    
     34114 TIP3     1582     SWM4     OH2      ODW       1.71640       15.5994           0 -0.978253       1.30000    
     34115 TIP3     1582     SWM4     DOH2     DOH2     -1.71640      0.400000           0   0.00000       0.00000    
     34116 TIP3     1582     SWM4     OM       LPDW     -1.11466       0.00000          -1   0.00000       0.00000    
     34117 TIP3     1582     SWM4     H1       HDW      0.557330       1.00800           0   0.00000       0.00000    
     34118 TIP3     1582     SWM4     H2       HDW      0.557330       1.00800           0   0.00000       0.00000    
     34119 TIP3     1583     SWM4     OH2      ODW       1.71640       15.5994           0 -0.978253       1.30000    
     34120 TIP3     1583     SWM4     DOH2     DOH2     -1.71640      0.400000           0   0.00000       0.00000    
     34121 TIP3     1583     SWM4     OM       LPDW     -1.11466       0.00000          -1   0.00000       0.00000    
     34122 TIP3     1583     SWM4     H1       HDW      0.557330       1.00800           0   0.00000       0.00000    
     34123 TIP3     1583     SWM4     H2       HDW      0.557330       1.00800           0   0.00000       0.00000    
     34124 TIP3     1584     SWM4     OH2      ODW       1.71640       15.5994           0 -0.978253       1.30000    
     34125 TIP3     1584     SWM4     DOH2     DOH2     -1.71640      0.400000           0   0.00000       0.00000    
     34126 TIP3     1584     SWM4     OM       LPDW     -1.11466       0.00000          -1   0.00000       0.00000    
     34127 TIP3     1584     SWM4     H1       HDW      0.557330       1.00800           0   0.00000       0.00000    
     34128 TIP3     1584     SWM4     H2       HDW      0.557330       1.00800           0   0.00000       0.00000    
     34129 TIP3     1585     SWM4     OH2      ODW       1.71640       15.5994           0 -0.978253       1.30000    
     34130 TIP3     1585     SWM4     DOH2     DOH2     -1.71640      0.400000           0   0.00000       0.00000    
     34131 TIP3     1585     SWM4     OM       LPDW     -1.11466       0.00000          -1   0.00000       0.00000    
     34132 TIP3     1585     SWM4     H1       HDW      0.557330       1.00800           0   0.00000       0.00000    
     34133 TIP3     1585     SWM4     H2       HDW      0.557330       1.00800           0   0.00000       0.00000    
     34134 TIP3     1586     SWM4     OH2      ODW       1.71640       15.5994           0 -0.978253       1.30000    
     34135 TIP3     1586     SWM4     DOH2     DOH2     -1.71640      0.400000           0   0.00000       0.00000    
     34136 TIP3     1586     SWM4     OM       LPDW     -1.11466       0.00000          -1   0.00000       0.00000    
     34137 TIP3     1586     SWM4     H1       HDW      0.557330       1.00800           0   0.00000       0.00000    
     34138 TIP3     1586     SWM4     H2       HDW      0.557330       1.00800           0   0.00000       0.00000    
     34139 TIP3     1587     SWM4     OH2      ODW       1.71640       15.5994           0 -0.978253       1.30000    
     34140 TIP3     1587     SWM4     DOH2     DOH2     -1.71640      0.400000           0   0.00000       0.00000    
     34141 TIP3     1587     SWM4     OM       LPDW     -1.11466       0.00000          -1   0.00000       0.00000    
     34142 TIP3     1587     SWM4     H1       HDW      0.557330       1.00800           0   0.00000       0.00000    
     34143 TIP3     1587     SWM4     H2       HDW      0.557330       1.00800           0   0.00000       0.00000    
     34144 TIP3     1588     SWM4     OH2      ODW       1.71640       15.5994           0 -0.978253       1.30000    
     34145 TIP3     1588     SWM4     DOH2     DOH2     -1.71640      0.400000           0   0.00000       0.00000    
     34146 TIP3     1588     SWM4     OM       LPDW     -1.11466       0.00000          -1   0.00000       0.00000    
     34147 TIP3     1588     SWM4     H1       HDW      0.557330       1.00800           0   0.00000       0.00000    
     34148 TIP3     1588     SWM4     H2       HDW      0.557330       1.00800           0   0.00000       0.00000    
     34149 TIP3     1589     SWM4     OH2      ODW       1.71640       15.5994           0 -0.978253       1.30000    
     34150 TIP3     1589     SWM4     DOH2     DOH2     -1.71640      0.400000           0   0.00000       0.00000    
     34151 TIP3     1589     SWM4     OM       LPDW     -1.11466       0.00000          -1   0.00000       0.00000    
     34152 TIP3     1589     SWM4     H1       HDW      0.557330       1.00800           0   0.00000       0.00000    
     34153 TIP3     1589     SWM4     H2       HDW      0.557330       1.00800           0   0.00000       0.00000    
     34154 TIP3     1590     SWM4     OH2      ODW       1.71640       15.5994           0 -0.978253       1.30000    
     34155 TIP3     1590     SWM4     DOH2     DOH2     -1.71640      0.400000           0   0.00000       0.00000    
     34156 TIP3     1590     SWM4     OM       LPDW     -1.11466       0.00000          -1   0.00000       0.00000    
     34157 TIP3     1590     SWM4     H1       HDW      0.557330       1.00800           0   0.00000       0.00000    
     34158 TIP3     1590     SWM4     H2       HDW      0.557330       1.00800           0   0.00000       0.00000    
     34159 TIP3     1591     SWM4     OH2      ODW       1.71640       15.5994           0 -0.978253       1.30000    
     34160 TIP3     1591     SWM4     DOH2     DOH2     -1.71640      0.400000           0   0.00000       0.00000    
     34161 TIP3     1591     SWM4     OM       LPDW     -1.11466       0.00000          -1   0.00000       0.00000    
     34162 TIP3     1591     SWM4     H1       HDW      0.557330       1.00800           0   0.00000       0.00000    
     34163 TIP3     1591     SWM4     H2       HDW      0.557330       1.00800           0   0.00000       0.00000    
     34164 TIP3     1592     SWM4     OH2      ODW       1.71640       15.5994           0 -0.978253       1.30000    
     34165 TIP3     1592     SWM4     DOH2     DOH2     -1.71640      0.400000           0   0.00000       0.00000    
     34166 TIP3     1592     SWM4     OM       LPDW     -1.11466       0.00000          -1   0.00000       0.00000    
     34167 TIP3     1592     SWM4     H1       HDW      0.557330       1.00800           0   0.00000       0.00000    
     34168 TIP3     1592     SWM4     H2       HDW      0.557330       1.00800           0   0.00000       0.00000    
     34169 TIP3     1593     SWM4     OH2      ODW       1.71640       15.5994           0 -0.978253       1.30000    
     34170 TIP3     1593     SWM4     DOH2     DOH2     -1.71640      0.400000           0   0.00000       0.00000    
     34171 TIP3     1593     SWM4     OM       LPDW     -1.11466       0.00000          -1   0.00000       0.00000    
     34172 TIP3     1593     SWM4     H1       HDW      0.557330       1.00800           0   0.00000       0.00000    
     34173 TIP3     1593     SWM4     H2       HDW      0.557330       1.00800           0   0.00000       0.00000    
     34174 TIP3     1594     SWM4     OH2      ODW       1.71640       15.5994           0 -0.978253       1.30000    
     34175 TIP3     1594     SWM4     DOH2     DOH2     -1.71640      0.400000           0   0.00000       0.00000    
     34176 TIP3     1594     SWM4     OM       LPDW     -1.11466       0.00000          -1   0.00000       0.00000    
     34177 TIP3     1594     SWM4     H1       HDW      0.557330       1.00800           0   0.00000       0.00000    
     34178 TIP3     1594     SWM4     H2       HDW      0.557330       1.00800           0   0.00000       0.00000    
     34179 TIP3     1595     SWM4     OH2      ODW       1.71640       15.5994           0 -0.978253       1.30000    
     34180 TIP3     1595     SWM4     DOH2     DOH2     -1.71640      0.400000           0   0.00000       0.00000    
     34181 TIP3     1595     SWM4     OM       LPDW     -1.11466       0.00000          -1   0.00000       0.00000    
     34182 TIP3     1595     SWM4     H1       HDW      0.557330       1.00800           0   0.00000       0.00000    
     34183 TIP3     1595     SWM4     H2       HDW      0.557330       1.00800           0   0.00000       0.00000    
     34184 TIP3     1596     SWM4     OH2      ODW       1.71640       15.5994           0 -0.978253       1.30000    
     34185 TIP3     1596     SWM4     DOH2     DOH2     -1.71640      0.400000           0   0.00000       0.00000    
     34186 TIP3     1596     SWM4     OM       LPDW     -1.11466       0.00000          -1   0.00000       0.00000    
     34187 TIP3     1596     SWM4     H1       HDW      0.557330       1.00800           0   0.00000       0.00000    
     34188 TIP3     1596     SWM4     H2       HDW      0.557330       1.00800           0   0.00000       0.00000    
     34189 TIP3     1597     SWM4     OH2      ODW       1.71640       15.5994           0 -0.978253       1.30000    
     34190 TIP3     1597     SWM4     DOH2     DOH2     -1.71640      0.400000           0   0.00000       0.00000    
     34191 TIP3     1597     SWM4     OM       LPDW     -1.11466       0.00000          -1   0.00000       0.00000    
     34192 TIP3     1597     SWM4     H1       HDW      0.557330       1.00800           0   0.00000       0.00000    
     34193 TIP3     1597     SWM4     H2       HDW      0.557330       1.00800           0   0.00000       0.00000    
     34194 TIP3     1598     SWM4     OH2      ODW       1.71640       15.5994           0 -0.978253       1.30000    
     34195 TIP3     1598     SWM4     DOH2     DOH2     -1.71640      0.400000           0   0.00000       0.00000    
     34196 TIP3     1598     SWM4     OM       LPDW     -1.11466       0.00000          -1   0.00000       0.00000    
     34197 TIP3     1598     SWM4     H1       HDW      0.557330       1.00800           0   0.00000       0.00000    
     34198 TIP3     1598     SWM4     H2       HDW      0.557330       1.00800           0   0.00000       0.00000    
     34199 TIP3     1599     SWM4     OH2      ODW       1.71640       15.5994           0 -0.978253       1.30000    
     34200 TIP3     1599     SWM4     DOH2     DOH2     -1.71640      0.400000           0   0.00000       0.00000    
     34201 TIP3     1599     SWM4     OM       LPDW     -1.11466       0.00000          -1   0.00000       0.00000    
     34202 TIP3     1599     SWM4     H1       HDW      0.557330       1.00800           0   0.00000       0.00000    
     34203 TIP3     1599     SWM4     H2       HDW      0.557330       1.00800           0   0.00000       0.00000    
     34204 TIP3     1600     SWM4     OH2      ODW       1.71640       15.5994           0 -0.978253       1.30000    
     34205 TIP3     1600     SWM4     DOH2     DOH2     -1.71640      0.400000           0   0.00000       0.00000    
     34206 TIP3     1600     SWM4     OM       LPDW     -1.11466       0.00000          -1   0.00000       0.00000    
     34207 TIP3     1600     SWM4     H1       HDW      0.557330       1.00800           0   0.00000       0.00000    
     34208 TIP3     1600     SWM4     H2       HDW      0.557330       1.00800           0   0.00000       0.00000    
     34209 TIP3     1601     SWM4     OH2      ODW       1.71640       15.5994           0 -0.978253       1.30000    
     34210 TIP3     1601     SWM4     DOH2     DOH2     -1.71640      0.400000           0   0.00000       0.00000    
     34211 TIP3     1601     SWM4     OM       LPDW     -1.11466       0.00000          -1   0.00000       0.00000    
     34212 TIP3     1601     SWM4     H1       HDW      0.557330       1.00800           0   0.00000       0.00000    
     34213 TIP3     1601     SWM4     H2       HDW      0.557330       1.00800           0   0.00000       0.00000    
     34214 TIP3     1602     SWM4     OH2      ODW       1.71640       15.5994           0 -0.978253       1.30000    
     34215 TIP3     1602     SWM4     DOH2     DOH2     -1.71640      0.400000           0   0.00000       0.00000    
     34216 TIP3     1602     SWM4     OM       LPDW     -1.11466       0.00000          -1   0.00000       0.00000    
     34217 TIP3     1602     SWM4     H1       HDW      0.557330       1.00800           0   0.00000       0.00000    
     34218 TIP3     1602     SWM4     H2       HDW      0.557330       1.00800           0   0.00000       0.00000    
     34219 TIP3     1603     SWM4     OH2      ODW       1.71640       15.5994           0 -0.978253       1.30000    
     34220 TIP3     1603     SWM4     DOH2     DOH2     -1.71640      0.400000           0   0.00000       0.00000    
     34221 TIP3     1603     SWM4     OM       LPDW     -1.11466       0.00000          -1   0.00000       0.00000    
     34222 TIP3     1603     SWM4     H1       HDW      0.557330       1.00800           0   0.00000       0.00000    
     34223 TIP3     1603     SWM4     H2       HDW      0.557330       1.00800           0   0.00000       0.00000    
     34224 TIP3     1604     SWM4     OH2      ODW       1.71640       15.5994           0 -0.978253       1.30000    
     34225 TIP3     1604     SWM4     DOH2     DOH2     -1.71640      0.400000           0   0.00000       0.00000    
     34226 TIP3     1604     SWM4     OM       LPDW     -1.11466       0.00000          -1   0.00000       0.00000    
     34227 TIP3     1604     SWM4     H1       HDW      0.557330       1.00800           0   0.00000       0.00000    
     34228 TIP3     1604     SWM4     H2       HDW      0.557330       1.00800           0   0.00000       0.00000    
     34229 TIP3     1605     SWM4     OH2      ODW       1.71640       15.5994           0 -0.978253       1.30000    
     34230 TIP3     1605     SWM4     DOH2     DOH2     -1.71640      0.400000           0   0.00000       0.00000    
     34231 TIP3     1605     SWM4     OM       LPDW     -1.11466       0.00000          -1   0.00000       0.00000    
     34232 TIP3     1605     SWM4     H1       HDW      0.557330       1.00800           0   0.00000       0.00000    
     34233 TIP3     1605     SWM4     H2       HDW      0.557330       1.00800           0   0.00000       0.00000    
     34234 TIP3     1606     SWM4     OH2      ODW       1.71640       15.5994           0 -0.978253       1.30000    
     34235 TIP3     1606     SWM4     DOH2     DOH2     -1.71640      0.400000           0   0.00000       0.00000    
     34236 TIP3     1606     SWM4     OM       LPDW     -1.11466       0.00000          -1   0.00000       0.00000    
     34237 TIP3     1606     SWM4     H1       HDW      0.557330       1.00800           0   0.00000       0.00000    
     34238 TIP3     1606     SWM4     H2       HDW      0.557330       1.00800           0   0.00000       0.00000    
     34239 TIP3     1607     SWM4     OH2      ODW       1.71640       15.5994           0 -0.978253       1.30000    
     34240 TIP3     1607     SWM4     DOH2     DOH2     -1.71640      0.400000           0   0.00000       0.00000    
     34241 TIP3     1607     SWM4     OM       LPDW     -1.11466       0.00000          -1   0.00000       0.00000    
     34242 TIP3     1607     SWM4     H1       HDW      0.557330       1.00800           0   0.00000       0.00000    
     34243 TIP3     1607     SWM4     H2       HDW      0.557330       1.00800           0   0.00000       0.00000    
     34244 TIP3     1608     SWM4     OH2      ODW       1.71640       15.5994           0 -0.978253       1.30000    
     34245 TIP3     1608     SWM4     DOH2     DOH2     -1.71640      0.400000           0   0.00000       0.00000    
     34246 TIP3     1608     SWM4     OM       LPDW     -1.11466       0.00000          -1   0.00000       0.00000    
     34247 TIP3     1608     SWM4     H1       HDW      0.557330       1.00800           0   0.00000       0.00000    
     34248 TIP3     1608     SWM4     H2       HDW      0.557330       1.00800           0   0.00000       0.00000    
     34249 TIP3     1609     SWM4     OH2      ODW       1.71640       15.5994           0 -0.978253       1.30000    
     34250 TIP3     1609     SWM4     DOH2     DOH2     -1.71640      0.400000           0   0.00000       0.00000    
     34251 TIP3     1609     SWM4     OM       LPDW     -1.11466       0.00000          -1   0.00000       0.00000    
     34252 TIP3     1609     SWM4     H1       HDW      0.557330       1.00800           0   0.00000       0.00000    
     34253 TIP3     1609     SWM4     H2       HDW      0.557330       1.00800           0   0.00000       0.00000    
     34254 TIP3     1610     SWM4     OH2      ODW       1.71640       15.5994           0 -0.978253       1.30000    
     34255 TIP3     1610     SWM4     DOH2     DOH2     -1.71640      0.400000           0   0.00000       0.00000    
     34256 TIP3     1610     SWM4     OM       LPDW     -1.11466       0.00000          -1   0.00000       0.00000    
     34257 TIP3     1610     SWM4     H1       HDW      0.557330       1.00800           0   0.00000       0.00000    
     34258 TIP3     1610     SWM4     H2       HDW      0.557330       1.00800           0   0.00000       0.00000    
     34259 TIP3     1611     SWM4     OH2      ODW       1.71640       15.5994           0 -0.978253       1.30000    
     34260 TIP3     1611     SWM4     DOH2     DOH2     -1.71640      0.400000           0   0.00000       0.00000    
     34261 TIP3     1611     SWM4     OM       LPDW     -1.11466       0.00000          -1   0.00000       0.00000    
     34262 TIP3     1611     SWM4     H1       HDW      0.557330       1.00800           0   0.00000       0.00000    
     34263 TIP3     1611     SWM4     H2       HDW      0.557330       1.00800           0   0.00000       0.00000    
     34264 TIP3     1612     SWM4     OH2      ODW       1.71640       15.5994           0 -0.978253       1.30000    
     34265 TIP3     1612     SWM4     DOH2     DOH2     -1.71640      0.400000           0   0.00000       0.00000    
     34266 TIP3     1612     SWM4     OM       LPDW     -1.11466       0.00000          -1   0.00000       0.00000    
     34267 TIP3     1612     SWM4     H1       HDW      0.557330       1.00800           0   0.00000       0.00000    
     34268 TIP3     1612     SWM4     H2       HDW      0.557330       1.00800           0   0.00000       0.00000    
     34269 TIP3     1613     SWM4     OH2      ODW       1.71640       15.5994           0 -0.978253       1.30000    
     34270 TIP3     1613     SWM4     DOH2     DOH2     -1.71640      0.400000           0   0.00000       0.00000    
     34271 TIP3     1613     SWM4     OM       LPDW     -1.11466       0.00000          -1   0.00000       0.00000    
     34272 TIP3     1613     SWM4     H1       HDW      0.557330       1.00800           0   0.00000       0.00000    
     34273 TIP3     1613     SWM4     H2       HDW      0.557330       1.00800           0   0.00000       0.00000    
     34274 TIP3     1614     SWM4     OH2      ODW       1.71640       15.5994           0 -0.978253       1.30000    
     34275 TIP3     1614     SWM4     DOH2     DOH2     -1.71640      0.400000           0   0.00000       0.00000    
     34276 TIP3     1614     SWM4     OM       LPDW     -1.11466       0.00000          -1   0.00000       0.00000    
     34277 TIP3     1614     SWM4     H1       HDW      0.557330       1.00800           0   0.00000       0.00000    
     34278 TIP3     1614     SWM4     H2       HDW      0.557330       1.00800           0   0.00000       0.00000    
     34279 TIP3     1615     SWM4     OH2      ODW       1.71640       15.5994           0 -0.978253       1.30000    
     34280 TIP3     1615     SWM4     DOH2     DOH2     -1.71640      0.400000           0   0.00000       0.00000    
     34281 TIP3     1615     SWM4     OM       LPDW     -1.11466       0.00000          -1   0.00000       0.00000    
     34282 TIP3     1615     SWM4     H1       HDW      0.557330       1.00800           0   0.00000       0.00000    
     34283 TIP3     1615     SWM4     H2       HDW      0.557330       1.00800           0   0.00000       0.00000    
     34284 TIP3     1616     SWM4     OH2      ODW       1.71640       15.5994           0 -0.978253       1.30000    
     34285 TIP3     1616     SWM4     DOH2     DOH2     -1.71640      0.400000           0   0.00000       0.00000    
     34286 TIP3     1616     SWM4     OM       LPDW     -1.11466       0.00000          -1   0.00000       0.00000    
     34287 TIP3     1616     SWM4     H1       HDW      0.557330       1.00800           0   0.00000       0.00000    
     34288 TIP3     1616     SWM4     H2       HDW      0.557330       1.00800           0   0.00000       0.00000    
     34289 TIP3     1617     SWM4     OH2      ODW       1.71640       15.5994           0 -0.978253       1.30000    
     34290 TIP3     1617     SWM4     DOH2     DOH2     -1.71640      0.400000           0   0.00000       0.00000    
     34291 TIP3     1617     SWM4     OM       LPDW     -1.11466       0.00000          -1   0.00000       0.00000    
     34292 TIP3     1617     SWM4     H1       HDW      0.557330       1.00800           0   0.00000       0.00000    
     34293 TIP3     1617     SWM4     H2       HDW      0.557330       1.00800           0   0.00000       0.00000    
     34294 TIP3     1618     SWM4     OH2      ODW       1.71640       15.5994           0 -0.978253       1.30000    
     34295 TIP3     1618     SWM4     DOH2     DOH2     -1.71640      0.400000           0   0.00000       0.00000    
     34296 TIP3     1618     SWM4     OM       LPDW     -1.11466       0.00000          -1   0.00000       0.00000    
     34297 TIP3     1618     SWM4     H1       HDW      0.557330       1.00800           0   0.00000       0.00000    
     34298 TIP3     1618     SWM4     H2       HDW      0.557330       1.00800           0   0.00000       0.00000    
     34299 TIP3     1619     SWM4     OH2      ODW       1.71640       15.5994           0 -0.978253       1.30000    
     34300 TIP3     1619     SWM4     DOH2     DOH2     -1.71640      0.400000           0   0.00000       0.00000    
     34301 TIP3     1619     SWM4     OM       LPDW     -1.11466       0.00000          -1   0.00000       0.00000    
     34302 TIP3     1619     SWM4     H1       HDW      0.557330       1.00800           0   0.00000       0.00000    
     34303 TIP3     1619     SWM4     H2       HDW      0.557330       1.00800           0   0.00000       0.00000    
     34304 TIP3     1620     SWM4     OH2      ODW       1.71640       15.5994           0 -0.978253       1.30000    
     34305 TIP3     1620     SWM4     DOH2     DOH2     -1.71640      0.400000           0   0.00000       0.00000    
     34306 TIP3     1620     SWM4     OM       LPDW     -1.11466       0.00000          -1   0.00000       0.00000    
     34307 TIP3     1620     SWM4     H1       HDW      0.557330       1.00800           0   0.00000       0.00000    
     34308 TIP3     1620     SWM4     H2       HDW      0.557330       1.00800           0   0.00000       0.00000    
     34309 TIP3     1621     SWM4     OH2      ODW       1.71640       15.5994           0 -0.978253       1.30000    
     34310 TIP3     1621     SWM4     DOH2     DOH2     -1.71640      0.400000           0   0.00000       0.00000    
     34311 TIP3     1621     SWM4     OM       LPDW     -1.11466       0.00000          -1   0.00000       0.00000    
     34312 TIP3     1621     SWM4     H1       HDW      0.557330       1.00800           0   0.00000       0.00000    
     34313 TIP3     1621     SWM4     H2       HDW      0.557330       1.00800           0   0.00000       0.00000    
     34314 TIP3     1622     SWM4     OH2      ODW       1.71640       15.5994           0 -0.978253       1.30000    
     34315 TIP3     1622     SWM4     DOH2     DOH2     -1.71640      0.400000           0   0.00000       0.00000    
     34316 TIP3     1622     SWM4     OM       LPDW     -1.11466       0.00000          -1   0.00000       0.00000    
     34317 TIP3     1622     SWM4     H1       HDW      0.557330       1.00800           0   0.00000       0.00000    
     34318 TIP3     1622     SWM4     H2       HDW      0.557330       1.00800           0   0.00000       0.00000    
     34319 TIP3     1623     SWM4     OH2      ODW       1.71640       15.5994           0 -0.978253       1.30000    
     34320 TIP3     1623     SWM4     DOH2     DOH2     -1.71640      0.400000           0   0.00000       0.00000    
     34321 TIP3     1623     SWM4     OM       LPDW     -1.11466       0.00000          -1   0.00000       0.00000    
     34322 TIP3     1623     SWM4     H1       HDW      0.557330       1.00800           0   0.00000       0.00000    
     34323 TIP3     1623     SWM4     H2       HDW      0.557330       1.00800           0   0.00000       0.00000    
     34324 TIP3     1624     SWM4     OH2      ODW       1.71640       15.5994           0 -0.978253       1.30000    
     34325 TIP3     1624     SWM4     DOH2     DOH2     -1.71640      0.400000           0   0.00000       0.00000    
     34326 TIP3     1624     SWM4     OM       LPDW     -1.11466       0.00000          -1   0.00000       0.00000    
     34327 TIP3     1624     SWM4     H1       HDW      0.557330       1.00800           0   0.00000       0.00000    
     34328 TIP3     1624     SWM4     H2       HDW      0.557330       1.00800           0   0.00000       0.00000    
     34329 TIP3     1625     SWM4     OH2      ODW       1.71640       15.5994           0 -0.978253       1.30000    
     34330 TIP3     1625     SWM4     DOH2     DOH2     -1.71640      0.400000           0   0.00000       0.00000    
     34331 TIP3     1625     SWM4     OM       LPDW     -1.11466       0.00000          -1   0.00000       0.00000    
     34332 TIP3     1625     SWM4     H1       HDW      0.557330       1.00800           0   0.00000       0.00000    
     34333 TIP3     1625     SWM4     H2       HDW      0.557330       1.00800           0   0.00000       0.00000    
     34334 TIP3     1626     SWM4     OH2      ODW       1.71640       15.5994           0 -0.978253       1.30000    
     34335 TIP3     1626     SWM4     DOH2     DOH2     -1.71640      0.400000           0   0.00000       0.00000    
     34336 TIP3     1626     SWM4     OM       LPDW     -1.11466       0.00000          -1   0.00000       0.00000    
     34337 TIP3     1626     SWM4     H1       HDW      0.557330       1.00800           0   0.00000       0.00000    
     34338 TIP3     1626     SWM4     H2       HDW      0.557330       1.00800           0   0.00000       0.00000    
     34339 TIP3     1627     SWM4     OH2      ODW       1.71640       15.5994           0 -0.978253       1.30000    
     34340 TIP3     1627     SWM4     DOH2     DOH2     -1.71640      0.400000           0   0.00000       0.00000    
     34341 TIP3     1627     SWM4     OM       LPDW     -1.11466       0.00000          -1   0.00000       0.00000    
     34342 TIP3     1627     SWM4     H1       HDW      0.557330       1.00800           0   0.00000       0.00000    
     34343 TIP3     1627     SWM4     H2       HDW      0.557330       1.00800           0   0.00000       0.00000    
     34344 TIP3     1628     SWM4     OH2      ODW       1.71640       15.5994           0 -0.978253       1.30000    
     34345 TIP3     1628     SWM4     DOH2     DOH2     -1.71640      0.400000           0   0.00000       0.00000    
     34346 TIP3     1628     SWM4     OM       LPDW     -1.11466       0.00000          -1   0.00000       0.00000    
     34347 TIP3     1628     SWM4     H1       HDW      0.557330       1.00800           0   0.00000       0.00000    
     34348 TIP3     1628     SWM4     H2       HDW      0.557330       1.00800           0   0.00000       0.00000    
     34349 TIP3     1629     SWM4     OH2      ODW       1.71640       15.5994           0 -0.978253       1.30000    
     34350 TIP3     1629     SWM4     DOH2     DOH2     -1.71640      0.400000           0   0.00000       0.00000    
     34351 TIP3     1629     SWM4     OM       LPDW     -1.11466       0.00000          -1   0.00000       0.00000    
     34352 TIP3     1629     SWM4     H1       HDW      0.557330       1.00800           0   0.00000       0.00000    
     34353 TIP3     1629     SWM4     H2       HDW      0.557330       1.00800           0   0.00000       0.00000    
     34354 TIP3     1630     SWM4     OH2      ODW       1.71640       15.5994           0 -0.978253       1.30000    
     34355 TIP3     1630     SWM4     DOH2     DOH2     -1.71640      0.400000           0   0.00000       0.00000    
     34356 TIP3     1630     SWM4     OM       LPDW     -1.11466       0.00000          -1   0.00000       0.00000    
     34357 TIP3     1630     SWM4     H1       HDW      0.557330       1.00800           0   0.00000       0.00000    
     34358 TIP3     1630     SWM4     H2       HDW      0.557330       1.00800           0   0.00000       0.00000    
     34359 TIP3     1631     SWM4     OH2      ODW       1.71640       15.5994           0 -0.978253       1.30000    
     34360 TIP3     1631     SWM4     DOH2     DOH2     -1.71640      0.400000           0   0.00000       0.00000    
     34361 TIP3     1631     SWM4     OM       LPDW     -1.11466       0.00000          -1   0.00000       0.00000    
     34362 TIP3     1631     SWM4     H1       HDW      0.557330       1.00800           0   0.00000       0.00000    
     34363 TIP3     1631     SWM4     H2       HDW      0.557330       1.00800           0   0.00000       0.00000    
     34364 TIP3     1632     SWM4     OH2      ODW       1.71640       15.5994           0 -0.978253       1.30000    
     34365 TIP3     1632     SWM4     DOH2     DOH2     -1.71640      0.400000           0   0.00000       0.00000    
     34366 TIP3     1632     SWM4     OM       LPDW     -1.11466       0.00000          -1   0.00000       0.00000    
     34367 TIP3     1632     SWM4     H1       HDW      0.557330       1.00800           0   0.00000       0.00000    
     34368 TIP3     1632     SWM4     H2       HDW      0.557330       1.00800           0   0.00000       0.00000    
     34369 TIP3     1633     SWM4     OH2      ODW       1.71640       15.5994           0 -0.978253       1.30000    
     34370 TIP3     1633     SWM4     DOH2     DOH2     -1.71640      0.400000           0   0.00000       0.00000    
     34371 TIP3     1633     SWM4     OM       LPDW     -1.11466       0.00000          -1   0.00000       0.00000    
     34372 TIP3     1633     SWM4     H1       HDW      0.557330       1.00800           0   0.00000       0.00000    
     34373 TIP3     1633     SWM4     H2       HDW      0.557330       1.00800           0   0.00000       0.00000    
     34374 TIP3     1634     SWM4     OH2      ODW       1.71640       15.5994           0 -0.978253       1.30000    
     34375 TIP3     1634     SWM4     DOH2     DOH2     -1.71640      0.400000           0   0.00000       0.00000    
     34376 TIP3     1634     SWM4     OM       LPDW     -1.11466       0.00000          -1   0.00000       0.00000    
     34377 TIP3     1634     SWM4     H1       HDW      0.557330       1.00800           0   0.00000       0.00000    
     34378 TIP3     1634     SWM4     H2       HDW      0.557330       1.00800           0   0.00000       0.00000    
     34379 TIP3     1635     SWM4     OH2      ODW       1.71640       15.5994           0 -0.978253       1.30000    
     34380 TIP3     1635     SWM4     DOH2     DOH2     -1.71640      0.400000           0   0.00000       0.00000    
     34381 TIP3     1635     SWM4     OM       LPDW     -1.11466       0.00000          -1   0.00000       0.00000    
     34382 TIP3     1635     SWM4     H1       HDW      0.557330       1.00800           0   0.00000       0.00000    
     34383 TIP3     1635     SWM4     H2       HDW      0.557330       1.00800           0   0.00000       0.00000    
     34384 TIP3     1636     SWM4     OH2      ODW       1.71640       15.5994           0 -0.978253       1.30000    
     34385 TIP3     1636     SWM4     DOH2     DOH2     -1.71640      0.400000           0   0.00000       0.00000    
     34386 TIP3     1636     SWM4     OM       LPDW     -1.11466       0.00000          -1   0.00000       0.00000    
     34387 TIP3     1636     SWM4     H1       HDW      0.557330       1.00800           0   0.00000       0.00000    
     34388 TIP3     1636     SWM4     H2       HDW      0.557330       1.00800           0   0.00000       0.00000    
     34389 TIP3     1637     SWM4     OH2      ODW       1.71640       15.5994           0 -0.978253       1.30000    
     34390 TIP3     1637     SWM4     DOH2     DOH2     -1.71640      0.400000           0   0.00000       0.00000    
     34391 TIP3     1637     SWM4     OM       LPDW     -1.11466       0.00000          -1   0.00000       0.00000    
     34392 TIP3     1637     SWM4     H1       HDW      0.557330       1.00800           0   0.00000       0.00000    
     34393 TIP3     1637     SWM4     H2       HDW      0.557330       1.00800           0   0.00000       0.00000    
     34394 TIP3     1638     SWM4     OH2      ODW       1.71640       15.5994           0 -0.978253       1.30000    
     34395 TIP3     1638     SWM4     DOH2     DOH2     -1.71640      0.400000           0   0.00000       0.00000    
     34396 TIP3     1638     SWM4     OM       LPDW     -1.11466       0.00000          -1   0.00000       0.00000    
     34397 TIP3     1638     SWM4     H1       HDW      0.557330       1.00800           0   0.00000       0.00000    
     34398 TIP3     1638     SWM4     H2       HDW      0.557330       1.00800           0   0.00000       0.00000    
     34399 TIP3     1639     SWM4     OH2      ODW       1.71640       15.5994           0 -0.978253       1.30000    
     34400 TIP3     1639     SWM4     DOH2     DOH2     -1.71640      0.400000           0   0.00000       0.00000    
     34401 TIP3     1639     SWM4     OM       LPDW     -1.11466       0.00000          -1   0.00000       0.00000    
     34402 TIP3     1639     SWM4     H1       HDW      0.557330       1.00800           0   0.00000       0.00000    
     34403 TIP3     1639     SWM4     H2       HDW      0.557330       1.00800           0   0.00000       0.00000    
     34404 TIP3     1640     SWM4     OH2      ODW       1.71640       15.5994           0 -0.978253       1.30000    
     34405 TIP3     1640     SWM4     DOH2     DOH2     -1.71640      0.400000           0   0.00000       0.00000    
     34406 TIP3     1640     SWM4     OM       LPDW     -1.11466       0.00000          -1   0.00000       0.00000    
     34407 TIP3     1640     SWM4     H1       HDW      0.557330       1.00800           0   0.00000       0.00000    
     34408 TIP3     1640     SWM4     H2       HDW      0.557330       1.00800           0   0.00000       0.00000    
     34409 TIP3     1641     SWM4     OH2      ODW       1.71640       15.5994           0 -0.978253       1.30000    
     34410 TIP3     1641     SWM4     DOH2     DOH2     -1.71640      0.400000           0   0.00000       0.00000    
     34411 TIP3     1641     SWM4     OM       LPDW     -1.11466       0.00000          -1   0.00000       0.00000    
     34412 TIP3     1641     SWM4     H1       HDW      0.557330       1.00800           0   0.00000       0.00000    
     34413 TIP3     1641     SWM4     H2       HDW      0.557330       1.00800           0   0.00000       0.00000    
     34414 TIP3     1642     SWM4     OH2      ODW       1.71640       15.5994           0 -0.978253       1.30000    
     34415 TIP3     1642     SWM4     DOH2     DOH2     -1.71640      0.400000           0   0.00000       0.00000    
     34416 TIP3     1642     SWM4     OM       LPDW     -1.11466       0.00000          -1   0.00000       0.00000    
     34417 TIP3     1642     SWM4     H1       HDW      0.557330       1.00800           0   0.00000       0.00000    
     34418 TIP3     1642     SWM4     H2       HDW      0.557330       1.00800           0   0.00000       0.00000    
     34419 TIP3     1643     SWM4     OH2      ODW       1.71640       15.5994           0 -0.978253       1.30000    
     34420 TIP3     1643     SWM4     DOH2     DOH2     -1.71640      0.400000           0   0.00000       0.00000    
     34421 TIP3     1643     SWM4     OM       LPDW     -1.11466       0.00000          -1   0.00000       0.00000    
     34422 TIP3     1643     SWM4     H1       HDW      0.557330       1.00800           0   0.00000       0.00000    
     34423 TIP3     1643     SWM4     H2       HDW      0.557330       1.00800           0   0.00000       0.00000    
     34424 TIP3     1644     SWM4     OH2      ODW       1.71640       15.5994           0 -0.978253       1.30000    
     34425 TIP3     1644     SWM4     DOH2     DOH2     -1.71640      0.400000           0   0.00000       0.00000    
     34426 TIP3     1644     SWM4     OM       LPDW     -1.11466       0.00000          -1   0.00000       0.00000    
     34427 TIP3     1644     SWM4     H1       HDW      0.557330       1.00800           0   0.00000       0.00000    
     34428 TIP3     1644     SWM4     H2       HDW      0.557330       1.00800           0   0.00000       0.00000    
     34429 TIP3     1645     SWM4     OH2      ODW       1.71640       15.5994           0 -0.978253       1.30000    
     34430 TIP3     1645     SWM4     DOH2     DOH2     -1.71640      0.400000           0   0.00000       0.00000    
     34431 TIP3     1645     SWM4     OM       LPDW     -1.11466       0.00000          -1   0.00000       0.00000    
     34432 TIP3     1645     SWM4     H1       HDW      0.557330       1.00800           0   0.00000       0.00000    
     34433 TIP3     1645     SWM4     H2       HDW      0.557330       1.00800           0   0.00000       0.00000    
     34434 TIP3     1646     SWM4     OH2      ODW       1.71640       15.5994           0 -0.978253       1.30000    
     34435 TIP3     1646     SWM4     DOH2     DOH2     -1.71640      0.400000           0   0.00000       0.00000    
     34436 TIP3     1646     SWM4     OM       LPDW     -1.11466       0.00000          -1   0.00000       0.00000    
     34437 TIP3     1646     SWM4     H1       HDW      0.557330       1.00800           0   0.00000       0.00000    
     34438 TIP3     1646     SWM4     H2       HDW      0.557330       1.00800           0   0.00000       0.00000    
     34439 TIP3     1647     SWM4     OH2      ODW       1.71640       15.5994           0 -0.978253       1.30000    
     34440 TIP3     1647     SWM4     DOH2     DOH2     -1.71640      0.400000           0   0.00000       0.00000    
     34441 TIP3     1647     SWM4     OM       LPDW     -1.11466       0.00000          -1   0.00000       0.00000    
     34442 TIP3     1647     SWM4     H1       HDW      0.557330       1.00800           0   0.00000       0.00000    
     34443 TIP3     1647     SWM4     H2       HDW      0.557330       1.00800           0   0.00000       0.00000    
     34444 TIP3     1648     SWM4     OH2      ODW       1.71640       15.5994           0 -0.978253       1.30000    
     34445 TIP3     1648     SWM4     DOH2     DOH2     -1.71640      0.400000           0   0.00000       0.00000    
     34446 TIP3     1648     SWM4     OM       LPDW     -1.11466       0.00000          -1   0.00000       0.00000    
     34447 TIP3     1648     SWM4     H1       HDW      0.557330       1.00800           0   0.00000       0.00000    
     34448 TIP3     1648     SWM4     H2       HDW      0.557330       1.00800           0   0.00000       0.00000    
     34449 TIP3     1649     SWM4     OH2      ODW       1.71640       15.5994           0 -0.978253       1.30000    
     34450 TIP3     1649     SWM4     DOH2     DOH2     -1.71640      0.400000           0   0.00000       0.00000    
     34451 TIP3     1649     SWM4     OM       LPDW     -1.11466       0.00000          -1   0.00000       0.00000    
     34452 TIP3     1649     SWM4     H1       HDW      0.557330       1.00800           0   0.00000       0.00000    
     34453 TIP3     1649     SWM4     H2       HDW      0.557330       1.00800           0   0.00000       0.00000    
     34454 TIP3     1650     SWM4     OH2      ODW       1.71640       15.5994           0 -0.978253       1.30000    
     34455 TIP3     1650     SWM4     DOH2     DOH2     -1.71640      0.400000           0   0.00000       0.00000    
     34456 TIP3     1650     SWM4     OM       LPDW     -1.11466       0.00000          -1   0.00000       0.00000    
     34457 TIP3     1650     SWM4     H1       HDW      0.557330       1.00800           0   0.00000       0.00000    
     34458 TIP3     1650     SWM4     H2       HDW      0.557330       1.00800           0   0.00000       0.00000    
     34459 TIP3     1651     SWM4     OH2      ODW       1.71640       15.5994           0 -0.978253       1.30000    
     34460 TIP3     1651     SWM4     DOH2     DOH2     -1.71640      0.400000           0   0.00000       0.00000    
     34461 TIP3     1651     SWM4     OM       LPDW     -1.11466       0.00000          -1   0.00000       0.00000    
     34462 TIP3     1651     SWM4     H1       HDW      0.557330       1.00800           0   0.00000       0.00000    
     34463 TIP3     1651     SWM4     H2       HDW      0.557330       1.00800           0   0.00000       0.00000    
     34464 TIP3     1652     SWM4     OH2      ODW       1.71640       15.5994           0 -0.978253       1.30000    
     34465 TIP3     1652     SWM4     DOH2     DOH2     -1.71640      0.400000           0   0.00000       0.00000    
     34466 TIP3     1652     SWM4     OM       LPDW     -1.11466       0.00000          -1   0.00000       0.00000    
     34467 TIP3     1652     SWM4     H1       HDW      0.557330       1.00800           0   0.00000       0.00000    
     34468 TIP3     1652     SWM4     H2       HDW      0.557330       1.00800           0   0.00000       0.00000    
     34469 TIP3     1653     SWM4     OH2      ODW       1.71640       15.5994           0 -0.978253       1.30000    
     34470 TIP3     1653     SWM4     DOH2     DOH2     -1.71640      0.400000           0   0.00000       0.00000    
     34471 TIP3     1653     SWM4     OM       LPDW     -1.11466       0.00000          -1   0.00000       0.00000    
     34472 TIP3     1653     SWM4     H1       HDW      0.557330       1.00800           0   0.00000       0.00000    
     34473 TIP3     1653     SWM4     H2       HDW      0.557330       1.00800           0   0.00000       0.00000    
     34474 TIP3     1654     SWM4     OH2      ODW       1.71640       15.5994           0 -0.978253       1.30000    
     34475 TIP3     1654     SWM4     DOH2     DOH2     -1.71640      0.400000           0   0.00000       0.00000    
     34476 TIP3     1654     SWM4     OM       LPDW     -1.11466       0.00000          -1   0.00000       0.00000    
     34477 TIP3     1654     SWM4     H1       HDW      0.557330       1.00800           0   0.00000       0.00000    
     34478 TIP3     1654     SWM4     H2       HDW      0.557330       1.00800           0   0.00000       0.00000    
     34479 TIP3     1655     SWM4     OH2      ODW       1.71640       15.5994           0 -0.978253       1.30000    
     34480 TIP3     1655     SWM4     DOH2     DOH2     -1.71640      0.400000           0   0.00000       0.00000    
     34481 TIP3     1655     SWM4     OM       LPDW     -1.11466       0.00000          -1   0.00000       0.00000    
     34482 TIP3     1655     SWM4     H1       HDW      0.557330       1.00800           0   0.00000       0.00000    
     34483 TIP3     1655     SWM4     H2       HDW      0.557330       1.00800           0   0.00000       0.00000    
     34484 TIP3     1656     SWM4     OH2      ODW       1.71640       15.5994           0 -0.978253       1.30000    
     34485 TIP3     1656     SWM4     DOH2     DOH2     -1.71640      0.400000           0   0.00000       0.00000    
     34486 TIP3     1656     SWM4     OM       LPDW     -1.11466       0.00000          -1   0.00000       0.00000    
     34487 TIP3     1656     SWM4     H1       HDW      0.557330       1.00800           0   0.00000       0.00000    
     34488 TIP3     1656     SWM4     H2       HDW      0.557330       1.00800           0   0.00000       0.00000    
     34489 TIP3     1657     SWM4     OH2      ODW       1.71640       15.5994           0 -0.978253       1.30000    
     34490 TIP3     1657     SWM4     DOH2     DOH2     -1.71640      0.400000           0   0.00000       0.00000    
     34491 TIP3     1657     SWM4     OM       LPDW     -1.11466       0.00000          -1   0.00000       0.00000    
     34492 TIP3     1657     SWM4     H1       HDW      0.557330       1.00800           0   0.00000       0.00000    
     34493 TIP3     1657     SWM4     H2       HDW      0.557330       1.00800           0   0.00000       0.00000    
     34494 TIP3     1658     SWM4     OH2      ODW       1.71640       15.5994           0 -0.978253       1.30000    
     34495 TIP3     1658     SWM4     DOH2     DOH2     -1.71640      0.400000           0   0.00000       0.00000    
     34496 TIP3     1658     SWM4     OM       LPDW     -1.11466       0.00000          -1   0.00000       0.00000    
     34497 TIP3     1658     SWM4     H1       HDW      0.557330       1.00800           0   0.00000       0.00000    
     34498 TIP3     1658     SWM4     H2       HDW      0.557330       1.00800           0   0.00000       0.00000    
     34499 TIP3     1659     SWM4     OH2      ODW       1.71640       15.5994           0 -0.978253       1.30000    
     34500 TIP3     1659     SWM4     DOH2     DOH2     -1.71640      0.400000           0   0.00000       0.00000    
     34501 TIP3     1659     SWM4     OM       LPDW     -1.11466       0.00000          -1   0.00000       0.00000    
     34502 TIP3     1659     SWM4     H1       HDW      0.557330       1.00800           0   0.00000       0.00000    
     34503 TIP3     1659     SWM4     H2       HDW      0.557330       1.00800           0   0.00000       0.00000    
     34504 TIP3     1660     SWM4     OH2      ODW       1.71640       15.5994           0 -0.978253       1.30000    
     34505 TIP3     1660     SWM4     DOH2     DOH2     -1.71640      0.400000           0   0.00000       0.00000    
     34506 TIP3     1660     SWM4     OM       LPDW     -1.11466       0.00000          -1   0.00000       0.00000    
     34507 TIP3     1660     SWM4     H1       HDW      0.557330       1.00800           0   0.00000       0.00000    
     34508 TIP3     1660     SWM4     H2       HDW      0.557330       1.00800           0   0.00000       0.00000    
     34509 TIP3     1661     SWM4     OH2      ODW       1.71640       15.5994           0 -0.978253       1.30000    
     34510 TIP3     1661     SWM4     DOH2     DOH2     -1.71640      0.400000           0   0.00000       0.00000    
     34511 TIP3     1661     SWM4     OM       LPDW     -1.11466       0.00000          -1   0.00000       0.00000    
     34512 TIP3     1661     SWM4     H1       HDW      0.557330       1.00800           0   0.00000       0.00000    
     34513 TIP3     1661     SWM4     H2       HDW      0.557330       1.00800           0   0.00000       0.00000    
     34514 TIP3     1662     SWM4     OH2      ODW       1.71640       15.5994           0 -0.978253       1.30000    
     34515 TIP3     1662     SWM4     DOH2     DOH2     -1.71640      0.400000           0   0.00000       0.00000    
     34516 TIP3     1662     SWM4     OM       LPDW     -1.11466       0.00000          -1   0.00000       0.00000    
     34517 TIP3     1662     SWM4     H1       HDW      0.557330       1.00800           0   0.00000       0.00000    
     34518 TIP3     1662     SWM4     H2       HDW      0.557330       1.00800           0   0.00000       0.00000    
     34519 TIP3     1663     SWM4     OH2      ODW       1.71640       15.5994           0 -0.978253       1.30000    
     34520 TIP3     1663     SWM4     DOH2     DOH2     -1.71640      0.400000           0   0.00000       0.00000    
     34521 TIP3     1663     SWM4     OM       LPDW     -1.11466       0.00000          -1   0.00000       0.00000    
     34522 TIP3     1663     SWM4     H1       HDW      0.557330       1.00800           0   0.00000       0.00000    
     34523 TIP3     1663     SWM4     H2       HDW      0.557330       1.00800           0   0.00000       0.00000    
     34524 TIP3     1664     SWM4     OH2      ODW       1.71640       15.5994           0 -0.978253       1.30000    
     34525 TIP3     1664     SWM4     DOH2     DOH2     -1.71640      0.400000           0   0.00000       0.00000    
     34526 TIP3     1664     SWM4     OM       LPDW     -1.11466       0.00000          -1   0.00000       0.00000    
     34527 TIP3     1664     SWM4     H1       HDW      0.557330       1.00800           0   0.00000       0.00000    
     34528 TIP3     1664     SWM4     H2       HDW      0.557330       1.00800           0   0.00000       0.00000    
     34529 TIP3     1665     SWM4     OH2      ODW       1.71640       15.5994           0 -0.978253       1.30000    
     34530 TIP3     1665     SWM4     DOH2     DOH2     -1.71640      0.400000           0   0.00000       0.00000    
     34531 TIP3     1665     SWM4     OM       LPDW     -1.11466       0.00000          -1   0.00000       0.00000    
     34532 TIP3     1665     SWM4     H1       HDW      0.557330       1.00800           0   0.00000       0.00000    
     34533 TIP3     1665     SWM4     H2       HDW      0.557330       1.00800           0   0.00000       0.00000    
     34534 TIP3     1666     SWM4     OH2      ODW       1.71640       15.5994           0 -0.978253       1.30000    
     34535 TIP3     1666     SWM4     DOH2     DOH2     -1.71640      0.400000           0   0.00000       0.00000    
     34536 TIP3     1666     SWM4     OM       LPDW     -1.11466       0.00000          -1   0.00000       0.00000    
     34537 TIP3     1666     SWM4     H1       HDW      0.557330       1.00800           0   0.00000       0.00000    
     34538 TIP3     1666     SWM4     H2       HDW      0.557330       1.00800           0   0.00000       0.00000    
     34539 TIP3     1667     SWM4     OH2      ODW       1.71640       15.5994           0 -0.978253       1.30000    
     34540 TIP3     1667     SWM4     DOH2     DOH2     -1.71640      0.400000           0   0.00000       0.00000    
     34541 TIP3     1667     SWM4     OM       LPDW     -1.11466       0.00000          -1   0.00000       0.00000    
     34542 TIP3     1667     SWM4     H1       HDW      0.557330       1.00800           0   0.00000       0.00000    
     34543 TIP3     1667     SWM4     H2       HDW      0.557330       1.00800           0   0.00000       0.00000    
     34544 TIP3     1668     SWM4     OH2      ODW       1.71640       15.5994           0 -0.978253       1.30000    
     34545 TIP3     1668     SWM4     DOH2     DOH2     -1.71640      0.400000           0   0.00000       0.00000    
     34546 TIP3     1668     SWM4     OM       LPDW     -1.11466       0.00000          -1   0.00000       0.00000    
     34547 TIP3     1668     SWM4     H1       HDW      0.557330       1.00800           0   0.00000       0.00000    
     34548 TIP3     1668     SWM4     H2       HDW      0.557330       1.00800           0   0.00000       0.00000    
     34549 TIP3     1669     SWM4     OH2      ODW       1.71640       15.5994           0 -0.978253       1.30000    
     34550 TIP3     1669     SWM4     DOH2     DOH2     -1.71640      0.400000           0   0.00000       0.00000    
     34551 TIP3     1669     SWM4     OM       LPDW     -1.11466       0.00000          -1   0.00000       0.00000    
     34552 TIP3     1669     SWM4     H1       HDW      0.557330       1.00800           0   0.00000       0.00000    
     34553 TIP3     1669     SWM4     H2       HDW      0.557330       1.00800           0   0.00000       0.00000    
     34554 TIP3     1670     SWM4     OH2      ODW       1.71640       15.5994           0 -0.978253       1.30000    
     34555 TIP3     1670     SWM4     DOH2     DOH2     -1.71640      0.400000           0   0.00000       0.00000    
     34556 TIP3     1670     SWM4     OM       LPDW     -1.11466       0.00000          -1   0.00000       0.00000    
     34557 TIP3     1670     SWM4     H1       HDW      0.557330       1.00800           0   0.00000       0.00000    
     34558 TIP3     1670     SWM4     H2       HDW      0.557330       1.00800           0   0.00000       0.00000    
     34559 TIP3     1671     SWM4     OH2      ODW       1.71640       15.5994           0 -0.978253       1.30000    
     34560 TIP3     1671     SWM4     DOH2     DOH2     -1.71640      0.400000           0   0.00000       0.00000    
     34561 TIP3     1671     SWM4     OM       LPDW     -1.11466       0.00000          -1   0.00000       0.00000    
     34562 TIP3     1671     SWM4     H1       HDW      0.557330       1.00800           0   0.00000       0.00000    
     34563 TIP3     1671     SWM4     H2       HDW      0.557330       1.00800           0   0.00000       0.00000    
     34564 TIP3     1672     SWM4     OH2      ODW       1.71640       15.5994           0 -0.978253       1.30000    
     34565 TIP3     1672     SWM4     DOH2     DOH2     -1.71640      0.400000           0   0.00000       0.00000    
     34566 TIP3     1672     SWM4     OM       LPDW     -1.11466       0.00000          -1   0.00000       0.00000    
     34567 TIP3     1672     SWM4     H1       HDW      0.557330       1.00800           0   0.00000       0.00000    
     34568 TIP3     1672     SWM4     H2       HDW      0.557330       1.00800           0   0.00000       0.00000    
     34569 TIP3     1673     SWM4     OH2      ODW       1.71640       15.5994           0 -0.978253       1.30000    
     34570 TIP3     1673     SWM4     DOH2     DOH2     -1.71640      0.400000           0   0.00000       0.00000    
     34571 TIP3     1673     SWM4     OM       LPDW     -1.11466       0.00000          -1   0.00000       0.00000    
     34572 TIP3     1673     SWM4     H1       HDW      0.557330       1.00800           0   0.00000       0.00000    
     34573 TIP3     1673     SWM4     H2       HDW      0.557330       1.00800           0   0.00000       0.00000    
     34574 TIP3     1674     SWM4     OH2      ODW       1.71640       15.5994           0 -0.978253       1.30000    
     34575 TIP3     1674     SWM4     DOH2     DOH2     -1.71640      0.400000           0   0.00000       0.00000    
     34576 TIP3     1674     SWM4     OM       LPDW     -1.11466       0.00000          -1   0.00000       0.00000    
     34577 TIP3     1674     SWM4     H1       HDW      0.557330       1.00800           0   0.00000       0.00000    
     34578 TIP3     1674     SWM4     H2       HDW      0.557330       1.00800           0   0.00000       0.00000    
     34579 TIP3     1675     SWM4     OH2      ODW       1.71640       15.5994           0 -0.978253       1.30000    
     34580 TIP3     1675     SWM4     DOH2     DOH2     -1.71640      0.400000           0   0.00000       0.00000    
     34581 TIP3     1675     SWM4     OM       LPDW     -1.11466       0.00000          -1   0.00000       0.00000    
     34582 TIP3     1675     SWM4     H1       HDW      0.557330       1.00800           0   0.00000       0.00000    
     34583 TIP3     1675     SWM4     H2       HDW      0.557330       1.00800           0   0.00000       0.00000    
     34584 TIP3     1676     SWM4     OH2      ODW       1.71640       15.5994           0 -0.978253       1.30000    
     34585 TIP3     1676     SWM4     DOH2     DOH2     -1.71640      0.400000           0   0.00000       0.00000    
     34586 TIP3     1676     SWM4     OM       LPDW     -1.11466       0.00000          -1   0.00000       0.00000    
     34587 TIP3     1676     SWM4     H1       HDW      0.557330       1.00800           0   0.00000       0.00000    
     34588 TIP3     1676     SWM4     H2       HDW      0.557330       1.00800           0   0.00000       0.00000    
     34589 TIP3     1677     SWM4     OH2      ODW       1.71640       15.5994           0 -0.978253       1.30000    
     34590 TIP3     1677     SWM4     DOH2     DOH2     -1.71640      0.400000           0   0.00000       0.00000    
     34591 TIP3     1677     SWM4     OM       LPDW     -1.11466       0.00000          -1   0.00000       0.00000    
     34592 TIP3     1677     SWM4     H1       HDW      0.557330       1.00800           0   0.00000       0.00000    
     34593 TIP3     1677     SWM4     H2       HDW      0.557330       1.00800           0   0.00000       0.00000    
     34594 TIP3     1678     SWM4     OH2      ODW       1.71640       15.5994           0 -0.978253       1.30000    
     34595 TIP3     1678     SWM4     DOH2     DOH2     -1.71640      0.400000           0   0.00000       0.00000    
     34596 TIP3     1678     SWM4     OM       LPDW     -1.11466       0.00000          -1   0.00000       0.00000    
     34597 TIP3     1678     SWM4     H1       HDW      0.557330       1.00800           0   0.00000       0.00000    
     34598 TIP3     1678     SWM4     H2       HDW      0.557330       1.00800           0   0.00000       0.00000    
     34599 TIP3     1679     SWM4     OH2      ODW       1.71640       15.5994           0 -0.978253       1.30000    
     34600 TIP3     1679     SWM4     DOH2     DOH2     -1.71640      0.400000           0   0.00000       0.00000    
     34601 TIP3     1679     SWM4     OM       LPDW     -1.11466       0.00000          -1   0.00000       0.00000    
     34602 TIP3     1679     SWM4     H1       HDW      0.557330       1.00800           0   0.00000       0.00000    
     34603 TIP3     1679     SWM4     H2       HDW      0.557330       1.00800           0   0.00000       0.00000    
     34604 TIP3     1680     SWM4     OH2      ODW       1.71640       15.5994           0 -0.978253       1.30000    
     34605 TIP3     1680     SWM4     DOH2     DOH2     -1.71640      0.400000           0   0.00000       0.00000    
     34606 TIP3     1680     SWM4     OM       LPDW     -1.11466       0.00000          -1   0.00000       0.00000    
     34607 TIP3     1680     SWM4     H1       HDW      0.557330       1.00800           0   0.00000       0.00000    
     34608 TIP3     1680     SWM4     H2       HDW      0.557330       1.00800           0   0.00000       0.00000    
     34609 TIP3     1681     SWM4     OH2      ODW       1.71640       15.5994           0 -0.978253       1.30000    
     34610 TIP3     1681     SWM4     DOH2     DOH2     -1.71640      0.400000           0   0.00000       0.00000    
     34611 TIP3     1681     SWM4     OM       LPDW     -1.11466       0.00000          -1   0.00000       0.00000    
     34612 TIP3     1681     SWM4     H1       HDW      0.557330       1.00800           0   0.00000       0.00000    
     34613 TIP3     1681     SWM4     H2       HDW      0.557330       1.00800           0   0.00000       0.00000    
     34614 TIP3     1682     SWM4     OH2      ODW       1.71640       15.5994           0 -0.978253       1.30000    
     34615 TIP3     1682     SWM4     DOH2     DOH2     -1.71640      0.400000           0   0.00000       0.00000    
     34616 TIP3     1682     SWM4     OM       LPDW     -1.11466       0.00000          -1   0.00000       0.00000    
     34617 TIP3     1682     SWM4     H1       HDW      0.557330       1.00800           0   0.00000       0.00000    
     34618 TIP3     1682     SWM4     H2       HDW      0.557330       1.00800           0   0.00000       0.00000    
     34619 TIP3     1683     SWM4     OH2      ODW       1.71640       15.5994           0 -0.978253       1.30000    
     34620 TIP3     1683     SWM4     DOH2     DOH2     -1.71640      0.400000           0   0.00000       0.00000    
     34621 TIP3     1683     SWM4     OM       LPDW     -1.11466       0.00000          -1   0.00000       0.00000    
     34622 TIP3     1683     SWM4     H1       HDW      0.557330       1.00800           0   0.00000       0.00000    
     34623 TIP3     1683     SWM4     H2       HDW      0.557330       1.00800           0   0.00000       0.00000    
     34624 TIP3     1684     SWM4     OH2      ODW       1.71640       15.5994           0 -0.978253       1.30000    
     34625 TIP3     1684     SWM4     DOH2     DOH2     -1.71640      0.400000           0   0.00000       0.00000    
     34626 TIP3     1684     SWM4     OM       LPDW     -1.11466       0.00000          -1   0.00000       0.00000    
     34627 TIP3     1684     SWM4     H1       HDW      0.557330       1.00800           0   0.00000       0.00000    
     34628 TIP3     1684     SWM4     H2       HDW      0.557330       1.00800           0   0.00000       0.00000    
     34629 TIP3     1685     SWM4     OH2      ODW       1.71640       15.5994           0 -0.978253       1.30000    
     34630 TIP3     1685     SWM4     DOH2     DOH2     -1.71640      0.400000           0   0.00000       0.00000    
     34631 TIP3     1685     SWM4     OM       LPDW     -1.11466       0.00000          -1   0.00000       0.00000    
     34632 TIP3     1685     SWM4     H1       HDW      0.557330       1.00800           0   0.00000       0.00000    
     34633 TIP3     1685     SWM4     H2       HDW      0.557330       1.00800           0   0.00000       0.00000    
     34634 TIP3     1686     SWM4     OH2      ODW       1.71640       15.5994           0 -0.978253       1.30000    
     34635 TIP3     1686     SWM4     DOH2     DOH2     -1.71640      0.400000           0   0.00000       0.00000    
     34636 TIP3     1686     SWM4     OM       LPDW     -1.11466       0.00000          -1   0.00000       0.00000    
     34637 TIP3     1686     SWM4     H1       HDW      0.557330       1.00800           0   0.00000       0.00000    
     34638 TIP3     1686     SWM4     H2       HDW      0.557330       1.00800           0   0.00000       0.00000    
     34639 TIP3     1687     SWM4     OH2      ODW       1.71640       15.5994           0 -0.978253       1.30000    
     34640 TIP3     1687     SWM4     DOH2     DOH2     -1.71640      0.400000           0   0.00000       0.00000    
     34641 TIP3     1687     SWM4     OM       LPDW     -1.11466       0.00000          -1   0.00000       0.00000    
     34642 TIP3     1687     SWM4     H1       HDW      0.557330       1.00800           0   0.00000       0.00000    
     34643 TIP3     1687     SWM4     H2       HDW      0.557330       1.00800           0   0.00000       0.00000    
     34644 TIP3     1688     SWM4     OH2      ODW       1.71640       15.5994           0 -0.978253       1.30000    
     34645 TIP3     1688     SWM4     DOH2     DOH2     -1.71640      0.400000           0   0.00000       0.00000    
     34646 TIP3     1688     SWM4     OM       LPDW     -1.11466       0.00000          -1   0.00000       0.00000    
     34647 TIP3     1688     SWM4     H1       HDW      0.557330       1.00800           0   0.00000       0.00000    
     34648 TIP3     1688     SWM4     H2       HDW      0.557330       1.00800           0   0.00000       0.00000    
     34649 TIP3     1689     SWM4     OH2      ODW       1.71640       15.5994           0 -0.978253       1.30000    
     34650 TIP3     1689     SWM4     DOH2     DOH2     -1.71640      0.400000           0   0.00000       0.00000    
     34651 TIP3     1689     SWM4     OM       LPDW     -1.11466       0.00000          -1   0.00000       0.00000    
     34652 TIP3     1689     SWM4     H1       HDW      0.557330       1.00800           0   0.00000       0.00000    
     34653 TIP3     1689     SWM4     H2       HDW      0.557330       1.00800           0   0.00000       0.00000    
     34654 TIP3     1690     SWM4     OH2      ODW       1.71640       15.5994           0 -0.978253       1.30000    
     34655 TIP3     1690     SWM4     DOH2     DOH2     -1.71640      0.400000           0   0.00000       0.00000    
     34656 TIP3     1690     SWM4     OM       LPDW     -1.11466       0.00000          -1   0.00000       0.00000    
     34657 TIP3     1690     SWM4     H1       HDW      0.557330       1.00800           0   0.00000       0.00000    
     34658 TIP3     1690     SWM4     H2       HDW      0.557330       1.00800           0   0.00000       0.00000    
     34659 TIP3     1691     SWM4     OH2      ODW       1.71640       15.5994           0 -0.978253       1.30000    
     34660 TIP3     1691     SWM4     DOH2     DOH2     -1.71640      0.400000           0   0.00000       0.00000    
     34661 TIP3     1691     SWM4     OM       LPDW     -1.11466       0.00000          -1   0.00000       0.00000    
     34662 TIP3     1691     SWM4     H1       HDW      0.557330       1.00800           0   0.00000       0.00000    
     34663 TIP3     1691     SWM4     H2       HDW      0.557330       1.00800           0   0.00000       0.00000    
     34664 TIP3     1692     SWM4     OH2      ODW       1.71640       15.5994           0 -0.978253       1.30000    
     34665 TIP3     1692     SWM4     DOH2     DOH2     -1.71640      0.400000           0   0.00000       0.00000    
     34666 TIP3     1692     SWM4     OM       LPDW     -1.11466       0.00000          -1   0.00000       0.00000    
     34667 TIP3     1692     SWM4     H1       HDW      0.557330       1.00800           0   0.00000       0.00000    
     34668 TIP3     1692     SWM4     H2       HDW      0.557330       1.00800           0   0.00000       0.00000    
     34669 TIP3     1693     SWM4     OH2      ODW       1.71640       15.5994           0 -0.978253       1.30000    
     34670 TIP3     1693     SWM4     DOH2     DOH2     -1.71640      0.400000           0   0.00000       0.00000    
     34671 TIP3     1693     SWM4     OM       LPDW     -1.11466       0.00000          -1   0.00000       0.00000    
     34672 TIP3     1693     SWM4     H1       HDW      0.557330       1.00800           0   0.00000       0.00000    
     34673 TIP3     1693     SWM4     H2       HDW      0.557330       1.00800           0   0.00000       0.00000    
     34674 TIP3     1694     SWM4     OH2      ODW       1.71640       15.5994           0 -0.978253       1.30000    
     34675 TIP3     1694     SWM4     DOH2     DOH2     -1.71640      0.400000           0   0.00000       0.00000    
     34676 TIP3     1694     SWM4     OM       LPDW     -1.11466       0.00000          -1   0.00000       0.00000    
     34677 TIP3     1694     SWM4     H1       HDW      0.557330       1.00800           0   0.00000       0.00000    
     34678 TIP3     1694     SWM4     H2       HDW      0.557330       1.00800           0   0.00000       0.00000    
     34679 TIP3     1695     SWM4     OH2      ODW       1.71640       15.5994           0 -0.978253       1.30000    
     34680 TIP3     1695     SWM4     DOH2     DOH2     -1.71640      0.400000           0   0.00000       0.00000    
     34681 TIP3     1695     SWM4     OM       LPDW     -1.11466       0.00000          -1   0.00000       0.00000    
     34682 TIP3     1695     SWM4     H1       HDW      0.557330       1.00800           0   0.00000       0.00000    
     34683 TIP3     1695     SWM4     H2       HDW      0.557330       1.00800           0   0.00000       0.00000    
     34684 TIP3     1696     SWM4     OH2      ODW       1.71640       15.5994           0 -0.978253       1.30000    
     34685 TIP3     1696     SWM4     DOH2     DOH2     -1.71640      0.400000           0   0.00000       0.00000    
     34686 TIP3     1696     SWM4     OM       LPDW     -1.11466       0.00000          -1   0.00000       0.00000    
     34687 TIP3     1696     SWM4     H1       HDW      0.557330       1.00800           0   0.00000       0.00000    
     34688 TIP3     1696     SWM4     H2       HDW      0.557330       1.00800           0   0.00000       0.00000    
     34689 TIP3     1697     SWM4     OH2      ODW       1.71640       15.5994           0 -0.978253       1.30000    
     34690 TIP3     1697     SWM4     DOH2     DOH2     -1.71640      0.400000           0   0.00000       0.00000    
     34691 TIP3     1697     SWM4     OM       LPDW     -1.11466       0.00000          -1   0.00000       0.00000    
     34692 TIP3     1697     SWM4     H1       HDW      0.557330       1.00800           0   0.00000       0.00000    
     34693 TIP3     1697     SWM4     H2       HDW      0.557330       1.00800           0   0.00000       0.00000    
     34694 TIP3     1698     SWM4     OH2      ODW       1.71640       15.5994           0 -0.978253       1.30000    
     34695 TIP3     1698     SWM4     DOH2     DOH2     -1.71640      0.400000           0   0.00000       0.00000    
     34696 TIP3     1698     SWM4     OM       LPDW     -1.11466       0.00000          -1   0.00000       0.00000    
     34697 TIP3     1698     SWM4     H1       HDW      0.557330       1.00800           0   0.00000       0.00000    
     34698 TIP3     1698     SWM4     H2       HDW      0.557330       1.00800           0   0.00000       0.00000    
     34699 TIP3     1699     SWM4     OH2      ODW       1.71640       15.5994           0 -0.978253       1.30000    
     34700 TIP3     1699     SWM4     DOH2     DOH2     -1.71640      0.400000           0   0.00000       0.00000    
     34701 TIP3     1699     SWM4     OM       LPDW     -1.11466       0.00000          -1   0.00000       0.00000    
     34702 TIP3     1699     SWM4     H1       HDW      0.557330       1.00800           0   0.00000       0.00000    
     34703 TIP3     1699     SWM4     H2       HDW      0.557330       1.00800           0   0.00000       0.00000    
     34704 TIP3     1700     SWM4     OH2      ODW       1.71640       15.5994           0 -0.978253       1.30000    
     34705 TIP3     1700     SWM4     DOH2     DOH2     -1.71640      0.400000           0   0.00000       0.00000    
     34706 TIP3     1700     SWM4     OM       LPDW     -1.11466       0.00000          -1   0.00000       0.00000    
     34707 TIP3     1700     SWM4     H1       HDW      0.557330       1.00800           0   0.00000       0.00000    
     34708 TIP3     1700     SWM4     H2       HDW      0.557330       1.00800           0   0.00000       0.00000    
     34709 TIP3     1701     SWM4     OH2      ODW       1.71640       15.5994           0 -0.978253       1.30000    
     34710 TIP3     1701     SWM4     DOH2     DOH2     -1.71640      0.400000           0   0.00000       0.00000    
     34711 TIP3     1701     SWM4     OM       LPDW     -1.11466       0.00000          -1   0.00000       0.00000    
     34712 TIP3     1701     SWM4     H1       HDW      0.557330       1.00800           0   0.00000       0.00000    
     34713 TIP3     1701     SWM4     H2       HDW      0.557330       1.00800           0   0.00000       0.00000    
     34714 TIP3     1702     SWM4     OH2      ODW       1.71640       15.5994           0 -0.978253       1.30000    
     34715 TIP3     1702     SWM4     DOH2     DOH2     -1.71640      0.400000           0   0.00000       0.00000    
     34716 TIP3     1702     SWM4     OM       LPDW     -1.11466       0.00000          -1   0.00000       0.00000    
     34717 TIP3     1702     SWM4     H1       HDW      0.557330       1.00800           0   0.00000       0.00000    
     34718 TIP3     1702     SWM4     H2       HDW      0.557330       1.00800           0   0.00000       0.00000    
     34719 TIP3     1703     SWM4     OH2      ODW       1.71640       15.5994           0 -0.978253       1.30000    
     34720 TIP3     1703     SWM4     DOH2     DOH2     -1.71640      0.400000           0   0.00000       0.00000    
     34721 TIP3     1703     SWM4     OM       LPDW     -1.11466       0.00000          -1   0.00000       0.00000    
     34722 TIP3     1703     SWM4     H1       HDW      0.557330       1.00800           0   0.00000       0.00000    
     34723 TIP3     1703     SWM4     H2       HDW      0.557330       1.00800           0   0.00000       0.00000    
     34724 TIP3     1704     SWM4     OH2      ODW       1.71640       15.5994           0 -0.978253       1.30000    
     34725 TIP3     1704     SWM4     DOH2     DOH2     -1.71640      0.400000           0   0.00000       0.00000    
     34726 TIP3     1704     SWM4     OM       LPDW     -1.11466       0.00000          -1   0.00000       0.00000    
     34727 TIP3     1704     SWM4     H1       HDW      0.557330       1.00800           0   0.00000       0.00000    
     34728 TIP3     1704     SWM4     H2       HDW      0.557330       1.00800           0   0.00000       0.00000    
     34729 TIP3     1705     SWM4     OH2      ODW       1.71640       15.5994           0 -0.978253       1.30000    
     34730 TIP3     1705     SWM4     DOH2     DOH2     -1.71640      0.400000           0   0.00000       0.00000    
     34731 TIP3     1705     SWM4     OM       LPDW     -1.11466       0.00000          -1   0.00000       0.00000    
     34732 TIP3     1705     SWM4     H1       HDW      0.557330       1.00800           0   0.00000       0.00000    
     34733 TIP3     1705     SWM4     H2       HDW      0.557330       1.00800           0   0.00000       0.00000    
     34734 TIP3     1706     SWM4     OH2      ODW       1.71640       15.5994           0 -0.978253       1.30000    
     34735 TIP3     1706     SWM4     DOH2     DOH2     -1.71640      0.400000           0   0.00000       0.00000    
     34736 TIP3     1706     SWM4     OM       LPDW     -1.11466       0.00000          -1   0.00000       0.00000    
     34737 TIP3     1706     SWM4     H1       HDW      0.557330       1.00800           0   0.00000       0.00000    
     34738 TIP3     1706     SWM4     H2       HDW      0.557330       1.00800           0   0.00000       0.00000    
     34739 TIP3     1707     SWM4     OH2      ODW       1.71640       15.5994           0 -0.978253       1.30000    
     34740 TIP3     1707     SWM4     DOH2     DOH2     -1.71640      0.400000           0   0.00000       0.00000    
     34741 TIP3     1707     SWM4     OM       LPDW     -1.11466       0.00000          -1   0.00000       0.00000    
     34742 TIP3     1707     SWM4     H1       HDW      0.557330       1.00800           0   0.00000       0.00000    
     34743 TIP3     1707     SWM4     H2       HDW      0.557330       1.00800           0   0.00000       0.00000    
     34744 TIP3     1708     SWM4     OH2      ODW       1.71640       15.5994           0 -0.978253       1.30000    
     34745 TIP3     1708     SWM4     DOH2     DOH2     -1.71640      0.400000           0   0.00000       0.00000    
     34746 TIP3     1708     SWM4     OM       LPDW     -1.11466       0.00000          -1   0.00000       0.00000    
     34747 TIP3     1708     SWM4     H1       HDW      0.557330       1.00800           0   0.00000       0.00000    
     34748 TIP3     1708     SWM4     H2       HDW      0.557330       1.00800           0   0.00000       0.00000    
     34749 TIP3     1709     SWM4     OH2      ODW       1.71640       15.5994           0 -0.978253       1.30000    
     34750 TIP3     1709     SWM4     DOH2     DOH2     -1.71640      0.400000           0   0.00000       0.00000    
     34751 TIP3     1709     SWM4     OM       LPDW     -1.11466       0.00000          -1   0.00000       0.00000    
     34752 TIP3     1709     SWM4     H1       HDW      0.557330       1.00800           0   0.00000       0.00000    
     34753 TIP3     1709     SWM4     H2       HDW      0.557330       1.00800           0   0.00000       0.00000    
     34754 TIP3     1710     SWM4     OH2      ODW       1.71640       15.5994           0 -0.978253       1.30000    
     34755 TIP3     1710     SWM4     DOH2     DOH2     -1.71640      0.400000           0   0.00000       0.00000    
     34756 TIP3     1710     SWM4     OM       LPDW     -1.11466       0.00000          -1   0.00000       0.00000    
     34757 TIP3     1710     SWM4     H1       HDW      0.557330       1.00800           0   0.00000       0.00000    
     34758 TIP3     1710     SWM4     H2       HDW      0.557330       1.00800           0   0.00000       0.00000    
     34759 TIP3     1711     SWM4     OH2      ODW       1.71640       15.5994           0 -0.978253       1.30000    
     34760 TIP3     1711     SWM4     DOH2     DOH2     -1.71640      0.400000           0   0.00000       0.00000    
     34761 TIP3     1711     SWM4     OM       LPDW     -1.11466       0.00000          -1   0.00000       0.00000    
     34762 TIP3     1711     SWM4     H1       HDW      0.557330       1.00800           0   0.00000       0.00000    
     34763 TIP3     1711     SWM4     H2       HDW      0.557330       1.00800           0   0.00000       0.00000    
     34764 TIP3     1712     SWM4     OH2      ODW       1.71640       15.5994           0 -0.978253       1.30000    
     34765 TIP3     1712     SWM4     DOH2     DOH2     -1.71640      0.400000           0   0.00000       0.00000    
     34766 TIP3     1712     SWM4     OM       LPDW     -1.11466       0.00000          -1   0.00000       0.00000    
     34767 TIP3     1712     SWM4     H1       HDW      0.557330       1.00800           0   0.00000       0.00000    
     34768 TIP3     1712     SWM4     H2       HDW      0.557330       1.00800           0   0.00000       0.00000    
     34769 TIP3     1713     SWM4     OH2      ODW       1.71640       15.5994           0 -0.978253       1.30000    
     34770 TIP3     1713     SWM4     DOH2     DOH2     -1.71640      0.400000           0   0.00000       0.00000    
     34771 TIP3     1713     SWM4     OM       LPDW     -1.11466       0.00000          -1   0.00000       0.00000    
     34772 TIP3     1713     SWM4     H1       HDW      0.557330       1.00800           0   0.00000       0.00000    
     34773 TIP3     1713     SWM4     H2       HDW      0.557330       1.00800           0   0.00000       0.00000    
     34774 TIP3     1714     SWM4     OH2      ODW       1.71640       15.5994           0 -0.978253       1.30000    
     34775 TIP3     1714     SWM4     DOH2     DOH2     -1.71640      0.400000           0   0.00000       0.00000    
     34776 TIP3     1714     SWM4     OM       LPDW     -1.11466       0.00000          -1   0.00000       0.00000    
     34777 TIP3     1714     SWM4     H1       HDW      0.557330       1.00800           0   0.00000       0.00000    
     34778 TIP3     1714     SWM4     H2       HDW      0.557330       1.00800           0   0.00000       0.00000    
     34779 TIP3     1715     SWM4     OH2      ODW       1.71640       15.5994           0 -0.978253       1.30000    
     34780 TIP3     1715     SWM4     DOH2     DOH2     -1.71640      0.400000           0   0.00000       0.00000    
     34781 TIP3     1715     SWM4     OM       LPDW     -1.11466       0.00000          -1   0.00000       0.00000    
     34782 TIP3     1715     SWM4     H1       HDW      0.557330       1.00800           0   0.00000       0.00000    
     34783 TIP3     1715     SWM4     H2       HDW      0.557330       1.00800           0   0.00000       0.00000    
     34784 TIP3     1716     SWM4     OH2      ODW       1.71640       15.5994           0 -0.978253       1.30000    
     34785 TIP3     1716     SWM4     DOH2     DOH2     -1.71640      0.400000           0   0.00000       0.00000    
     34786 TIP3     1716     SWM4     OM       LPDW     -1.11466       0.00000          -1   0.00000       0.00000    
     34787 TIP3     1716     SWM4     H1       HDW      0.557330       1.00800           0   0.00000       0.00000    
     34788 TIP3     1716     SWM4     H2       HDW      0.557330       1.00800           0   0.00000       0.00000    
     34789 TIP3     1717     SWM4     OH2      ODW       1.71640       15.5994           0 -0.978253       1.30000    
     34790 TIP3     1717     SWM4     DOH2     DOH2     -1.71640      0.400000           0   0.00000       0.00000    
     34791 TIP3     1717     SWM4     OM       LPDW     -1.11466       0.00000          -1   0.00000       0.00000    
     34792 TIP3     1717     SWM4     H1       HDW      0.557330       1.00800           0   0.00000       0.00000    
     34793 TIP3     1717     SWM4     H2       HDW      0.557330       1.00800           0   0.00000       0.00000    
     34794 TIP3     1718     SWM4     OH2      ODW       1.71640       15.5994           0 -0.978253       1.30000    
     34795 TIP3     1718     SWM4     DOH2     DOH2     -1.71640      0.400000           0   0.00000       0.00000    
     34796 TIP3     1718     SWM4     OM       LPDW     -1.11466       0.00000          -1   0.00000       0.00000    
     34797 TIP3     1718     SWM4     H1       HDW      0.557330       1.00800           0   0.00000       0.00000    
     34798 TIP3     1718     SWM4     H2       HDW      0.557330       1.00800           0   0.00000       0.00000    
     34799 TIP3     1719     SWM4     OH2      ODW       1.71640       15.5994           0 -0.978253       1.30000    
     34800 TIP3     1719     SWM4     DOH2     DOH2     -1.71640      0.400000           0   0.00000       0.00000    
     34801 TIP3     1719     SWM4     OM       LPDW     -1.11466       0.00000          -1   0.00000       0.00000    
     34802 TIP3     1719     SWM4     H1       HDW      0.557330       1.00800           0   0.00000       0.00000    
     34803 TIP3     1719     SWM4     H2       HDW      0.557330       1.00800           0   0.00000       0.00000    
     34804 TIP3     1720     SWM4     OH2      ODW       1.71640       15.5994           0 -0.978253       1.30000    
     34805 TIP3     1720     SWM4     DOH2     DOH2     -1.71640      0.400000           0   0.00000       0.00000    
     34806 TIP3     1720     SWM4     OM       LPDW     -1.11466       0.00000          -1   0.00000       0.00000    
     34807 TIP3     1720     SWM4     H1       HDW      0.557330       1.00800           0   0.00000       0.00000    
     34808 TIP3     1720     SWM4     H2       HDW      0.557330       1.00800           0   0.00000       0.00000    
     34809 TIP3     1721     SWM4     OH2      ODW       1.71640       15.5994           0 -0.978253       1.30000    
     34810 TIP3     1721     SWM4     DOH2     DOH2     -1.71640      0.400000           0   0.00000       0.00000    
     34811 TIP3     1721     SWM4     OM       LPDW     -1.11466       0.00000          -1   0.00000       0.00000    
     34812 TIP3     1721     SWM4     H1       HDW      0.557330       1.00800           0   0.00000       0.00000    
     34813 TIP3     1721     SWM4     H2       HDW      0.557330       1.00800           0   0.00000       0.00000    
     34814 TIP3     1722     SWM4     OH2      ODW       1.71640       15.5994           0 -0.978253       1.30000    
     34815 TIP3     1722     SWM4     DOH2     DOH2     -1.71640      0.400000           0   0.00000       0.00000    
     34816 TIP3     1722     SWM4     OM       LPDW     -1.11466       0.00000          -1   0.00000       0.00000    
     34817 TIP3     1722     SWM4     H1       HDW      0.557330       1.00800           0   0.00000       0.00000    
     34818 TIP3     1722     SWM4     H2       HDW      0.557330       1.00800           0   0.00000       0.00000    
     34819 TIP3     1723     SWM4     OH2      ODW       1.71640       15.5994           0 -0.978253       1.30000    
     34820 TIP3     1723     SWM4     DOH2     DOH2     -1.71640      0.400000           0   0.00000       0.00000    
     34821 TIP3     1723     SWM4     OM       LPDW     -1.11466       0.00000          -1   0.00000       0.00000    
     34822 TIP3     1723     SWM4     H1       HDW      0.557330       1.00800           0   0.00000       0.00000    
     34823 TIP3     1723     SWM4     H2       HDW      0.557330       1.00800           0   0.00000       0.00000    
     34824 TIP3     1724     SWM4     OH2      ODW       1.71640       15.5994           0 -0.978253       1.30000    
     34825 TIP3     1724     SWM4     DOH2     DOH2     -1.71640      0.400000           0   0.00000       0.00000    
     34826 TIP3     1724     SWM4     OM       LPDW     -1.11466       0.00000          -1   0.00000       0.00000    
     34827 TIP3     1724     SWM4     H1       HDW      0.557330       1.00800           0   0.00000       0.00000    
     34828 TIP3     1724     SWM4     H2       HDW      0.557330       1.00800           0   0.00000       0.00000    
     34829 TIP3     1725     SWM4     OH2      ODW       1.71640       15.5994           0 -0.978253       1.30000    
     34830 TIP3     1725     SWM4     DOH2     DOH2     -1.71640      0.400000           0   0.00000       0.00000    
     34831 TIP3     1725     SWM4     OM       LPDW     -1.11466       0.00000          -1   0.00000       0.00000    
     34832 TIP3     1725     SWM4     H1       HDW      0.557330       1.00800           0   0.00000       0.00000    
     34833 TIP3     1725     SWM4     H2       HDW      0.557330       1.00800           0   0.00000       0.00000    
     34834 TIP3     1726     SWM4     OH2      ODW       1.71640       15.5994           0 -0.978253       1.30000    
     34835 TIP3     1726     SWM4     DOH2     DOH2     -1.71640      0.400000           0   0.00000       0.00000    
     34836 TIP3     1726     SWM4     OM       LPDW     -1.11466       0.00000          -1   0.00000       0.00000    
     34837 TIP3     1726     SWM4     H1       HDW      0.557330       1.00800           0   0.00000       0.00000    
     34838 TIP3     1726     SWM4     H2       HDW      0.557330       1.00800           0   0.00000       0.00000    
     34839 TIP3     1727     SWM4     OH2      ODW       1.71640       15.5994           0 -0.978253       1.30000    
     34840 TIP3     1727     SWM4     DOH2     DOH2     -1.71640      0.400000           0   0.00000       0.00000    
     34841 TIP3     1727     SWM4     OM       LPDW     -1.11466       0.00000          -1   0.00000       0.00000    
     34842 TIP3     1727     SWM4     H1       HDW      0.557330       1.00800           0   0.00000       0.00000    
     34843 TIP3     1727     SWM4     H2       HDW      0.557330       1.00800           0   0.00000       0.00000    
     34844 TIP3     1728     SWM4     OH2      ODW       1.71640       15.5994           0 -0.978253       1.30000    
     34845 TIP3     1728     SWM4     DOH2     DOH2     -1.71640      0.400000           0   0.00000       0.00000    
     34846 TIP3     1728     SWM4     OM       LPDW     -1.11466       0.00000          -1   0.00000       0.00000    
     34847 TIP3     1728     SWM4     H1       HDW      0.557330       1.00800           0   0.00000       0.00000    
     34848 TIP3     1728     SWM4     H2       HDW      0.557330       1.00800           0   0.00000       0.00000    
     34849 TIP3     1729     SWM4     OH2      ODW       1.71640       15.5994           0 -0.978253       1.30000    
     34850 TIP3     1729     SWM4     DOH2     DOH2     -1.71640      0.400000           0   0.00000       0.00000    
     34851 TIP3     1729     SWM4     OM       LPDW     -1.11466       0.00000          -1   0.00000       0.00000    
     34852 TIP3     1729     SWM4     H1       HDW      0.557330       1.00800           0   0.00000       0.00000    
     34853 TIP3     1729     SWM4     H2       HDW      0.557330       1.00800           0   0.00000       0.00000    
     34854 TIP3     1730     SWM4     OH2      ODW       1.71640       15.5994           0 -0.978253       1.30000    
     34855 TIP3     1730     SWM4     DOH2     DOH2     -1.71640      0.400000           0   0.00000       0.00000    
     34856 TIP3     1730     SWM4     OM       LPDW     -1.11466       0.00000          -1   0.00000       0.00000    
     34857 TIP3     1730     SWM4     H1       HDW      0.557330       1.00800           0   0.00000       0.00000    
     34858 TIP3     1730     SWM4     H2       HDW      0.557330       1.00800           0   0.00000       0.00000    
     34859 TIP3     1731     SWM4     OH2      ODW       1.71640       15.5994           0 -0.978253       1.30000    
     34860 TIP3     1731     SWM4     DOH2     DOH2     -1.71640      0.400000           0   0.00000       0.00000    
     34861 TIP3     1731     SWM4     OM       LPDW     -1.11466       0.00000          -1   0.00000       0.00000    
     34862 TIP3     1731     SWM4     H1       HDW      0.557330       1.00800           0   0.00000       0.00000    
     34863 TIP3     1731     SWM4     H2       HDW      0.557330       1.00800           0   0.00000       0.00000    
     34864 TIP3     1732     SWM4     OH2      ODW       1.71640       15.5994           0 -0.978253       1.30000    
     34865 TIP3     1732     SWM4     DOH2     DOH2     -1.71640      0.400000           0   0.00000       0.00000    
     34866 TIP3     1732     SWM4     OM       LPDW     -1.11466       0.00000          -1   0.00000       0.00000    
     34867 TIP3     1732     SWM4     H1       HDW      0.557330       1.00800           0   0.00000       0.00000    
     34868 TIP3     1732     SWM4     H2       HDW      0.557330       1.00800           0   0.00000       0.00000    
     34869 TIP3     1733     SWM4     OH2      ODW       1.71640       15.5994           0 -0.978253       1.30000    
     34870 TIP3     1733     SWM4     DOH2     DOH2     -1.71640      0.400000           0   0.00000       0.00000    
     34871 TIP3     1733     SWM4     OM       LPDW     -1.11466       0.00000          -1   0.00000       0.00000    
     34872 TIP3     1733     SWM4     H1       HDW      0.557330       1.00800           0   0.00000       0.00000    
     34873 TIP3     1733     SWM4     H2       HDW      0.557330       1.00800           0   0.00000       0.00000    
     34874 TIP3     1734     SWM4     OH2      ODW       1.71640       15.5994           0 -0.978253       1.30000    
     34875 TIP3     1734     SWM4     DOH2     DOH2     -1.71640      0.400000           0   0.00000       0.00000    
     34876 TIP3     1734     SWM4     OM       LPDW     -1.11466       0.00000          -1   0.00000       0.00000    
     34877 TIP3     1734     SWM4     H1       HDW      0.557330       1.00800           0   0.00000       0.00000    
     34878 TIP3     1734     SWM4     H2       HDW      0.557330       1.00800           0   0.00000       0.00000    
     34879 TIP3     1735     SWM4     OH2      ODW       1.71640       15.5994           0 -0.978253       1.30000    
     34880 TIP3     1735     SWM4     DOH2     DOH2     -1.71640      0.400000           0   0.00000       0.00000    
     34881 TIP3     1735     SWM4     OM       LPDW     -1.11466       0.00000          -1   0.00000       0.00000    
     34882 TIP3     1735     SWM4     H1       HDW      0.557330       1.00800           0   0.00000       0.00000    
     34883 TIP3     1735     SWM4     H2       HDW      0.557330       1.00800           0   0.00000       0.00000    
     34884 TIP3     1736     SWM4     OH2      ODW       1.71640       15.5994           0 -0.978253       1.30000    
     34885 TIP3     1736     SWM4     DOH2     DOH2     -1.71640      0.400000           0   0.00000       0.00000    
     34886 TIP3     1736     SWM4     OM       LPDW     -1.11466       0.00000          -1   0.00000       0.00000    
     34887 TIP3     1736     SWM4     H1       HDW      0.557330       1.00800           0   0.00000       0.00000    
     34888 TIP3     1736     SWM4     H2       HDW      0.557330       1.00800           0   0.00000       0.00000    
     34889 TIP3     1737     SWM4     OH2      ODW       1.71640       15.5994           0 -0.978253       1.30000    
     34890 TIP3     1737     SWM4     DOH2     DOH2     -1.71640      0.400000           0   0.00000       0.00000    
     34891 TIP3     1737     SWM4     OM       LPDW     -1.11466       0.00000          -1   0.00000       0.00000    
     34892 TIP3     1737     SWM4     H1       HDW      0.557330       1.00800           0   0.00000       0.00000    
     34893 TIP3     1737     SWM4     H2       HDW      0.557330       1.00800           0   0.00000       0.00000    
     34894 TIP3     1738     SWM4     OH2      ODW       1.71640       15.5994           0 -0.978253       1.30000    
     34895 TIP3     1738     SWM4     DOH2     DOH2     -1.71640      0.400000           0   0.00000       0.00000    
     34896 TIP3     1738     SWM4     OM       LPDW     -1.11466       0.00000          -1   0.00000       0.00000    
     34897 TIP3     1738     SWM4     H1       HDW      0.557330       1.00800           0   0.00000       0.00000    
     34898 TIP3     1738     SWM4     H2       HDW      0.557330       1.00800           0   0.00000       0.00000    
     34899 TIP3     1739     SWM4     OH2      ODW       1.71640       15.5994           0 -0.978253       1.30000    
     34900 TIP3     1739     SWM4     DOH2     DOH2     -1.71640      0.400000           0   0.00000       0.00000    
     34901 TIP3     1739     SWM4     OM       LPDW     -1.11466       0.00000          -1   0.00000       0.00000    
     34902 TIP3     1739     SWM4     H1       HDW      0.557330       1.00800           0   0.00000       0.00000    
     34903 TIP3     1739     SWM4     H2       HDW      0.557330       1.00800           0   0.00000       0.00000    
     34904 TIP3     1740     SWM4     OH2      ODW       1.71640       15.5994           0 -0.978253       1.30000    
     34905 TIP3     1740     SWM4     DOH2     DOH2     -1.71640      0.400000           0   0.00000       0.00000    
     34906 TIP3     1740     SWM4     OM       LPDW     -1.11466       0.00000          -1   0.00000       0.00000    
     34907 TIP3     1740     SWM4     H1       HDW      0.557330       1.00800           0   0.00000       0.00000    
     34908 TIP3     1740     SWM4     H2       HDW      0.557330       1.00800           0   0.00000       0.00000    
     34909 TIP3     1741     SWM4     OH2      ODW       1.71640       15.5994           0 -0.978253       1.30000    
     34910 TIP3     1741     SWM4     DOH2     DOH2     -1.71640      0.400000           0   0.00000       0.00000    
     34911 TIP3     1741     SWM4     OM       LPDW     -1.11466       0.00000          -1   0.00000       0.00000    
     34912 TIP3     1741     SWM4     H1       HDW      0.557330       1.00800           0   0.00000       0.00000    
     34913 TIP3     1741     SWM4     H2       HDW      0.557330       1.00800           0   0.00000       0.00000    
     34914 TIP3     1742     SWM4     OH2      ODW       1.71640       15.5994           0 -0.978253       1.30000    
     34915 TIP3     1742     SWM4     DOH2     DOH2     -1.71640      0.400000           0   0.00000       0.00000    
     34916 TIP3     1742     SWM4     OM       LPDW     -1.11466       0.00000          -1   0.00000       0.00000    
     34917 TIP3     1742     SWM4     H1       HDW      0.557330       1.00800           0   0.00000       0.00000    
     34918 TIP3     1742     SWM4     H2       HDW      0.557330       1.00800           0   0.00000       0.00000    
     34919 TIP3     1743     SWM4     OH2      ODW       1.71640       15.5994           0 -0.978253       1.30000    
     34920 TIP3     1743     SWM4     DOH2     DOH2     -1.71640      0.400000           0   0.00000       0.00000    
     34921 TIP3     1743     SWM4     OM       LPDW     -1.11466       0.00000          -1   0.00000       0.00000    
     34922 TIP3     1743     SWM4     H1       HDW      0.557330       1.00800           0   0.00000       0.00000    
     34923 TIP3     1743     SWM4     H2       HDW      0.557330       1.00800           0   0.00000       0.00000    
     34924 TIP3     1744     SWM4     OH2      ODW       1.71640       15.5994           0 -0.978253       1.30000    
     34925 TIP3     1744     SWM4     DOH2     DOH2     -1.71640      0.400000           0   0.00000       0.00000    
     34926 TIP3     1744     SWM4     OM       LPDW     -1.11466       0.00000          -1   0.00000       0.00000    
     34927 TIP3     1744     SWM4     H1       HDW      0.557330       1.00800           0   0.00000       0.00000    
     34928 TIP3     1744     SWM4     H2       HDW      0.557330       1.00800           0   0.00000       0.00000    
     34929 TIP3     1745     SWM4     OH2      ODW       1.71640       15.5994           0 -0.978253       1.30000    
     34930 TIP3     1745     SWM4     DOH2     DOH2     -1.71640      0.400000           0   0.00000       0.00000    
     34931 TIP3     1745     SWM4     OM       LPDW     -1.11466       0.00000          -1   0.00000       0.00000    
     34932 TIP3     1745     SWM4     H1       HDW      0.557330       1.00800           0   0.00000       0.00000    
     34933 TIP3     1745     SWM4     H2       HDW      0.557330       1.00800           0   0.00000       0.00000    
     34934 TIP3     1746     SWM4     OH2      ODW       1.71640       15.5994           0 -0.978253       1.30000    
     34935 TIP3     1746     SWM4     DOH2     DOH2     -1.71640      0.400000           0   0.00000       0.00000    
     34936 TIP3     1746     SWM4     OM       LPDW     -1.11466       0.00000          -1   0.00000       0.00000    
     34937 TIP3     1746     SWM4     H1       HDW      0.557330       1.00800           0   0.00000       0.00000    
     34938 TIP3     1746     SWM4     H2       HDW      0.557330       1.00800           0   0.00000       0.00000    
     34939 TIP3     1747     SWM4     OH2      ODW       1.71640       15.5994           0 -0.978253       1.30000    
     34940 TIP3     1747     SWM4     DOH2     DOH2     -1.71640      0.400000           0   0.00000       0.00000    
     34941 TIP3     1747     SWM4     OM       LPDW     -1.11466       0.00000          -1   0.00000       0.00000    
     34942 TIP3     1747     SWM4     H1       HDW      0.557330       1.00800           0   0.00000       0.00000    
     34943 TIP3     1747     SWM4     H2       HDW      0.557330       1.00800           0   0.00000       0.00000    
     34944 TIP3     1748     SWM4     OH2      ODW       1.71640       15.5994           0 -0.978253       1.30000    
     34945 TIP3     1748     SWM4     DOH2     DOH2     -1.71640      0.400000           0   0.00000       0.00000    
     34946 TIP3     1748     SWM4     OM       LPDW     -1.11466       0.00000          -1   0.00000       0.00000    
     34947 TIP3     1748     SWM4     H1       HDW      0.557330       1.00800           0   0.00000       0.00000    
     34948 TIP3     1748     SWM4     H2       HDW      0.557330       1.00800           0   0.00000       0.00000    
     34949 TIP3     1749     SWM4     OH2      ODW       1.71640       15.5994           0 -0.978253       1.30000    
     34950 TIP3     1749     SWM4     DOH2     DOH2     -1.71640      0.400000           0   0.00000       0.00000    
     34951 TIP3     1749     SWM4     OM       LPDW     -1.11466       0.00000          -1   0.00000       0.00000    
     34952 TIP3     1749     SWM4     H1       HDW      0.557330       1.00800           0   0.00000       0.00000    
     34953 TIP3     1749     SWM4     H2       HDW      0.557330       1.00800           0   0.00000       0.00000    
     34954 TIP3     1750     SWM4     OH2      ODW       1.71640       15.5994           0 -0.978253       1.30000    
     34955 TIP3     1750     SWM4     DOH2     DOH2     -1.71640      0.400000           0   0.00000       0.00000    
     34956 TIP3     1750     SWM4     OM       LPDW     -1.11466       0.00000          -1   0.00000       0.00000    
     34957 TIP3     1750     SWM4     H1       HDW      0.557330       1.00800           0   0.00000       0.00000    
     34958 TIP3     1750     SWM4     H2       HDW      0.557330       1.00800           0   0.00000       0.00000    
     34959 TIP3     1751     SWM4     OH2      ODW       1.71640       15.5994           0 -0.978253       1.30000    
     34960 TIP3     1751     SWM4     DOH2     DOH2     -1.71640      0.400000           0   0.00000       0.00000    
     34961 TIP3     1751     SWM4     OM       LPDW     -1.11466       0.00000          -1   0.00000       0.00000    
     34962 TIP3     1751     SWM4     H1       HDW      0.557330       1.00800           0   0.00000       0.00000    
     34963 TIP3     1751     SWM4     H2       HDW      0.557330       1.00800           0   0.00000       0.00000    
     34964 TIP3     1752     SWM4     OH2      ODW       1.71640       15.5994           0 -0.978253       1.30000    
     34965 TIP3     1752     SWM4     DOH2     DOH2     -1.71640      0.400000           0   0.00000       0.00000    
     34966 TIP3     1752     SWM4     OM       LPDW     -1.11466       0.00000          -1   0.00000       0.00000    
     34967 TIP3     1752     SWM4     H1       HDW      0.557330       1.00800           0   0.00000       0.00000    
     34968 TIP3     1752     SWM4     H2       HDW      0.557330       1.00800           0   0.00000       0.00000    
     34969 TIP3     1753     SWM4     OH2      ODW       1.71640       15.5994           0 -0.978253       1.30000    
     34970 TIP3     1753     SWM4     DOH2     DOH2     -1.71640      0.400000           0   0.00000       0.00000    
     34971 TIP3     1753     SWM4     OM       LPDW     -1.11466       0.00000          -1   0.00000       0.00000    
     34972 TIP3     1753     SWM4     H1       HDW      0.557330       1.00800           0   0.00000       0.00000    
     34973 TIP3     1753     SWM4     H2       HDW      0.557330       1.00800           0   0.00000       0.00000    
     34974 TIP3     1754     SWM4     OH2      ODW       1.71640       15.5994           0 -0.978253       1.30000    
     34975 TIP3     1754     SWM4     DOH2     DOH2     -1.71640      0.400000           0   0.00000       0.00000    
     34976 TIP3     1754     SWM4     OM       LPDW     -1.11466       0.00000          -1   0.00000       0.00000    
     34977 TIP3     1754     SWM4     H1       HDW      0.557330       1.00800           0   0.00000       0.00000    
     34978 TIP3     1754     SWM4     H2       HDW      0.557330       1.00800           0   0.00000       0.00000    
     34979 TIP3     1755     SWM4     OH2      ODW       1.71640       15.5994           0 -0.978253       1.30000    
     34980 TIP3     1755     SWM4     DOH2     DOH2     -1.71640      0.400000           0   0.00000       0.00000    
     34981 TIP3     1755     SWM4     OM       LPDW     -1.11466       0.00000          -1   0.00000       0.00000    
     34982 TIP3     1755     SWM4     H1       HDW      0.557330       1.00800           0   0.00000       0.00000    
     34983 TIP3     1755     SWM4     H2       HDW      0.557330       1.00800           0   0.00000       0.00000    
     34984 TIP3     1756     SWM4     OH2      ODW       1.71640       15.5994           0 -0.978253       1.30000    
     34985 TIP3     1756     SWM4     DOH2     DOH2     -1.71640      0.400000           0   0.00000       0.00000    
     34986 TIP3     1756     SWM4     OM       LPDW     -1.11466       0.00000          -1   0.00000       0.00000    
     34987 TIP3     1756     SWM4     H1       HDW      0.557330       1.00800           0   0.00000       0.00000    
     34988 TIP3     1756     SWM4     H2       HDW      0.557330       1.00800           0   0.00000       0.00000    
     34989 TIP3     1757     SWM4     OH2      ODW       1.71640       15.5994           0 -0.978253       1.30000    
     34990 TIP3     1757     SWM4     DOH2     DOH2     -1.71640      0.400000           0   0.00000       0.00000    
     34991 TIP3     1757     SWM4     OM       LPDW     -1.11466       0.00000          -1   0.00000       0.00000    
     34992 TIP3     1757     SWM4     H1       HDW      0.557330       1.00800           0   0.00000       0.00000    
     34993 TIP3     1757     SWM4     H2       HDW      0.557330       1.00800           0   0.00000       0.00000    
     34994 TIP3     1758     SWM4     OH2      ODW       1.71640       15.5994           0 -0.978253       1.30000    
     34995 TIP3     1758     SWM4     DOH2     DOH2     -1.71640      0.400000           0   0.00000       0.00000    
     34996 TIP3     1758     SWM4     OM       LPDW     -1.11466       0.00000          -1   0.00000       0.00000    
     34997 TIP3     1758     SWM4     H1       HDW      0.557330       1.00800           0   0.00000       0.00000    
     34998 TIP3     1758     SWM4     H2       HDW      0.557330       1.00800           0   0.00000       0.00000    
     34999 TIP3     1759     SWM4     OH2      ODW       1.71640       15.5994           0 -0.978253       1.30000    
     35000 TIP3     1759     SWM4     DOH2     DOH2     -1.71640      0.400000           0   0.00000       0.00000    
     35001 TIP3     1759     SWM4     OM       LPDW     -1.11466       0.00000          -1   0.00000       0.00000    
     35002 TIP3     1759     SWM4     H1       HDW      0.557330       1.00800           0   0.00000       0.00000    
     35003 TIP3     1759     SWM4     H2       HDW      0.557330       1.00800           0   0.00000       0.00000    
     35004 TIP3     1760     SWM4     OH2      ODW       1.71640       15.5994           0 -0.978253       1.30000    
     35005 TIP3     1760     SWM4     DOH2     DOH2     -1.71640      0.400000           0   0.00000       0.00000    
     35006 TIP3     1760     SWM4     OM       LPDW     -1.11466       0.00000          -1   0.00000       0.00000    
     35007 TIP3     1760     SWM4     H1       HDW      0.557330       1.00800           0   0.00000       0.00000    
     35008 TIP3     1760     SWM4     H2       HDW      0.557330       1.00800           0   0.00000       0.00000    
     35009 TIP3     1761     SWM4     OH2      ODW       1.71640       15.5994           0 -0.978253       1.30000    
     35010 TIP3     1761     SWM4     DOH2     DOH2     -1.71640      0.400000           0   0.00000       0.00000    
     35011 TIP3     1761     SWM4     OM       LPDW     -1.11466       0.00000          -1   0.00000       0.00000    
     35012 TIP3     1761     SWM4     H1       HDW      0.557330       1.00800           0   0.00000       0.00000    
     35013 TIP3     1761     SWM4     H2       HDW      0.557330       1.00800           0   0.00000       0.00000    
     35014 TIP3     1762     SWM4     OH2      ODW       1.71640       15.5994           0 -0.978253       1.30000    
     35015 TIP3     1762     SWM4     DOH2     DOH2     -1.71640      0.400000           0   0.00000       0.00000    
     35016 TIP3     1762     SWM4     OM       LPDW     -1.11466       0.00000          -1   0.00000       0.00000    
     35017 TIP3     1762     SWM4     H1       HDW      0.557330       1.00800           0   0.00000       0.00000    
     35018 TIP3     1762     SWM4     H2       HDW      0.557330       1.00800           0   0.00000       0.00000    
     35019 TIP3     1763     SWM4     OH2      ODW       1.71640       15.5994           0 -0.978253       1.30000    
     35020 TIP3     1763     SWM4     DOH2     DOH2     -1.71640      0.400000           0   0.00000       0.00000    
     35021 TIP3     1763     SWM4     OM       LPDW     -1.11466       0.00000          -1   0.00000       0.00000    
     35022 TIP3     1763     SWM4     H1       HDW      0.557330       1.00800           0   0.00000       0.00000    
     35023 TIP3     1763     SWM4     H2       HDW      0.557330       1.00800           0   0.00000       0.00000    
     35024 TIP3     1764     SWM4     OH2      ODW       1.71640       15.5994           0 -0.978253       1.30000    
     35025 TIP3     1764     SWM4     DOH2     DOH2     -1.71640      0.400000           0   0.00000       0.00000    
     35026 TIP3     1764     SWM4     OM       LPDW     -1.11466       0.00000          -1   0.00000       0.00000    
     35027 TIP3     1764     SWM4     H1       HDW      0.557330       1.00800           0   0.00000       0.00000    
     35028 TIP3     1764     SWM4     H2       HDW      0.557330       1.00800           0   0.00000       0.00000    
     35029 TIP3     1765     SWM4     OH2      ODW       1.71640       15.5994           0 -0.978253       1.30000    
     35030 TIP3     1765     SWM4     DOH2     DOH2     -1.71640      0.400000           0   0.00000       0.00000    
     35031 TIP3     1765     SWM4     OM       LPDW     -1.11466       0.00000          -1   0.00000       0.00000    
     35032 TIP3     1765     SWM4     H1       HDW      0.557330       1.00800           0   0.00000       0.00000    
     35033 TIP3     1765     SWM4     H2       HDW      0.557330       1.00800           0   0.00000       0.00000    
     35034 TIP3     1766     SWM4     OH2      ODW       1.71640       15.5994           0 -0.978253       1.30000    
     35035 TIP3     1766     SWM4     DOH2     DOH2     -1.71640      0.400000           0   0.00000       0.00000    
     35036 TIP3     1766     SWM4     OM       LPDW     -1.11466       0.00000          -1   0.00000       0.00000    
     35037 TIP3     1766     SWM4     H1       HDW      0.557330       1.00800           0   0.00000       0.00000    
     35038 TIP3     1766     SWM4     H2       HDW      0.557330       1.00800           0   0.00000       0.00000    
     35039 TIP3     1767     SWM4     OH2      ODW       1.71640       15.5994           0 -0.978253       1.30000    
     35040 TIP3     1767     SWM4     DOH2     DOH2     -1.71640      0.400000           0   0.00000       0.00000    
     35041 TIP3     1767     SWM4     OM       LPDW     -1.11466       0.00000          -1   0.00000       0.00000    
     35042 TIP3     1767     SWM4     H1       HDW      0.557330       1.00800           0   0.00000       0.00000    
     35043 TIP3     1767     SWM4     H2       HDW      0.557330       1.00800           0   0.00000       0.00000    
     35044 TIP3     1768     SWM4     OH2      ODW       1.71640       15.5994           0 -0.978253       1.30000    
     35045 TIP3     1768     SWM4     DOH2     DOH2     -1.71640      0.400000           0   0.00000       0.00000    
     35046 TIP3     1768     SWM4     OM       LPDW     -1.11466       0.00000          -1   0.00000       0.00000    
     35047 TIP3     1768     SWM4     H1       HDW      0.557330       1.00800           0   0.00000       0.00000    
     35048 TIP3     1768     SWM4     H2       HDW      0.557330       1.00800           0   0.00000       0.00000    
     35049 TIP3     1769     SWM4     OH2      ODW       1.71640       15.5994           0 -0.978253       1.30000    
     35050 TIP3     1769     SWM4     DOH2     DOH2     -1.71640      0.400000           0   0.00000       0.00000    
     35051 TIP3     1769     SWM4     OM       LPDW     -1.11466       0.00000          -1   0.00000       0.00000    
     35052 TIP3     1769     SWM4     H1       HDW      0.557330       1.00800           0   0.00000       0.00000    
     35053 TIP3     1769     SWM4     H2       HDW      0.557330       1.00800           0   0.00000       0.00000    
     35054 TIP3     1770     SWM4     OH2      ODW       1.71640       15.5994           0 -0.978253       1.30000    
     35055 TIP3     1770     SWM4     DOH2     DOH2     -1.71640      0.400000           0   0.00000       0.00000    
     35056 TIP3     1770     SWM4     OM       LPDW     -1.11466       0.00000          -1   0.00000       0.00000    
     35057 TIP3     1770     SWM4     H1       HDW      0.557330       1.00800           0   0.00000       0.00000    
     35058 TIP3     1770     SWM4     H2       HDW      0.557330       1.00800           0   0.00000       0.00000    
     35059 TIP3     1771     SWM4     OH2      ODW       1.71640       15.5994           0 -0.978253       1.30000    
     35060 TIP3     1771     SWM4     DOH2     DOH2     -1.71640      0.400000           0   0.00000       0.00000    
     35061 TIP3     1771     SWM4     OM       LPDW     -1.11466       0.00000          -1   0.00000       0.00000    
     35062 TIP3     1771     SWM4     H1       HDW      0.557330       1.00800           0   0.00000       0.00000    
     35063 TIP3     1771     SWM4     H2       HDW      0.557330       1.00800           0   0.00000       0.00000    
     35064 TIP3     1772     SWM4     OH2      ODW       1.71640       15.5994           0 -0.978253       1.30000    
     35065 TIP3     1772     SWM4     DOH2     DOH2     -1.71640      0.400000           0   0.00000       0.00000    
     35066 TIP3     1772     SWM4     OM       LPDW     -1.11466       0.00000          -1   0.00000       0.00000    
     35067 TIP3     1772     SWM4     H1       HDW      0.557330       1.00800           0   0.00000       0.00000    
     35068 TIP3     1772     SWM4     H2       HDW      0.557330       1.00800           0   0.00000       0.00000    
     35069 TIP3     1773     SWM4     OH2      ODW       1.71640       15.5994           0 -0.978253       1.30000    
     35070 TIP3     1773     SWM4     DOH2     DOH2     -1.71640      0.400000           0   0.00000       0.00000    
     35071 TIP3     1773     SWM4     OM       LPDW     -1.11466       0.00000          -1   0.00000       0.00000    
     35072 TIP3     1773     SWM4     H1       HDW      0.557330       1.00800           0   0.00000       0.00000    
     35073 TIP3     1773     SWM4     H2       HDW      0.557330       1.00800           0   0.00000       0.00000    
     35074 TIP3     1774     SWM4     OH2      ODW       1.71640       15.5994           0 -0.978253       1.30000    
     35075 TIP3     1774     SWM4     DOH2     DOH2     -1.71640      0.400000           0   0.00000       0.00000    
     35076 TIP3     1774     SWM4     OM       LPDW     -1.11466       0.00000          -1   0.00000       0.00000    
     35077 TIP3     1774     SWM4     H1       HDW      0.557330       1.00800           0   0.00000       0.00000    
     35078 TIP3     1774     SWM4     H2       HDW      0.557330       1.00800           0   0.00000       0.00000    
     35079 TIP3     1775     SWM4     OH2      ODW       1.71640       15.5994           0 -0.978253       1.30000    
     35080 TIP3     1775     SWM4     DOH2     DOH2     -1.71640      0.400000           0   0.00000       0.00000    
     35081 TIP3     1775     SWM4     OM       LPDW     -1.11466       0.00000          -1   0.00000       0.00000    
     35082 TIP3     1775     SWM4     H1       HDW      0.557330       1.00800           0   0.00000       0.00000    
     35083 TIP3     1775     SWM4     H2       HDW      0.557330       1.00800           0   0.00000       0.00000    
     35084 TIP3     1776     SWM4     OH2      ODW       1.71640       15.5994           0 -0.978253       1.30000    
     35085 TIP3     1776     SWM4     DOH2     DOH2     -1.71640      0.400000           0   0.00000       0.00000    
     35086 TIP3     1776     SWM4     OM       LPDW     -1.11466       0.00000          -1   0.00000       0.00000    
     35087 TIP3     1776     SWM4     H1       HDW      0.557330       1.00800           0   0.00000       0.00000    
     35088 TIP3     1776     SWM4     H2       HDW      0.557330       1.00800           0   0.00000       0.00000    
     35089 TIP3     1777     SWM4     OH2      ODW       1.71640       15.5994           0 -0.978253       1.30000    
     35090 TIP3     1777     SWM4     DOH2     DOH2     -1.71640      0.400000           0   0.00000       0.00000    
     35091 TIP3     1777     SWM4     OM       LPDW     -1.11466       0.00000          -1   0.00000       0.00000    
     35092 TIP3     1777     SWM4     H1       HDW      0.557330       1.00800           0   0.00000       0.00000    
     35093 TIP3     1777     SWM4     H2       HDW      0.557330       1.00800           0   0.00000       0.00000    
     35094 TIP3     1778     SWM4     OH2      ODW       1.71640       15.5994           0 -0.978253       1.30000    
     35095 TIP3     1778     SWM4     DOH2     DOH2     -1.71640      0.400000           0   0.00000       0.00000    
     35096 TIP3     1778     SWM4     OM       LPDW     -1.11466       0.00000          -1   0.00000       0.00000    
     35097 TIP3     1778     SWM4     H1       HDW      0.557330       1.00800           0   0.00000       0.00000    
     35098 TIP3     1778     SWM4     H2       HDW      0.557330       1.00800           0   0.00000       0.00000    
     35099 TIP3     1779     SWM4     OH2      ODW       1.71640       15.5994           0 -0.978253       1.30000    
     35100 TIP3     1779     SWM4     DOH2     DOH2     -1.71640      0.400000           0   0.00000       0.00000    
     35101 TIP3     1779     SWM4     OM       LPDW     -1.11466       0.00000          -1   0.00000       0.00000    
     35102 TIP3     1779     SWM4     H1       HDW      0.557330       1.00800           0   0.00000       0.00000    
     35103 TIP3     1779     SWM4     H2       HDW      0.557330       1.00800           0   0.00000       0.00000    
     35104 TIP3     1780     SWM4     OH2      ODW       1.71640       15.5994           0 -0.978253       1.30000    
     35105 TIP3     1780     SWM4     DOH2     DOH2     -1.71640      0.400000           0   0.00000       0.00000    
     35106 TIP3     1780     SWM4     OM       LPDW     -1.11466       0.00000          -1   0.00000       0.00000    
     35107 TIP3     1780     SWM4     H1       HDW      0.557330       1.00800           0   0.00000       0.00000    
     35108 TIP3     1780     SWM4     H2       HDW      0.557330       1.00800           0   0.00000       0.00000    
     35109 TIP3     1781     SWM4     OH2      ODW       1.71640       15.5994           0 -0.978253       1.30000    
     35110 TIP3     1781     SWM4     DOH2     DOH2     -1.71640      0.400000           0   0.00000       0.00000    
     35111 TIP3     1781     SWM4     OM       LPDW     -1.11466       0.00000          -1   0.00000       0.00000    
     35112 TIP3     1781     SWM4     H1       HDW      0.557330       1.00800           0   0.00000       0.00000    
     35113 TIP3     1781     SWM4     H2       HDW      0.557330       1.00800           0   0.00000       0.00000    
     35114 TIP3     1782     SWM4     OH2      ODW       1.71640       15.5994           0 -0.978253       1.30000    
     35115 TIP3     1782     SWM4     DOH2     DOH2     -1.71640      0.400000           0   0.00000       0.00000    
     35116 TIP3     1782     SWM4     OM       LPDW     -1.11466       0.00000          -1   0.00000       0.00000    
     35117 TIP3     1782     SWM4     H1       HDW      0.557330       1.00800           0   0.00000       0.00000    
     35118 TIP3     1782     SWM4     H2       HDW      0.557330       1.00800           0   0.00000       0.00000    
     35119 TIP3     1783     SWM4     OH2      ODW       1.71640       15.5994           0 -0.978253       1.30000    
     35120 TIP3     1783     SWM4     DOH2     DOH2     -1.71640      0.400000           0   0.00000       0.00000    
     35121 TIP3     1783     SWM4     OM       LPDW     -1.11466       0.00000          -1   0.00000       0.00000    
     35122 TIP3     1783     SWM4     H1       HDW      0.557330       1.00800           0   0.00000       0.00000    
     35123 TIP3     1783     SWM4     H2       HDW      0.557330       1.00800           0   0.00000       0.00000    
     35124 TIP3     1784     SWM4     OH2      ODW       1.71640       15.5994           0 -0.978253       1.30000    
     35125 TIP3     1784     SWM4     DOH2     DOH2     -1.71640      0.400000           0   0.00000       0.00000    
     35126 TIP3     1784     SWM4     OM       LPDW     -1.11466       0.00000          -1   0.00000       0.00000    
     35127 TIP3     1784     SWM4     H1       HDW      0.557330       1.00800           0   0.00000       0.00000    
     35128 TIP3     1784     SWM4     H2       HDW      0.557330       1.00800           0   0.00000       0.00000    
     35129 TIP3     1785     SWM4     OH2      ODW       1.71640       15.5994           0 -0.978253       1.30000    
     35130 TIP3     1785     SWM4     DOH2     DOH2     -1.71640      0.400000           0   0.00000       0.00000    
     35131 TIP3     1785     SWM4     OM       LPDW     -1.11466       0.00000          -1   0.00000       0.00000    
     35132 TIP3     1785     SWM4     H1       HDW      0.557330       1.00800           0   0.00000       0.00000    
     35133 TIP3     1785     SWM4     H2       HDW      0.557330       1.00800           0   0.00000       0.00000    
     35134 TIP3     1786     SWM4     OH2      ODW       1.71640       15.5994           0 -0.978253       1.30000    
     35135 TIP3     1786     SWM4     DOH2     DOH2     -1.71640      0.400000           0   0.00000       0.00000    
     35136 TIP3     1786     SWM4     OM       LPDW     -1.11466       0.00000          -1   0.00000       0.00000    
     35137 TIP3     1786     SWM4     H1       HDW      0.557330       1.00800           0   0.00000       0.00000    
     35138 TIP3     1786     SWM4     H2       HDW      0.557330       1.00800           0   0.00000       0.00000    
     35139 TIP3     1787     SWM4     OH2      ODW       1.71640       15.5994           0 -0.978253       1.30000    
     35140 TIP3     1787     SWM4     DOH2     DOH2     -1.71640      0.400000           0   0.00000       0.00000    
     35141 TIP3     1787     SWM4     OM       LPDW     -1.11466       0.00000          -1   0.00000       0.00000    
     35142 TIP3     1787     SWM4     H1       HDW      0.557330       1.00800           0   0.00000       0.00000    
     35143 TIP3     1787     SWM4     H2       HDW      0.557330       1.00800           0   0.00000       0.00000    
     35144 TIP3     1788     SWM4     OH2      ODW       1.71640       15.5994           0 -0.978253       1.30000    
     35145 TIP3     1788     SWM4     DOH2     DOH2     -1.71640      0.400000           0   0.00000       0.00000    
     35146 TIP3     1788     SWM4     OM       LPDW     -1.11466       0.00000          -1   0.00000       0.00000    
     35147 TIP3     1788     SWM4     H1       HDW      0.557330       1.00800           0   0.00000       0.00000    
     35148 TIP3     1788     SWM4     H2       HDW      0.557330       1.00800           0   0.00000       0.00000    
     35149 TIP3     1789     SWM4     OH2      ODW       1.71640       15.5994           0 -0.978253       1.30000    
     35150 TIP3     1789     SWM4     DOH2     DOH2     -1.71640      0.400000           0   0.00000       0.00000    
     35151 TIP3     1789     SWM4     OM       LPDW     -1.11466       0.00000          -1   0.00000       0.00000    
     35152 TIP3     1789     SWM4     H1       HDW      0.557330       1.00800           0   0.00000       0.00000    
     35153 TIP3     1789     SWM4     H2       HDW      0.557330       1.00800           0   0.00000       0.00000    
     35154 TIP3     1790     SWM4     OH2      ODW       1.71640       15.5994           0 -0.978253       1.30000    
     35155 TIP3     1790     SWM4     DOH2     DOH2     -1.71640      0.400000           0   0.00000       0.00000    
     35156 TIP3     1790     SWM4     OM       LPDW     -1.11466       0.00000          -1   0.00000       0.00000    
     35157 TIP3     1790     SWM4     H1       HDW      0.557330       1.00800           0   0.00000       0.00000    
     35158 TIP3     1790     SWM4     H2       HDW      0.557330       1.00800           0   0.00000       0.00000    
     35159 TIP3     1791     SWM4     OH2      ODW       1.71640       15.5994           0 -0.978253       1.30000    
     35160 TIP3     1791     SWM4     DOH2     DOH2     -1.71640      0.400000           0   0.00000       0.00000    
     35161 TIP3     1791     SWM4     OM       LPDW     -1.11466       0.00000          -1   0.00000       0.00000    
     35162 TIP3     1791     SWM4     H1       HDW      0.557330       1.00800           0   0.00000       0.00000    
     35163 TIP3     1791     SWM4     H2       HDW      0.557330       1.00800           0   0.00000       0.00000    
     35164 TIP3     1792     SWM4     OH2      ODW       1.71640       15.5994           0 -0.978253       1.30000    
     35165 TIP3     1792     SWM4     DOH2     DOH2     -1.71640      0.400000           0   0.00000       0.00000    
     35166 TIP3     1792     SWM4     OM       LPDW     -1.11466       0.00000          -1   0.00000       0.00000    
     35167 TIP3     1792     SWM4     H1       HDW      0.557330       1.00800           0   0.00000       0.00000    
     35168 TIP3     1792     SWM4     H2       HDW      0.557330       1.00800           0   0.00000       0.00000    
     35169 TIP3     1793     SWM4     OH2      ODW       1.71640       15.5994           0 -0.978253       1.30000    
     35170 TIP3     1793     SWM4     DOH2     DOH2     -1.71640      0.400000           0   0.00000       0.00000    
     35171 TIP3     1793     SWM4     OM       LPDW     -1.11466       0.00000          -1   0.00000       0.00000    
     35172 TIP3     1793     SWM4     H1       HDW      0.557330       1.00800           0   0.00000       0.00000    
     35173 TIP3     1793     SWM4     H2       HDW      0.557330       1.00800           0   0.00000       0.00000    
     35174 TIP3     1794     SWM4     OH2      ODW       1.71640       15.5994           0 -0.978253       1.30000    
     35175 TIP3     1794     SWM4     DOH2     DOH2     -1.71640      0.400000           0   0.00000       0.00000    
     35176 TIP3     1794     SWM4     OM       LPDW     -1.11466       0.00000          -1   0.00000       0.00000    
     35177 TIP3     1794     SWM4     H1       HDW      0.557330       1.00800           0   0.00000       0.00000    
     35178 TIP3     1794     SWM4     H2       HDW      0.557330       1.00800           0   0.00000       0.00000    
     35179 TIP3     1795     SWM4     OH2      ODW       1.71640       15.5994           0 -0.978253       1.30000    
     35180 TIP3     1795     SWM4     DOH2     DOH2     -1.71640      0.400000           0   0.00000       0.00000    
     35181 TIP3     1795     SWM4     OM       LPDW     -1.11466       0.00000          -1   0.00000       0.00000    
     35182 TIP3     1795     SWM4     H1       HDW      0.557330       1.00800           0   0.00000       0.00000    
     35183 TIP3     1795     SWM4     H2       HDW      0.557330       1.00800           0   0.00000       0.00000    
     35184 TIP3     1796     SWM4     OH2      ODW       1.71640       15.5994           0 -0.978253       1.30000    
     35185 TIP3     1796     SWM4     DOH2     DOH2     -1.71640      0.400000           0   0.00000       0.00000    
     35186 TIP3     1796     SWM4     OM       LPDW     -1.11466       0.00000          -1   0.00000       0.00000    
     35187 TIP3     1796     SWM4     H1       HDW      0.557330       1.00800           0   0.00000       0.00000    
     35188 TIP3     1796     SWM4     H2       HDW      0.557330       1.00800           0   0.00000       0.00000    
     35189 TIP3     1797     SWM4     OH2      ODW       1.71640       15.5994           0 -0.978253       1.30000    
     35190 TIP3     1797     SWM4     DOH2     DOH2     -1.71640      0.400000           0   0.00000       0.00000    
     35191 TIP3     1797     SWM4     OM       LPDW     -1.11466       0.00000          -1   0.00000       0.00000    
     35192 TIP3     1797     SWM4     H1       HDW      0.557330       1.00800           0   0.00000       0.00000    
     35193 TIP3     1797     SWM4     H2       HDW      0.557330       1.00800           0   0.00000       0.00000    
     35194 TIP3     1798     SWM4     OH2      ODW       1.71640       15.5994           0 -0.978253       1.30000    
     35195 TIP3     1798     SWM4     DOH2     DOH2     -1.71640      0.400000           0   0.00000       0.00000    
     35196 TIP3     1798     SWM4     OM       LPDW     -1.11466       0.00000          -1   0.00000       0.00000    
     35197 TIP3     1798     SWM4     H1       HDW      0.557330       1.00800           0   0.00000       0.00000    
     35198 TIP3     1798     SWM4     H2       HDW      0.557330       1.00800           0   0.00000       0.00000    
     35199 TIP3     1799     SWM4     OH2      ODW       1.71640       15.5994           0 -0.978253       1.30000    
     35200 TIP3     1799     SWM4     DOH2     DOH2     -1.71640      0.400000           0   0.00000       0.00000    
     35201 TIP3     1799     SWM4     OM       LPDW     -1.11466       0.00000          -1   0.00000       0.00000    
     35202 TIP3     1799     SWM4     H1       HDW      0.557330       1.00800           0   0.00000       0.00000    
     35203 TIP3     1799     SWM4     H2       HDW      0.557330       1.00800           0   0.00000       0.00000    
     35204 TIP3     1800     SWM4     OH2      ODW       1.71640       15.5994           0 -0.978253       1.30000    
     35205 TIP3     1800     SWM4     DOH2     DOH2     -1.71640      0.400000           0   0.00000       0.00000    
     35206 TIP3     1800     SWM4     OM       LPDW     -1.11466       0.00000          -1   0.00000       0.00000    
     35207 TIP3     1800     SWM4     H1       HDW      0.557330       1.00800           0   0.00000       0.00000    
     35208 TIP3     1800     SWM4     H2       HDW      0.557330       1.00800           0   0.00000       0.00000    
     35209 TIP3     1801     SWM4     OH2      ODW       1.71640       15.5994           0 -0.978253       1.30000    
     35210 TIP3     1801     SWM4     DOH2     DOH2     -1.71640      0.400000           0   0.00000       0.00000    
     35211 TIP3     1801     SWM4     OM       LPDW     -1.11466       0.00000          -1   0.00000       0.00000    
     35212 TIP3     1801     SWM4     H1       HDW      0.557330       1.00800           0   0.00000       0.00000    
     35213 TIP3     1801     SWM4     H2       HDW      0.557330       1.00800           0   0.00000       0.00000    
     35214 TIP3     1802     SWM4     OH2      ODW       1.71640       15.5994           0 -0.978253       1.30000    
     35215 TIP3     1802     SWM4     DOH2     DOH2     -1.71640      0.400000           0   0.00000       0.00000    
     35216 TIP3     1802     SWM4     OM       LPDW     -1.11466       0.00000          -1   0.00000       0.00000    
     35217 TIP3     1802     SWM4     H1       HDW      0.557330       1.00800           0   0.00000       0.00000    
     35218 TIP3     1802     SWM4     H2       HDW      0.557330       1.00800           0   0.00000       0.00000    
     35219 TIP3     1803     SWM4     OH2      ODW       1.71640       15.5994           0 -0.978253       1.30000    
     35220 TIP3     1803     SWM4     DOH2     DOH2     -1.71640      0.400000           0   0.00000       0.00000    
     35221 TIP3     1803     SWM4     OM       LPDW     -1.11466       0.00000          -1   0.00000       0.00000    
     35222 TIP3     1803     SWM4     H1       HDW      0.557330       1.00800           0   0.00000       0.00000    
     35223 TIP3     1803     SWM4     H2       HDW      0.557330       1.00800           0   0.00000       0.00000    
     35224 TIP3     1804     SWM4     OH2      ODW       1.71640       15.5994           0 -0.978253       1.30000    
     35225 TIP3     1804     SWM4     DOH2     DOH2     -1.71640      0.400000           0   0.00000       0.00000    
     35226 TIP3     1804     SWM4     OM       LPDW     -1.11466       0.00000          -1   0.00000       0.00000    
     35227 TIP3     1804     SWM4     H1       HDW      0.557330       1.00800           0   0.00000       0.00000    
     35228 TIP3     1804     SWM4     H2       HDW      0.557330       1.00800           0   0.00000       0.00000    
     35229 TIP3     1805     SWM4     OH2      ODW       1.71640       15.5994           0 -0.978253       1.30000    
     35230 TIP3     1805     SWM4     DOH2     DOH2     -1.71640      0.400000           0   0.00000       0.00000    
     35231 TIP3     1805     SWM4     OM       LPDW     -1.11466       0.00000          -1   0.00000       0.00000    
     35232 TIP3     1805     SWM4     H1       HDW      0.557330       1.00800           0   0.00000       0.00000    
     35233 TIP3     1805     SWM4     H2       HDW      0.557330       1.00800           0   0.00000       0.00000    
     35234 TIP3     1806     SWM4     OH2      ODW       1.71640       15.5994           0 -0.978253       1.30000    
     35235 TIP3     1806     SWM4     DOH2     DOH2     -1.71640      0.400000           0   0.00000       0.00000    
     35236 TIP3     1806     SWM4     OM       LPDW     -1.11466       0.00000          -1   0.00000       0.00000    
     35237 TIP3     1806     SWM4     H1       HDW      0.557330       1.00800           0   0.00000       0.00000    
     35238 TIP3     1806     SWM4     H2       HDW      0.557330       1.00800           0   0.00000       0.00000    
     35239 TIP3     1807     SWM4     OH2      ODW       1.71640       15.5994           0 -0.978253       1.30000    
     35240 TIP3     1807     SWM4     DOH2     DOH2     -1.71640      0.400000           0   0.00000       0.00000    
     35241 TIP3     1807     SWM4     OM       LPDW     -1.11466       0.00000          -1   0.00000       0.00000    
     35242 TIP3     1807     SWM4     H1       HDW      0.557330       1.00800           0   0.00000       0.00000    
     35243 TIP3     1807     SWM4     H2       HDW      0.557330       1.00800           0   0.00000       0.00000    
     35244 TIP3     1808     SWM4     OH2      ODW       1.71640       15.5994           0 -0.978253       1.30000    
     35245 TIP3     1808     SWM4     DOH2     DOH2     -1.71640      0.400000           0   0.00000       0.00000    
     35246 TIP3     1808     SWM4     OM       LPDW     -1.11466       0.00000          -1   0.00000       0.00000    
     35247 TIP3     1808     SWM4     H1       HDW      0.557330       1.00800           0   0.00000       0.00000    
     35248 TIP3     1808     SWM4     H2       HDW      0.557330       1.00800           0   0.00000       0.00000    
     35249 TIP3     1809     SWM4     OH2      ODW       1.71640       15.5994           0 -0.978253       1.30000    
     35250 TIP3     1809     SWM4     DOH2     DOH2     -1.71640      0.400000           0   0.00000       0.00000    
     35251 TIP3     1809     SWM4     OM       LPDW     -1.11466       0.00000          -1   0.00000       0.00000    
     35252 TIP3     1809     SWM4     H1       HDW      0.557330       1.00800           0   0.00000       0.00000    
     35253 TIP3     1809     SWM4     H2       HDW      0.557330       1.00800           0   0.00000       0.00000    
     35254 TIP3     1810     SWM4     OH2      ODW       1.71640       15.5994           0 -0.978253       1.30000    
     35255 TIP3     1810     SWM4     DOH2     DOH2     -1.71640      0.400000           0   0.00000       0.00000    
     35256 TIP3     1810     SWM4     OM       LPDW     -1.11466       0.00000          -1   0.00000       0.00000    
     35257 TIP3     1810     SWM4     H1       HDW      0.557330       1.00800           0   0.00000       0.00000    
     35258 TIP3     1810     SWM4     H2       HDW      0.557330       1.00800           0   0.00000       0.00000    
     35259 TIP3     1811     SWM4     OH2      ODW       1.71640       15.5994           0 -0.978253       1.30000    
     35260 TIP3     1811     SWM4     DOH2     DOH2     -1.71640      0.400000           0   0.00000       0.00000    
     35261 TIP3     1811     SWM4     OM       LPDW     -1.11466       0.00000          -1   0.00000       0.00000    
     35262 TIP3     1811     SWM4     H1       HDW      0.557330       1.00800           0   0.00000       0.00000    
     35263 TIP3     1811     SWM4     H2       HDW      0.557330       1.00800           0   0.00000       0.00000    
     35264 TIP3     1812     SWM4     OH2      ODW       1.71640       15.5994           0 -0.978253       1.30000    
     35265 TIP3     1812     SWM4     DOH2     DOH2     -1.71640      0.400000           0   0.00000       0.00000    
     35266 TIP3     1812     SWM4     OM       LPDW     -1.11466       0.00000          -1   0.00000       0.00000    
     35267 TIP3     1812     SWM4     H1       HDW      0.557330       1.00800           0   0.00000       0.00000    
     35268 TIP3     1812     SWM4     H2       HDW      0.557330       1.00800           0   0.00000       0.00000    
     35269 TIP3     1813     SWM4     OH2      ODW       1.71640       15.5994           0 -0.978253       1.30000    
     35270 TIP3     1813     SWM4     DOH2     DOH2     -1.71640      0.400000           0   0.00000       0.00000    
     35271 TIP3     1813     SWM4     OM       LPDW     -1.11466       0.00000          -1   0.00000       0.00000    
     35272 TIP3     1813     SWM4     H1       HDW      0.557330       1.00800           0   0.00000       0.00000    
     35273 TIP3     1813     SWM4     H2       HDW      0.557330       1.00800           0   0.00000       0.00000    
     35274 TIP3     1814     SWM4     OH2      ODW       1.71640       15.5994           0 -0.978253       1.30000    
     35275 TIP3     1814     SWM4     DOH2     DOH2     -1.71640      0.400000           0   0.00000       0.00000    
     35276 TIP3     1814     SWM4     OM       LPDW     -1.11466       0.00000          -1   0.00000       0.00000    
     35277 TIP3     1814     SWM4     H1       HDW      0.557330       1.00800           0   0.00000       0.00000    
     35278 TIP3     1814     SWM4     H2       HDW      0.557330       1.00800           0   0.00000       0.00000    
     35279 TIP3     1815     SWM4     OH2      ODW       1.71640       15.5994           0 -0.978253       1.30000    
     35280 TIP3     1815     SWM4     DOH2     DOH2     -1.71640      0.400000           0   0.00000       0.00000    
     35281 TIP3     1815     SWM4     OM       LPDW     -1.11466       0.00000          -1   0.00000       0.00000    
     35282 TIP3     1815     SWM4     H1       HDW      0.557330       1.00800           0   0.00000       0.00000    
     35283 TIP3     1815     SWM4     H2       HDW      0.557330       1.00800           0   0.00000       0.00000    
     35284 TIP3     1816     SWM4     OH2      ODW       1.71640       15.5994           0 -0.978253       1.30000    
     35285 TIP3     1816     SWM4     DOH2     DOH2     -1.71640      0.400000           0   0.00000       0.00000    
     35286 TIP3     1816     SWM4     OM       LPDW     -1.11466       0.00000          -1   0.00000       0.00000    
     35287 TIP3     1816     SWM4     H1       HDW      0.557330       1.00800           0   0.00000       0.00000    
     35288 TIP3     1816     SWM4     H2       HDW      0.557330       1.00800           0   0.00000       0.00000    
     35289 TIP3     1817     SWM4     OH2      ODW       1.71640       15.5994           0 -0.978253       1.30000    
     35290 TIP3     1817     SWM4     DOH2     DOH2     -1.71640      0.400000           0   0.00000       0.00000    
     35291 TIP3     1817     SWM4     OM       LPDW     -1.11466       0.00000          -1   0.00000       0.00000    
     35292 TIP3     1817     SWM4     H1       HDW      0.557330       1.00800           0   0.00000       0.00000    
     35293 TIP3     1817     SWM4     H2       HDW      0.557330       1.00800           0   0.00000       0.00000    
     35294 TIP3     1818     SWM4     OH2      ODW       1.71640       15.5994           0 -0.978253       1.30000    
     35295 TIP3     1818     SWM4     DOH2     DOH2     -1.71640      0.400000           0   0.00000       0.00000    
     35296 TIP3     1818     SWM4     OM       LPDW     -1.11466       0.00000          -1   0.00000       0.00000    
     35297 TIP3     1818     SWM4     H1       HDW      0.557330       1.00800           0   0.00000       0.00000    
     35298 TIP3     1818     SWM4     H2       HDW      0.557330       1.00800           0   0.00000       0.00000    
     35299 TIP3     1819     SWM4     OH2      ODW       1.71640       15.5994           0 -0.978253       1.30000    
     35300 TIP3     1819     SWM4     DOH2     DOH2     -1.71640      0.400000           0   0.00000       0.00000    
     35301 TIP3     1819     SWM4     OM       LPDW     -1.11466       0.00000          -1   0.00000       0.00000    
     35302 TIP3     1819     SWM4     H1       HDW      0.557330       1.00800           0   0.00000       0.00000    
     35303 TIP3     1819     SWM4     H2       HDW      0.557330       1.00800           0   0.00000       0.00000    
     35304 TIP3     1820     SWM4     OH2      ODW       1.71640       15.5994           0 -0.978253       1.30000    
     35305 TIP3     1820     SWM4     DOH2     DOH2     -1.71640      0.400000           0   0.00000       0.00000    
     35306 TIP3     1820     SWM4     OM       LPDW     -1.11466       0.00000          -1   0.00000       0.00000    
     35307 TIP3     1820     SWM4     H1       HDW      0.557330       1.00800           0   0.00000       0.00000    
     35308 TIP3     1820     SWM4     H2       HDW      0.557330       1.00800           0   0.00000       0.00000    
     35309 TIP3     1821     SWM4     OH2      ODW       1.71640       15.5994           0 -0.978253       1.30000    
     35310 TIP3     1821     SWM4     DOH2     DOH2     -1.71640      0.400000           0   0.00000       0.00000    
     35311 TIP3     1821     SWM4     OM       LPDW     -1.11466       0.00000          -1   0.00000       0.00000    
     35312 TIP3     1821     SWM4     H1       HDW      0.557330       1.00800           0   0.00000       0.00000    
     35313 TIP3     1821     SWM4     H2       HDW      0.557330       1.00800           0   0.00000       0.00000    
     35314 TIP3     1822     SWM4     OH2      ODW       1.71640       15.5994           0 -0.978253       1.30000    
     35315 TIP3     1822     SWM4     DOH2     DOH2     -1.71640      0.400000           0   0.00000       0.00000    
     35316 TIP3     1822     SWM4     OM       LPDW     -1.11466       0.00000          -1   0.00000       0.00000    
     35317 TIP3     1822     SWM4     H1       HDW      0.557330       1.00800           0   0.00000       0.00000    
     35318 TIP3     1822     SWM4     H2       HDW      0.557330       1.00800           0   0.00000       0.00000    
     35319 TIP3     1823     SWM4     OH2      ODW       1.71640       15.5994           0 -0.978253       1.30000    
     35320 TIP3     1823     SWM4     DOH2     DOH2     -1.71640      0.400000           0   0.00000       0.00000    
     35321 TIP3     1823     SWM4     OM       LPDW     -1.11466       0.00000          -1   0.00000       0.00000    
     35322 TIP3     1823     SWM4     H1       HDW      0.557330       1.00800           0   0.00000       0.00000    
     35323 TIP3     1823     SWM4     H2       HDW      0.557330       1.00800           0   0.00000       0.00000    
     35324 TIP3     1824     SWM4     OH2      ODW       1.71640       15.5994           0 -0.978253       1.30000    
     35325 TIP3     1824     SWM4     DOH2     DOH2     -1.71640      0.400000           0   0.00000       0.00000    
     35326 TIP3     1824     SWM4     OM       LPDW     -1.11466       0.00000          -1   0.00000       0.00000    
     35327 TIP3     1824     SWM4     H1       HDW      0.557330       1.00800           0   0.00000       0.00000    
     35328 TIP3     1824     SWM4     H2       HDW      0.557330       1.00800           0   0.00000       0.00000    
     35329 TIP3     1825     SWM4     OH2      ODW       1.71640       15.5994           0 -0.978253       1.30000    
     35330 TIP3     1825     SWM4     DOH2     DOH2     -1.71640      0.400000           0   0.00000       0.00000    
     35331 TIP3     1825     SWM4     OM       LPDW     -1.11466       0.00000          -1   0.00000       0.00000    
     35332 TIP3     1825     SWM4     H1       HDW      0.557330       1.00800           0   0.00000       0.00000    
     35333 TIP3     1825     SWM4     H2       HDW      0.557330       1.00800           0   0.00000       0.00000    
     35334 TIP3     1826     SWM4     OH2      ODW       1.71640       15.5994           0 -0.978253       1.30000    
     35335 TIP3     1826     SWM4     DOH2     DOH2     -1.71640      0.400000           0   0.00000       0.00000    
     35336 TIP3     1826     SWM4     OM       LPDW     -1.11466       0.00000          -1   0.00000       0.00000    
     35337 TIP3     1826     SWM4     H1       HDW      0.557330       1.00800           0   0.00000       0.00000    
     35338 TIP3     1826     SWM4     H2       HDW      0.557330       1.00800           0   0.00000       0.00000    
     35339 TIP3     1827     SWM4     OH2      ODW       1.71640       15.5994           0 -0.978253       1.30000    
     35340 TIP3     1827     SWM4     DOH2     DOH2     -1.71640      0.400000           0   0.00000       0.00000    
     35341 TIP3     1827     SWM4     OM       LPDW     -1.11466       0.00000          -1   0.00000       0.00000    
     35342 TIP3     1827     SWM4     H1       HDW      0.557330       1.00800           0   0.00000       0.00000    
     35343 TIP3     1827     SWM4     H2       HDW      0.557330       1.00800           0   0.00000       0.00000    
     35344 TIP3     1828     SWM4     OH2      ODW       1.71640       15.5994           0 -0.978253       1.30000    
     35345 TIP3     1828     SWM4     DOH2     DOH2     -1.71640      0.400000           0   0.00000       0.00000    
     35346 TIP3     1828     SWM4     OM       LPDW     -1.11466       0.00000          -1   0.00000       0.00000    
     35347 TIP3     1828     SWM4     H1       HDW      0.557330       1.00800           0   0.00000       0.00000    
     35348 TIP3     1828     SWM4     H2       HDW      0.557330       1.00800           0   0.00000       0.00000    
     35349 TIP3     1829     SWM4     OH2      ODW       1.71640       15.5994           0 -0.978253       1.30000    
     35350 TIP3     1829     SWM4     DOH2     DOH2     -1.71640      0.400000           0   0.00000       0.00000    
     35351 TIP3     1829     SWM4     OM       LPDW     -1.11466       0.00000          -1   0.00000       0.00000    
     35352 TIP3     1829     SWM4     H1       HDW      0.557330       1.00800           0   0.00000       0.00000    
     35353 TIP3     1829     SWM4     H2       HDW      0.557330       1.00800           0   0.00000       0.00000    
     35354 TIP3     1830     SWM4     OH2      ODW       1.71640       15.5994           0 -0.978253       1.30000    
     35355 TIP3     1830     SWM4     DOH2     DOH2     -1.71640      0.400000           0   0.00000       0.00000    
     35356 TIP3     1830     SWM4     OM       LPDW     -1.11466       0.00000          -1   0.00000       0.00000    
     35357 TIP3     1830     SWM4     H1       HDW      0.557330       1.00800           0   0.00000       0.00000    
     35358 TIP3     1830     SWM4     H2       HDW      0.557330       1.00800           0   0.00000       0.00000    
     35359 TIP3     1831     SWM4     OH2      ODW       1.71640       15.5994           0 -0.978253       1.30000    
     35360 TIP3     1831     SWM4     DOH2     DOH2     -1.71640      0.400000           0   0.00000       0.00000    
     35361 TIP3     1831     SWM4     OM       LPDW     -1.11466       0.00000          -1   0.00000       0.00000    
     35362 TIP3     1831     SWM4     H1       HDW      0.557330       1.00800           0   0.00000       0.00000    
     35363 TIP3     1831     SWM4     H2       HDW      0.557330       1.00800           0   0.00000       0.00000    
     35364 TIP3     1832     SWM4     OH2      ODW       1.71640       15.5994           0 -0.978253       1.30000    
     35365 TIP3     1832     SWM4     DOH2     DOH2     -1.71640      0.400000           0   0.00000       0.00000    
     35366 TIP3     1832     SWM4     OM       LPDW     -1.11466       0.00000          -1   0.00000       0.00000    
     35367 TIP3     1832     SWM4     H1       HDW      0.557330       1.00800           0   0.00000       0.00000    
     35368 TIP3     1832     SWM4     H2       HDW      0.557330       1.00800           0   0.00000       0.00000    
     35369 TIP3     1833     SWM4     OH2      ODW       1.71640       15.5994           0 -0.978253       1.30000    
     35370 TIP3     1833     SWM4     DOH2     DOH2     -1.71640      0.400000           0   0.00000       0.00000    
     35371 TIP3     1833     SWM4     OM       LPDW     -1.11466       0.00000          -1   0.00000       0.00000    
     35372 TIP3     1833     SWM4     H1       HDW      0.557330       1.00800           0   0.00000       0.00000    
     35373 TIP3     1833     SWM4     H2       HDW      0.557330       1.00800           0   0.00000       0.00000    
     35374 TIP3     1834     SWM4     OH2      ODW       1.71640       15.5994           0 -0.978253       1.30000    
     35375 TIP3     1834     SWM4     DOH2     DOH2     -1.71640      0.400000           0   0.00000       0.00000    
     35376 TIP3     1834     SWM4     OM       LPDW     -1.11466       0.00000          -1   0.00000       0.00000    
     35377 TIP3     1834     SWM4     H1       HDW      0.557330       1.00800           0   0.00000       0.00000    
     35378 TIP3     1834     SWM4     H2       HDW      0.557330       1.00800           0   0.00000       0.00000    
     35379 TIP3     1835     SWM4     OH2      ODW       1.71640       15.5994           0 -0.978253       1.30000    
     35380 TIP3     1835     SWM4     DOH2     DOH2     -1.71640      0.400000           0   0.00000       0.00000    
     35381 TIP3     1835     SWM4     OM       LPDW     -1.11466       0.00000          -1   0.00000       0.00000    
     35382 TIP3     1835     SWM4     H1       HDW      0.557330       1.00800           0   0.00000       0.00000    
     35383 TIP3     1835     SWM4     H2       HDW      0.557330       1.00800           0   0.00000       0.00000    
     35384 TIP3     1836     SWM4     OH2      ODW       1.71640       15.5994           0 -0.978253       1.30000    
     35385 TIP3     1836     SWM4     DOH2     DOH2     -1.71640      0.400000           0   0.00000       0.00000    
     35386 TIP3     1836     SWM4     OM       LPDW     -1.11466       0.00000          -1   0.00000       0.00000    
     35387 TIP3     1836     SWM4     H1       HDW      0.557330       1.00800           0   0.00000       0.00000    
     35388 TIP3     1836     SWM4     H2       HDW      0.557330       1.00800           0   0.00000       0.00000    
     35389 TIP3     1837     SWM4     OH2      ODW       1.71640       15.5994           0 -0.978253       1.30000    
     35390 TIP3     1837     SWM4     DOH2     DOH2     -1.71640      0.400000           0   0.00000       0.00000    
     35391 TIP3     1837     SWM4     OM       LPDW     -1.11466       0.00000          -1   0.00000       0.00000    
     35392 TIP3     1837     SWM4     H1       HDW      0.557330       1.00800           0   0.00000       0.00000    
     35393 TIP3     1837     SWM4     H2       HDW      0.557330       1.00800           0   0.00000       0.00000    
     35394 TIP3     1838     SWM4     OH2      ODW       1.71640       15.5994           0 -0.978253       1.30000    
     35395 TIP3     1838     SWM4     DOH2     DOH2     -1.71640      0.400000           0   0.00000       0.00000    
     35396 TIP3     1838     SWM4     OM       LPDW     -1.11466       0.00000          -1   0.00000       0.00000    
     35397 TIP3     1838     SWM4     H1       HDW      0.557330       1.00800           0   0.00000       0.00000    
     35398 TIP3     1838     SWM4     H2       HDW      0.557330       1.00800           0   0.00000       0.00000    
     35399 TIP3     1839     SWM4     OH2      ODW       1.71640       15.5994           0 -0.978253       1.30000    
     35400 TIP3     1839     SWM4     DOH2     DOH2     -1.71640      0.400000           0   0.00000       0.00000    
     35401 TIP3     1839     SWM4     OM       LPDW     -1.11466       0.00000          -1   0.00000       0.00000    
     35402 TIP3     1839     SWM4     H1       HDW      0.557330       1.00800           0   0.00000       0.00000    
     35403 TIP3     1839     SWM4     H2       HDW      0.557330       1.00800           0   0.00000       0.00000    
     35404 TIP3     1840     SWM4     OH2      ODW       1.71640       15.5994           0 -0.978253       1.30000    
     35405 TIP3     1840     SWM4     DOH2     DOH2     -1.71640      0.400000           0   0.00000       0.00000    
     35406 TIP3     1840     SWM4     OM       LPDW     -1.11466       0.00000          -1   0.00000       0.00000    
     35407 TIP3     1840     SWM4     H1       HDW      0.557330       1.00800           0   0.00000       0.00000    
     35408 TIP3     1840     SWM4     H2       HDW      0.557330       1.00800           0   0.00000       0.00000    
     35409 TIP3     1841     SWM4     OH2      ODW       1.71640       15.5994           0 -0.978253       1.30000    
     35410 TIP3     1841     SWM4     DOH2     DOH2     -1.71640      0.400000           0   0.00000       0.00000    
     35411 TIP3     1841     SWM4     OM       LPDW     -1.11466       0.00000          -1   0.00000       0.00000    
     35412 TIP3     1841     SWM4     H1       HDW      0.557330       1.00800           0   0.00000       0.00000    
     35413 TIP3     1841     SWM4     H2       HDW      0.557330       1.00800           0   0.00000       0.00000    
     35414 TIP3     1842     SWM4     OH2      ODW       1.71640       15.5994           0 -0.978253       1.30000    
     35415 TIP3     1842     SWM4     DOH2     DOH2     -1.71640      0.400000           0   0.00000       0.00000    
     35416 TIP3     1842     SWM4     OM       LPDW     -1.11466       0.00000          -1   0.00000       0.00000    
     35417 TIP3     1842     SWM4     H1       HDW      0.557330       1.00800           0   0.00000       0.00000    
     35418 TIP3     1842     SWM4     H2       HDW      0.557330       1.00800           0   0.00000       0.00000    
     35419 TIP3     1843     SWM4     OH2      ODW       1.71640       15.5994           0 -0.978253       1.30000    
     35420 TIP3     1843     SWM4     DOH2     DOH2     -1.71640      0.400000           0   0.00000       0.00000    
     35421 TIP3     1843     SWM4     OM       LPDW     -1.11466       0.00000          -1   0.00000       0.00000    
     35422 TIP3     1843     SWM4     H1       HDW      0.557330       1.00800           0   0.00000       0.00000    
     35423 TIP3     1843     SWM4     H2       HDW      0.557330       1.00800           0   0.00000       0.00000    
     35424 TIP3     1844     SWM4     OH2      ODW       1.71640       15.5994           0 -0.978253       1.30000    
     35425 TIP3     1844     SWM4     DOH2     DOH2     -1.71640      0.400000           0   0.00000       0.00000    
     35426 TIP3     1844     SWM4     OM       LPDW     -1.11466       0.00000          -1   0.00000       0.00000    
     35427 TIP3     1844     SWM4     H1       HDW      0.557330       1.00800           0   0.00000       0.00000    
     35428 TIP3     1844     SWM4     H2       HDW      0.557330       1.00800           0   0.00000       0.00000    
     35429 TIP3     1845     SWM4     OH2      ODW       1.71640       15.5994           0 -0.978253       1.30000    
     35430 TIP3     1845     SWM4     DOH2     DOH2     -1.71640      0.400000           0   0.00000       0.00000    
     35431 TIP3     1845     SWM4     OM       LPDW     -1.11466       0.00000          -1   0.00000       0.00000    
     35432 TIP3     1845     SWM4     H1       HDW      0.557330       1.00800           0   0.00000       0.00000    
     35433 TIP3     1845     SWM4     H2       HDW      0.557330       1.00800           0   0.00000       0.00000    
     35434 TIP3     1846     SWM4     OH2      ODW       1.71640       15.5994           0 -0.978253       1.30000    
     35435 TIP3     1846     SWM4     DOH2     DOH2     -1.71640      0.400000           0   0.00000       0.00000    
     35436 TIP3     1846     SWM4     OM       LPDW     -1.11466       0.00000          -1   0.00000       0.00000    
     35437 TIP3     1846     SWM4     H1       HDW      0.557330       1.00800           0   0.00000       0.00000    
     35438 TIP3     1846     SWM4     H2       HDW      0.557330       1.00800           0   0.00000       0.00000    
     35439 TIP3     1847     SWM4     OH2      ODW       1.71640       15.5994           0 -0.978253       1.30000    
     35440 TIP3     1847     SWM4     DOH2     DOH2     -1.71640      0.400000           0   0.00000       0.00000    
     35441 TIP3     1847     SWM4     OM       LPDW     -1.11466       0.00000          -1   0.00000       0.00000    
     35442 TIP3     1847     SWM4     H1       HDW      0.557330       1.00800           0   0.00000       0.00000    
     35443 TIP3     1847     SWM4     H2       HDW      0.557330       1.00800           0   0.00000       0.00000    
     35444 TIP3     1848     SWM4     OH2      ODW       1.71640       15.5994           0 -0.978253       1.30000    
     35445 TIP3     1848     SWM4     DOH2     DOH2     -1.71640      0.400000           0   0.00000       0.00000    
     35446 TIP3     1848     SWM4     OM       LPDW     -1.11466       0.00000          -1   0.00000       0.00000    
     35447 TIP3     1848     SWM4     H1       HDW      0.557330       1.00800           0   0.00000       0.00000    
     35448 TIP3     1848     SWM4     H2       HDW      0.557330       1.00800           0   0.00000       0.00000    
     35449 TIP3     1849     SWM4     OH2      ODW       1.71640       15.5994           0 -0.978253       1.30000    
     35450 TIP3     1849     SWM4     DOH2     DOH2     -1.71640      0.400000           0   0.00000       0.00000    
     35451 TIP3     1849     SWM4     OM       LPDW     -1.11466       0.00000          -1   0.00000       0.00000    
     35452 TIP3     1849     SWM4     H1       HDW      0.557330       1.00800           0   0.00000       0.00000    
     35453 TIP3     1849     SWM4     H2       HDW      0.557330       1.00800           0   0.00000       0.00000    
     35454 TIP3     1850     SWM4     OH2      ODW       1.71640       15.5994           0 -0.978253       1.30000    
     35455 TIP3     1850     SWM4     DOH2     DOH2     -1.71640      0.400000           0   0.00000       0.00000    
     35456 TIP3     1850     SWM4     OM       LPDW     -1.11466       0.00000          -1   0.00000       0.00000    
     35457 TIP3     1850     SWM4     H1       HDW      0.557330       1.00800           0   0.00000       0.00000    
     35458 TIP3     1850     SWM4     H2       HDW      0.557330       1.00800           0   0.00000       0.00000    
     35459 TIP3     1851     SWM4     OH2      ODW       1.71640       15.5994           0 -0.978253       1.30000    
     35460 TIP3     1851     SWM4     DOH2     DOH2     -1.71640      0.400000           0   0.00000       0.00000    
     35461 TIP3     1851     SWM4     OM       LPDW     -1.11466       0.00000          -1   0.00000       0.00000    
     35462 TIP3     1851     SWM4     H1       HDW      0.557330       1.00800           0   0.00000       0.00000    
     35463 TIP3     1851     SWM4     H2       HDW      0.557330       1.00800           0   0.00000       0.00000    
     35464 TIP3     1852     SWM4     OH2      ODW       1.71640       15.5994           0 -0.978253       1.30000    
     35465 TIP3     1852     SWM4     DOH2     DOH2     -1.71640      0.400000           0   0.00000       0.00000    
     35466 TIP3     1852     SWM4     OM       LPDW     -1.11466       0.00000          -1   0.00000       0.00000    
     35467 TIP3     1852     SWM4     H1       HDW      0.557330       1.00800           0   0.00000       0.00000    
     35468 TIP3     1852     SWM4     H2       HDW      0.557330       1.00800           0   0.00000       0.00000    
     35469 TIP3     1853     SWM4     OH2      ODW       1.71640       15.5994           0 -0.978253       1.30000    
     35470 TIP3     1853     SWM4     DOH2     DOH2     -1.71640      0.400000           0   0.00000       0.00000    
     35471 TIP3     1853     SWM4     OM       LPDW     -1.11466       0.00000          -1   0.00000       0.00000    
     35472 TIP3     1853     SWM4     H1       HDW      0.557330       1.00800           0   0.00000       0.00000    
     35473 TIP3     1853     SWM4     H2       HDW      0.557330       1.00800           0   0.00000       0.00000    
     35474 TIP3     1854     SWM4     OH2      ODW       1.71640       15.5994           0 -0.978253       1.30000    
     35475 TIP3     1854     SWM4     DOH2     DOH2     -1.71640      0.400000           0   0.00000       0.00000    
     35476 TIP3     1854     SWM4     OM       LPDW     -1.11466       0.00000          -1   0.00000       0.00000    
     35477 TIP3     1854     SWM4     H1       HDW      0.557330       1.00800           0   0.00000       0.00000    
     35478 TIP3     1854     SWM4     H2       HDW      0.557330       1.00800           0   0.00000       0.00000    
     35479 TIP3     1855     SWM4     OH2      ODW       1.71640       15.5994           0 -0.978253       1.30000    
     35480 TIP3     1855     SWM4     DOH2     DOH2     -1.71640      0.400000           0   0.00000       0.00000    
     35481 TIP3     1855     SWM4     OM       LPDW     -1.11466       0.00000          -1   0.00000       0.00000    
     35482 TIP3     1855     SWM4     H1       HDW      0.557330       1.00800           0   0.00000       0.00000    
     35483 TIP3     1855     SWM4     H2       HDW      0.557330       1.00800           0   0.00000       0.00000    
     35484 TIP3     1856     SWM4     OH2      ODW       1.71640       15.5994           0 -0.978253       1.30000    
     35485 TIP3     1856     SWM4     DOH2     DOH2     -1.71640      0.400000           0   0.00000       0.00000    
     35486 TIP3     1856     SWM4     OM       LPDW     -1.11466       0.00000          -1   0.00000       0.00000    
     35487 TIP3     1856     SWM4     H1       HDW      0.557330       1.00800           0   0.00000       0.00000    
     35488 TIP3     1856     SWM4     H2       HDW      0.557330       1.00800           0   0.00000       0.00000    
     35489 TIP3     1857     SWM4     OH2      ODW       1.71640       15.5994           0 -0.978253       1.30000    
     35490 TIP3     1857     SWM4     DOH2     DOH2     -1.71640      0.400000           0   0.00000       0.00000    
     35491 TIP3     1857     SWM4     OM       LPDW     -1.11466       0.00000          -1   0.00000       0.00000    
     35492 TIP3     1857     SWM4     H1       HDW      0.557330       1.00800           0   0.00000       0.00000    
     35493 TIP3     1857     SWM4     H2       HDW      0.557330       1.00800           0   0.00000       0.00000    
     35494 TIP3     1858     SWM4     OH2      ODW       1.71640       15.5994           0 -0.978253       1.30000    
     35495 TIP3     1858     SWM4     DOH2     DOH2     -1.71640      0.400000           0   0.00000       0.00000    
     35496 TIP3     1858     SWM4     OM       LPDW     -1.11466       0.00000          -1   0.00000       0.00000    
     35497 TIP3     1858     SWM4     H1       HDW      0.557330       1.00800           0   0.00000       0.00000    
     35498 TIP3     1858     SWM4     H2       HDW      0.557330       1.00800           0   0.00000       0.00000    
     35499 TIP3     1859     SWM4     OH2      ODW       1.71640       15.5994           0 -0.978253       1.30000    
     35500 TIP3     1859     SWM4     DOH2     DOH2     -1.71640      0.400000           0   0.00000       0.00000    
     35501 TIP3     1859     SWM4     OM       LPDW     -1.11466       0.00000          -1   0.00000       0.00000    
     35502 TIP3     1859     SWM4     H1       HDW      0.557330       1.00800           0   0.00000       0.00000    
     35503 TIP3     1859     SWM4     H2       HDW      0.557330       1.00800           0   0.00000       0.00000    
     35504 TIP3     1860     SWM4     OH2      ODW       1.71640       15.5994           0 -0.978253       1.30000    
     35505 TIP3     1860     SWM4     DOH2     DOH2     -1.71640      0.400000           0   0.00000       0.00000    
     35506 TIP3     1860     SWM4     OM       LPDW     -1.11466       0.00000          -1   0.00000       0.00000    
     35507 TIP3     1860     SWM4     H1       HDW      0.557330       1.00800           0   0.00000       0.00000    
     35508 TIP3     1860     SWM4     H2       HDW      0.557330       1.00800           0   0.00000       0.00000    
     35509 TIP3     1861     SWM4     OH2      ODW       1.71640       15.5994           0 -0.978253       1.30000    
     35510 TIP3     1861     SWM4     DOH2     DOH2     -1.71640      0.400000           0   0.00000       0.00000    
     35511 TIP3     1861     SWM4     OM       LPDW     -1.11466       0.00000          -1   0.00000       0.00000    
     35512 TIP3     1861     SWM4     H1       HDW      0.557330       1.00800           0   0.00000       0.00000    
     35513 TIP3     1861     SWM4     H2       HDW      0.557330       1.00800           0   0.00000       0.00000    
     35514 TIP3     1862     SWM4     OH2      ODW       1.71640       15.5994           0 -0.978253       1.30000    
     35515 TIP3     1862     SWM4     DOH2     DOH2     -1.71640      0.400000           0   0.00000       0.00000    
     35516 TIP3     1862     SWM4     OM       LPDW     -1.11466       0.00000          -1   0.00000       0.00000    
     35517 TIP3     1862     SWM4     H1       HDW      0.557330       1.00800           0   0.00000       0.00000    
     35518 TIP3     1862     SWM4     H2       HDW      0.557330       1.00800           0   0.00000       0.00000    
     35519 TIP3     1863     SWM4     OH2      ODW       1.71640       15.5994           0 -0.978253       1.30000    
     35520 TIP3     1863     SWM4     DOH2     DOH2     -1.71640      0.400000           0   0.00000       0.00000    
     35521 TIP3     1863     SWM4     OM       LPDW     -1.11466       0.00000          -1   0.00000       0.00000    
     35522 TIP3     1863     SWM4     H1       HDW      0.557330       1.00800           0   0.00000       0.00000    
     35523 TIP3     1863     SWM4     H2       HDW      0.557330       1.00800           0   0.00000       0.00000    
     35524 TIP3     1864     SWM4     OH2      ODW       1.71640       15.5994           0 -0.978253       1.30000    
     35525 TIP3     1864     SWM4     DOH2     DOH2     -1.71640      0.400000           0   0.00000       0.00000    
     35526 TIP3     1864     SWM4     OM       LPDW     -1.11466       0.00000          -1   0.00000       0.00000    
     35527 TIP3     1864     SWM4     H1       HDW      0.557330       1.00800           0   0.00000       0.00000    
     35528 TIP3     1864     SWM4     H2       HDW      0.557330       1.00800           0   0.00000       0.00000    
     35529 TIP3     1865     SWM4     OH2      ODW       1.71640       15.5994           0 -0.978253       1.30000    
     35530 TIP3     1865     SWM4     DOH2     DOH2     -1.71640      0.400000           0   0.00000       0.00000    
     35531 TIP3     1865     SWM4     OM       LPDW     -1.11466       0.00000          -1   0.00000       0.00000    
     35532 TIP3     1865     SWM4     H1       HDW      0.557330       1.00800           0   0.00000       0.00000    
     35533 TIP3     1865     SWM4     H2       HDW      0.557330       1.00800           0   0.00000       0.00000    
     35534 TIP3     1866     SWM4     OH2      ODW       1.71640       15.5994           0 -0.978253       1.30000    
     35535 TIP3     1866     SWM4     DOH2     DOH2     -1.71640      0.400000           0   0.00000       0.00000    
     35536 TIP3     1866     SWM4     OM       LPDW     -1.11466       0.00000          -1   0.00000       0.00000    
     35537 TIP3     1866     SWM4     H1       HDW      0.557330       1.00800           0   0.00000       0.00000    
     35538 TIP3     1866     SWM4     H2       HDW      0.557330       1.00800           0   0.00000       0.00000    
     35539 TIP3     1867     SWM4     OH2      ODW       1.71640       15.5994           0 -0.978253       1.30000    
     35540 TIP3     1867     SWM4     DOH2     DOH2     -1.71640      0.400000           0   0.00000       0.00000    
     35541 TIP3     1867     SWM4     OM       LPDW     -1.11466       0.00000          -1   0.00000       0.00000    
     35542 TIP3     1867     SWM4     H1       HDW      0.557330       1.00800           0   0.00000       0.00000    
     35543 TIP3     1867     SWM4     H2       HDW      0.557330       1.00800           0   0.00000       0.00000    
     35544 TIP3     1868     SWM4     OH2      ODW       1.71640       15.5994           0 -0.978253       1.30000    
     35545 TIP3     1868     SWM4     DOH2     DOH2     -1.71640      0.400000           0   0.00000       0.00000    
     35546 TIP3     1868     SWM4     OM       LPDW     -1.11466       0.00000          -1   0.00000       0.00000    
     35547 TIP3     1868     SWM4     H1       HDW      0.557330       1.00800           0   0.00000       0.00000    
     35548 TIP3     1868     SWM4     H2       HDW      0.557330       1.00800           0   0.00000       0.00000    
     35549 TIP3     1869     SWM4     OH2      ODW       1.71640       15.5994           0 -0.978253       1.30000    
     35550 TIP3     1869     SWM4     DOH2     DOH2     -1.71640      0.400000           0   0.00000       0.00000    
     35551 TIP3     1869     SWM4     OM       LPDW     -1.11466       0.00000          -1   0.00000       0.00000    
     35552 TIP3     1869     SWM4     H1       HDW      0.557330       1.00800           0   0.00000       0.00000    
     35553 TIP3     1869     SWM4     H2       HDW      0.557330       1.00800           0   0.00000       0.00000    
     35554 TIP3     1870     SWM4     OH2      ODW       1.71640       15.5994           0 -0.978253       1.30000    
     35555 TIP3     1870     SWM4     DOH2     DOH2     -1.71640      0.400000           0   0.00000       0.00000    
     35556 TIP3     1870     SWM4     OM       LPDW     -1.11466       0.00000          -1   0.00000       0.00000    
     35557 TIP3     1870     SWM4     H1       HDW      0.557330       1.00800           0   0.00000       0.00000    
     35558 TIP3     1870     SWM4     H2       HDW      0.557330       1.00800           0   0.00000       0.00000    
     35559 TIP3     1871     SWM4     OH2      ODW       1.71640       15.5994           0 -0.978253       1.30000    
     35560 TIP3     1871     SWM4     DOH2     DOH2     -1.71640      0.400000           0   0.00000       0.00000    
     35561 TIP3     1871     SWM4     OM       LPDW     -1.11466       0.00000          -1   0.00000       0.00000    
     35562 TIP3     1871     SWM4     H1       HDW      0.557330       1.00800           0   0.00000       0.00000    
     35563 TIP3     1871     SWM4     H2       HDW      0.557330       1.00800           0   0.00000       0.00000    
     35564 TIP3     1872     SWM4     OH2      ODW       1.71640       15.5994           0 -0.978253       1.30000    
     35565 TIP3     1872     SWM4     DOH2     DOH2     -1.71640      0.400000           0   0.00000       0.00000    
     35566 TIP3     1872     SWM4     OM       LPDW     -1.11466       0.00000          -1   0.00000       0.00000    
     35567 TIP3     1872     SWM4     H1       HDW      0.557330       1.00800           0   0.00000       0.00000    
     35568 TIP3     1872     SWM4     H2       HDW      0.557330       1.00800           0   0.00000       0.00000    
     35569 TIP3     1873     SWM4     OH2      ODW       1.71640       15.5994           0 -0.978253       1.30000    
     35570 TIP3     1873     SWM4     DOH2     DOH2     -1.71640      0.400000           0   0.00000       0.00000    
     35571 TIP3     1873     SWM4     OM       LPDW     -1.11466       0.00000          -1   0.00000       0.00000    
     35572 TIP3     1873     SWM4     H1       HDW      0.557330       1.00800           0   0.00000       0.00000    
     35573 TIP3     1873     SWM4     H2       HDW      0.557330       1.00800           0   0.00000       0.00000    
     35574 TIP3     1874     SWM4     OH2      ODW       1.71640       15.5994           0 -0.978253       1.30000    
     35575 TIP3     1874     SWM4     DOH2     DOH2     -1.71640      0.400000           0   0.00000       0.00000    
     35576 TIP3     1874     SWM4     OM       LPDW     -1.11466       0.00000          -1   0.00000       0.00000    
     35577 TIP3     1874     SWM4     H1       HDW      0.557330       1.00800           0   0.00000       0.00000    
     35578 TIP3     1874     SWM4     H2       HDW      0.557330       1.00800           0   0.00000       0.00000    
     35579 TIP3     1875     SWM4     OH2      ODW       1.71640       15.5994           0 -0.978253       1.30000    
     35580 TIP3     1875     SWM4     DOH2     DOH2     -1.71640      0.400000           0   0.00000       0.00000    
     35581 TIP3     1875     SWM4     OM       LPDW     -1.11466       0.00000          -1   0.00000       0.00000    
     35582 TIP3     1875     SWM4     H1       HDW      0.557330       1.00800           0   0.00000       0.00000    
     35583 TIP3     1875     SWM4     H2       HDW      0.557330       1.00800           0   0.00000       0.00000    
     35584 TIP3     1876     SWM4     OH2      ODW       1.71640       15.5994           0 -0.978253       1.30000    
     35585 TIP3     1876     SWM4     DOH2     DOH2     -1.71640      0.400000           0   0.00000       0.00000    
     35586 TIP3     1876     SWM4     OM       LPDW     -1.11466       0.00000          -1   0.00000       0.00000    
     35587 TIP3     1876     SWM4     H1       HDW      0.557330       1.00800           0   0.00000       0.00000    
     35588 TIP3     1876     SWM4     H2       HDW      0.557330       1.00800           0   0.00000       0.00000    
     35589 TIP3     1877     SWM4     OH2      ODW       1.71640       15.5994           0 -0.978253       1.30000    
     35590 TIP3     1877     SWM4     DOH2     DOH2     -1.71640      0.400000           0   0.00000       0.00000    
     35591 TIP3     1877     SWM4     OM       LPDW     -1.11466       0.00000          -1   0.00000       0.00000    
     35592 TIP3     1877     SWM4     H1       HDW      0.557330       1.00800           0   0.00000       0.00000    
     35593 TIP3     1877     SWM4     H2       HDW      0.557330       1.00800           0   0.00000       0.00000    
     35594 TIP3     1878     SWM4     OH2      ODW       1.71640       15.5994           0 -0.978253       1.30000    
     35595 TIP3     1878     SWM4     DOH2     DOH2     -1.71640      0.400000           0   0.00000       0.00000    
     35596 TIP3     1878     SWM4     OM       LPDW     -1.11466       0.00000          -1   0.00000       0.00000    
     35597 TIP3     1878     SWM4     H1       HDW      0.557330       1.00800           0   0.00000       0.00000    
     35598 TIP3     1878     SWM4     H2       HDW      0.557330       1.00800           0   0.00000       0.00000    
     35599 TIP3     1879     SWM4     OH2      ODW       1.71640       15.5994           0 -0.978253       1.30000    
     35600 TIP3     1879     SWM4     DOH2     DOH2     -1.71640      0.400000           0   0.00000       0.00000    
     35601 TIP3     1879     SWM4     OM       LPDW     -1.11466       0.00000          -1   0.00000       0.00000    
     35602 TIP3     1879     SWM4     H1       HDW      0.557330       1.00800           0   0.00000       0.00000    
     35603 TIP3     1879     SWM4     H2       HDW      0.557330       1.00800           0   0.00000       0.00000    
     35604 TIP3     1880     SWM4     OH2      ODW       1.71640       15.5994           0 -0.978253       1.30000    
     35605 TIP3     1880     SWM4     DOH2     DOH2     -1.71640      0.400000           0   0.00000       0.00000    
     35606 TIP3     1880     SWM4     OM       LPDW     -1.11466       0.00000          -1   0.00000       0.00000    
     35607 TIP3     1880     SWM4     H1       HDW      0.557330       1.00800           0   0.00000       0.00000    
     35608 TIP3     1880     SWM4     H2       HDW      0.557330       1.00800           0   0.00000       0.00000    
     35609 TIP3     1881     SWM4     OH2      ODW       1.71640       15.5994           0 -0.978253       1.30000    
     35610 TIP3     1881     SWM4     DOH2     DOH2     -1.71640      0.400000           0   0.00000       0.00000    
     35611 TIP3     1881     SWM4     OM       LPDW     -1.11466       0.00000          -1   0.00000       0.00000    
     35612 TIP3     1881     SWM4     H1       HDW      0.557330       1.00800           0   0.00000       0.00000    
     35613 TIP3     1881     SWM4     H2       HDW      0.557330       1.00800           0   0.00000       0.00000    
     35614 TIP3     1882     SWM4     OH2      ODW       1.71640       15.5994           0 -0.978253       1.30000    
     35615 TIP3     1882     SWM4     DOH2     DOH2     -1.71640      0.400000           0   0.00000       0.00000    
     35616 TIP3     1882     SWM4     OM       LPDW     -1.11466       0.00000          -1   0.00000       0.00000    
     35617 TIP3     1882     SWM4     H1       HDW      0.557330       1.00800           0   0.00000       0.00000    
     35618 TIP3     1882     SWM4     H2       HDW      0.557330       1.00800           0   0.00000       0.00000    
     35619 TIP3     1883     SWM4     OH2      ODW       1.71640       15.5994           0 -0.978253       1.30000    
     35620 TIP3     1883     SWM4     DOH2     DOH2     -1.71640      0.400000           0   0.00000       0.00000    
     35621 TIP3     1883     SWM4     OM       LPDW     -1.11466       0.00000          -1   0.00000       0.00000    
     35622 TIP3     1883     SWM4     H1       HDW      0.557330       1.00800           0   0.00000       0.00000    
     35623 TIP3     1883     SWM4     H2       HDW      0.557330       1.00800           0   0.00000       0.00000    
     35624 TIP3     1884     SWM4     OH2      ODW       1.71640       15.5994           0 -0.978253       1.30000    
     35625 TIP3     1884     SWM4     DOH2     DOH2     -1.71640      0.400000           0   0.00000       0.00000    
     35626 TIP3     1884     SWM4     OM       LPDW     -1.11466       0.00000          -1   0.00000       0.00000    
     35627 TIP3     1884     SWM4     H1       HDW      0.557330       1.00800           0   0.00000       0.00000    
     35628 TIP3     1884     SWM4     H2       HDW      0.557330       1.00800           0   0.00000       0.00000    
     35629 TIP3     1885     SWM4     OH2      ODW       1.71640       15.5994           0 -0.978253       1.30000    
     35630 TIP3     1885     SWM4     DOH2     DOH2     -1.71640      0.400000           0   0.00000       0.00000    
     35631 TIP3     1885     SWM4     OM       LPDW     -1.11466       0.00000          -1   0.00000       0.00000    
     35632 TIP3     1885     SWM4     H1       HDW      0.557330       1.00800           0   0.00000       0.00000    
     35633 TIP3     1885     SWM4     H2       HDW      0.557330       1.00800           0   0.00000       0.00000    
     35634 TIP3     1886     SWM4     OH2      ODW       1.71640       15.5994           0 -0.978253       1.30000    
     35635 TIP3     1886     SWM4     DOH2     DOH2     -1.71640      0.400000           0   0.00000       0.00000    
     35636 TIP3     1886     SWM4     OM       LPDW     -1.11466       0.00000          -1   0.00000       0.00000    
     35637 TIP3     1886     SWM4     H1       HDW      0.557330       1.00800           0   0.00000       0.00000    
     35638 TIP3     1886     SWM4     H2       HDW      0.557330       1.00800           0   0.00000       0.00000    
     35639 TIP3     1887     SWM4     OH2      ODW       1.71640       15.5994           0 -0.978253       1.30000    
     35640 TIP3     1887     SWM4     DOH2     DOH2     -1.71640      0.400000           0   0.00000       0.00000    
     35641 TIP3     1887     SWM4     OM       LPDW     -1.11466       0.00000          -1   0.00000       0.00000    
     35642 TIP3     1887     SWM4     H1       HDW      0.557330       1.00800           0   0.00000       0.00000    
     35643 TIP3     1887     SWM4     H2       HDW      0.557330       1.00800           0   0.00000       0.00000    
     35644 TIP3     1888     SWM4     OH2      ODW       1.71640       15.5994           0 -0.978253       1.30000    
     35645 TIP3     1888     SWM4     DOH2     DOH2     -1.71640      0.400000           0   0.00000       0.00000    
     35646 TIP3     1888     SWM4     OM       LPDW     -1.11466       0.00000          -1   0.00000       0.00000    
     35647 TIP3     1888     SWM4     H1       HDW      0.557330       1.00800           0   0.00000       0.00000    
     35648 TIP3     1888     SWM4     H2       HDW      0.557330       1.00800           0   0.00000       0.00000    
     35649 TIP3     1889     SWM4     OH2      ODW       1.71640       15.5994           0 -0.978253       1.30000    
     35650 TIP3     1889     SWM4     DOH2     DOH2     -1.71640      0.400000           0   0.00000       0.00000    
     35651 TIP3     1889     SWM4     OM       LPDW     -1.11466       0.00000          -1   0.00000       0.00000    
     35652 TIP3     1889     SWM4     H1       HDW      0.557330       1.00800           0   0.00000       0.00000    
     35653 TIP3     1889     SWM4     H2       HDW      0.557330       1.00800           0   0.00000       0.00000    
     35654 TIP3     1890     SWM4     OH2      ODW       1.71640       15.5994           0 -0.978253       1.30000    
     35655 TIP3     1890     SWM4     DOH2     DOH2     -1.71640      0.400000           0   0.00000       0.00000    
     35656 TIP3     1890     SWM4     OM       LPDW     -1.11466       0.00000          -1   0.00000       0.00000    
     35657 TIP3     1890     SWM4     H1       HDW      0.557330       1.00800           0   0.00000       0.00000    
     35658 TIP3     1890     SWM4     H2       HDW      0.557330       1.00800           0   0.00000       0.00000    
     35659 TIP3     1891     SWM4     OH2      ODW       1.71640       15.5994           0 -0.978253       1.30000    
     35660 TIP3     1891     SWM4     DOH2     DOH2     -1.71640      0.400000           0   0.00000       0.00000    
     35661 TIP3     1891     SWM4     OM       LPDW     -1.11466       0.00000          -1   0.00000       0.00000    
     35662 TIP3     1891     SWM4     H1       HDW      0.557330       1.00800           0   0.00000       0.00000    
     35663 TIP3     1891     SWM4     H2       HDW      0.557330       1.00800           0   0.00000       0.00000    
     35664 TIP3     1892     SWM4     OH2      ODW       1.71640       15.5994           0 -0.978253       1.30000    
     35665 TIP3     1892     SWM4     DOH2     DOH2     -1.71640      0.400000           0   0.00000       0.00000    
     35666 TIP3     1892     SWM4     OM       LPDW     -1.11466       0.00000          -1   0.00000       0.00000    
     35667 TIP3     1892     SWM4     H1       HDW      0.557330       1.00800           0   0.00000       0.00000    
     35668 TIP3     1892     SWM4     H2       HDW      0.557330       1.00800           0   0.00000       0.00000    
     35669 TIP3     1893     SWM4     OH2      ODW       1.71640       15.5994           0 -0.978253       1.30000    
     35670 TIP3     1893     SWM4     DOH2     DOH2     -1.71640      0.400000           0   0.00000       0.00000    
     35671 TIP3     1893     SWM4     OM       LPDW     -1.11466       0.00000          -1   0.00000       0.00000    
     35672 TIP3     1893     SWM4     H1       HDW      0.557330       1.00800           0   0.00000       0.00000    
     35673 TIP3     1893     SWM4     H2       HDW      0.557330       1.00800           0   0.00000       0.00000    
     35674 TIP3     1894     SWM4     OH2      ODW       1.71640       15.5994           0 -0.978253       1.30000    
     35675 TIP3     1894     SWM4     DOH2     DOH2     -1.71640      0.400000           0   0.00000       0.00000    
     35676 TIP3     1894     SWM4     OM       LPDW     -1.11466       0.00000          -1   0.00000       0.00000    
     35677 TIP3     1894     SWM4     H1       HDW      0.557330       1.00800           0   0.00000       0.00000    
     35678 TIP3     1894     SWM4     H2       HDW      0.557330       1.00800           0   0.00000       0.00000    
     35679 TIP3     1895     SWM4     OH2      ODW       1.71640       15.5994           0 -0.978253       1.30000    
     35680 TIP3     1895     SWM4     DOH2     DOH2     -1.71640      0.400000           0   0.00000       0.00000    
     35681 TIP3     1895     SWM4     OM       LPDW     -1.11466       0.00000          -1   0.00000       0.00000    
     35682 TIP3     1895     SWM4     H1       HDW      0.557330       1.00800           0   0.00000       0.00000    
     35683 TIP3     1895     SWM4     H2       HDW      0.557330       1.00800           0   0.00000       0.00000    
     35684 TIP3     1896     SWM4     OH2      ODW       1.71640       15.5994           0 -0.978253       1.30000    
     35685 TIP3     1896     SWM4     DOH2     DOH2     -1.71640      0.400000           0   0.00000       0.00000    
     35686 TIP3     1896     SWM4     OM       LPDW     -1.11466       0.00000          -1   0.00000       0.00000    
     35687 TIP3     1896     SWM4     H1       HDW      0.557330       1.00800           0   0.00000       0.00000    
     35688 TIP3     1896     SWM4     H2       HDW      0.557330       1.00800           0   0.00000       0.00000    
     35689 TIP3     1897     SWM4     OH2      ODW       1.71640       15.5994           0 -0.978253       1.30000    
     35690 TIP3     1897     SWM4     DOH2     DOH2     -1.71640      0.400000           0   0.00000       0.00000    
     35691 TIP3     1897     SWM4     OM       LPDW     -1.11466       0.00000          -1   0.00000       0.00000    
     35692 TIP3     1897     SWM4     H1       HDW      0.557330       1.00800           0   0.00000       0.00000    
     35693 TIP3     1897     SWM4     H2       HDW      0.557330       1.00800           0   0.00000       0.00000    
     35694 TIP3     1898     SWM4     OH2      ODW       1.71640       15.5994           0 -0.978253       1.30000    
     35695 TIP3     1898     SWM4     DOH2     DOH2     -1.71640      0.400000           0   0.00000       0.00000    
     35696 TIP3     1898     SWM4     OM       LPDW     -1.11466       0.00000          -1   0.00000       0.00000    
     35697 TIP3     1898     SWM4     H1       HDW      0.557330       1.00800           0   0.00000       0.00000    
     35698 TIP3     1898     SWM4     H2       HDW      0.557330       1.00800           0   0.00000       0.00000    
     35699 TIP3     1899     SWM4     OH2      ODW       1.71640       15.5994           0 -0.978253       1.30000    
     35700 TIP3     1899     SWM4     DOH2     DOH2     -1.71640      0.400000           0   0.00000       0.00000    
     35701 TIP3     1899     SWM4     OM       LPDW     -1.11466       0.00000          -1   0.00000       0.00000    
     35702 TIP3     1899     SWM4     H1       HDW      0.557330       1.00800           0   0.00000       0.00000    
     35703 TIP3     1899     SWM4     H2       HDW      0.557330       1.00800           0   0.00000       0.00000    
     35704 TIP3     1900     SWM4     OH2      ODW       1.71640       15.5994           0 -0.978253       1.30000    
     35705 TIP3     1900     SWM4     DOH2     DOH2     -1.71640      0.400000           0   0.00000       0.00000    
     35706 TIP3     1900     SWM4     OM       LPDW     -1.11466       0.00000          -1   0.00000       0.00000    
     35707 TIP3     1900     SWM4     H1       HDW      0.557330       1.00800           0   0.00000       0.00000    
     35708 TIP3     1900     SWM4     H2       HDW      0.557330       1.00800           0   0.00000       0.00000    
     35709 TIP3     1901     SWM4     OH2      ODW       1.71640       15.5994           0 -0.978253       1.30000    
     35710 TIP3     1901     SWM4     DOH2     DOH2     -1.71640      0.400000           0   0.00000       0.00000    
     35711 TIP3     1901     SWM4     OM       LPDW     -1.11466       0.00000          -1   0.00000       0.00000    
     35712 TIP3     1901     SWM4     H1       HDW      0.557330       1.00800           0   0.00000       0.00000    
     35713 TIP3     1901     SWM4     H2       HDW      0.557330       1.00800           0   0.00000       0.00000    
     35714 TIP3     1902     SWM4     OH2      ODW       1.71640       15.5994           0 -0.978253       1.30000    
     35715 TIP3     1902     SWM4     DOH2     DOH2     -1.71640      0.400000           0   0.00000       0.00000    
     35716 TIP3     1902     SWM4     OM       LPDW     -1.11466       0.00000          -1   0.00000       0.00000    
     35717 TIP3     1902     SWM4     H1       HDW      0.557330       1.00800           0   0.00000       0.00000    
     35718 TIP3     1902     SWM4     H2       HDW      0.557330       1.00800           0   0.00000       0.00000    
     35719 TIP3     1903     SWM4     OH2      ODW       1.71640       15.5994           0 -0.978253       1.30000    
     35720 TIP3     1903     SWM4     DOH2     DOH2     -1.71640      0.400000           0   0.00000       0.00000    
     35721 TIP3     1903     SWM4     OM       LPDW     -1.11466       0.00000          -1   0.00000       0.00000    
     35722 TIP3     1903     SWM4     H1       HDW      0.557330       1.00800           0   0.00000       0.00000    
     35723 TIP3     1903     SWM4     H2       HDW      0.557330       1.00800           0   0.00000       0.00000    
     35724 TIP3     1904     SWM4     OH2      ODW       1.71640       15.5994           0 -0.978253       1.30000    
     35725 TIP3     1904     SWM4     DOH2     DOH2     -1.71640      0.400000           0   0.00000       0.00000    
     35726 TIP3     1904     SWM4     OM       LPDW     -1.11466       0.00000          -1   0.00000       0.00000    
     35727 TIP3     1904     SWM4     H1       HDW      0.557330       1.00800           0   0.00000       0.00000    
     35728 TIP3     1904     SWM4     H2       HDW      0.557330       1.00800           0   0.00000       0.00000    
     35729 TIP3     1905     SWM4     OH2      ODW       1.71640       15.5994           0 -0.978253       1.30000    
     35730 TIP3     1905     SWM4     DOH2     DOH2     -1.71640      0.400000           0   0.00000       0.00000    
     35731 TIP3     1905     SWM4     OM       LPDW     -1.11466       0.00000          -1   0.00000       0.00000    
     35732 TIP3     1905     SWM4     H1       HDW      0.557330       1.00800           0   0.00000       0.00000    
     35733 TIP3     1905     SWM4     H2       HDW      0.557330       1.00800           0   0.00000       0.00000    
     35734 TIP3     1906     SWM4     OH2      ODW       1.71640       15.5994           0 -0.978253       1.30000    
     35735 TIP3     1906     SWM4     DOH2     DOH2     -1.71640      0.400000           0   0.00000       0.00000    
     35736 TIP3     1906     SWM4     OM       LPDW     -1.11466       0.00000          -1   0.00000       0.00000    
     35737 TIP3     1906     SWM4     H1       HDW      0.557330       1.00800           0   0.00000       0.00000    
     35738 TIP3     1906     SWM4     H2       HDW      0.557330       1.00800           0   0.00000       0.00000    
     35739 TIP3     1907     SWM4     OH2      ODW       1.71640       15.5994           0 -0.978253       1.30000    
     35740 TIP3     1907     SWM4     DOH2     DOH2     -1.71640      0.400000           0   0.00000       0.00000    
     35741 TIP3     1907     SWM4     OM       LPDW     -1.11466       0.00000          -1   0.00000       0.00000    
     35742 TIP3     1907     SWM4     H1       HDW      0.557330       1.00800           0   0.00000       0.00000    
     35743 TIP3     1907     SWM4     H2       HDW      0.557330       1.00800           0   0.00000       0.00000    
     35744 TIP3     1908     SWM4     OH2      ODW       1.71640       15.5994           0 -0.978253       1.30000    
     35745 TIP3     1908     SWM4     DOH2     DOH2     -1.71640      0.400000           0   0.00000       0.00000    
     35746 TIP3     1908     SWM4     OM       LPDW     -1.11466       0.00000          -1   0.00000       0.00000    
     35747 TIP3     1908     SWM4     H1       HDW      0.557330       1.00800           0   0.00000       0.00000    
     35748 TIP3     1908     SWM4     H2       HDW      0.557330       1.00800           0   0.00000       0.00000    
     35749 TIP3     1909     SWM4     OH2      ODW       1.71640       15.5994           0 -0.978253       1.30000    
     35750 TIP3     1909     SWM4     DOH2     DOH2     -1.71640      0.400000           0   0.00000       0.00000    
     35751 TIP3     1909     SWM4     OM       LPDW     -1.11466       0.00000          -1   0.00000       0.00000    
     35752 TIP3     1909     SWM4     H1       HDW      0.557330       1.00800           0   0.00000       0.00000    
     35753 TIP3     1909     SWM4     H2       HDW      0.557330       1.00800           0   0.00000       0.00000    
     35754 TIP3     1910     SWM4     OH2      ODW       1.71640       15.5994           0 -0.978253       1.30000    
     35755 TIP3     1910     SWM4     DOH2     DOH2     -1.71640      0.400000           0   0.00000       0.00000    
     35756 TIP3     1910     SWM4     OM       LPDW     -1.11466       0.00000          -1   0.00000       0.00000    
     35757 TIP3     1910     SWM4     H1       HDW      0.557330       1.00800           0   0.00000       0.00000    
     35758 TIP3     1910     SWM4     H2       HDW      0.557330       1.00800           0   0.00000       0.00000    
     35759 TIP3     1911     SWM4     OH2      ODW       1.71640       15.5994           0 -0.978253       1.30000    
     35760 TIP3     1911     SWM4     DOH2     DOH2     -1.71640      0.400000           0   0.00000       0.00000    
     35761 TIP3     1911     SWM4     OM       LPDW     -1.11466       0.00000          -1   0.00000       0.00000    
     35762 TIP3     1911     SWM4     H1       HDW      0.557330       1.00800           0   0.00000       0.00000    
     35763 TIP3     1911     SWM4     H2       HDW      0.557330       1.00800           0   0.00000       0.00000    
     35764 TIP3     1912     SWM4     OH2      ODW       1.71640       15.5994           0 -0.978253       1.30000    
     35765 TIP3     1912     SWM4     DOH2     DOH2     -1.71640      0.400000           0   0.00000       0.00000    
     35766 TIP3     1912     SWM4     OM       LPDW     -1.11466       0.00000          -1   0.00000       0.00000    
     35767 TIP3     1912     SWM4     H1       HDW      0.557330       1.00800           0   0.00000       0.00000    
     35768 TIP3     1912     SWM4     H2       HDW      0.557330       1.00800           0   0.00000       0.00000    
     35769 TIP3     1913     SWM4     OH2      ODW       1.71640       15.5994           0 -0.978253       1.30000    
     35770 TIP3     1913     SWM4     DOH2     DOH2     -1.71640      0.400000           0   0.00000       0.00000    
     35771 TIP3     1913     SWM4     OM       LPDW     -1.11466       0.00000          -1   0.00000       0.00000    
     35772 TIP3     1913     SWM4     H1       HDW      0.557330       1.00800           0   0.00000       0.00000    
     35773 TIP3     1913     SWM4     H2       HDW      0.557330       1.00800           0   0.00000       0.00000    
     35774 TIP3     1914     SWM4     OH2      ODW       1.71640       15.5994           0 -0.978253       1.30000    
     35775 TIP3     1914     SWM4     DOH2     DOH2     -1.71640      0.400000           0   0.00000       0.00000    
     35776 TIP3     1914     SWM4     OM       LPDW     -1.11466       0.00000          -1   0.00000       0.00000    
     35777 TIP3     1914     SWM4     H1       HDW      0.557330       1.00800           0   0.00000       0.00000    
     35778 TIP3     1914     SWM4     H2       HDW      0.557330       1.00800           0   0.00000       0.00000    
     35779 TIP3     1915     SWM4     OH2      ODW       1.71640       15.5994           0 -0.978253       1.30000    
     35780 TIP3     1915     SWM4     DOH2     DOH2     -1.71640      0.400000           0   0.00000       0.00000    
     35781 TIP3     1915     SWM4     OM       LPDW     -1.11466       0.00000          -1   0.00000       0.00000    
     35782 TIP3     1915     SWM4     H1       HDW      0.557330       1.00800           0   0.00000       0.00000    
     35783 TIP3     1915     SWM4     H2       HDW      0.557330       1.00800           0   0.00000       0.00000    
     35784 TIP3     1916     SWM4     OH2      ODW       1.71640       15.5994           0 -0.978253       1.30000    
     35785 TIP3     1916     SWM4     DOH2     DOH2     -1.71640      0.400000           0   0.00000       0.00000    
     35786 TIP3     1916     SWM4     OM       LPDW     -1.11466       0.00000          -1   0.00000       0.00000    
     35787 TIP3     1916     SWM4     H1       HDW      0.557330       1.00800           0   0.00000       0.00000    
     35788 TIP3     1916     SWM4     H2       HDW      0.557330       1.00800           0   0.00000       0.00000    
     35789 TIP3     1917     SWM4     OH2      ODW       1.71640       15.5994           0 -0.978253       1.30000    
     35790 TIP3     1917     SWM4     DOH2     DOH2     -1.71640      0.400000           0   0.00000       0.00000    
     35791 TIP3     1917     SWM4     OM       LPDW     -1.11466       0.00000          -1   0.00000       0.00000    
     35792 TIP3     1917     SWM4     H1       HDW      0.557330       1.00800           0   0.00000       0.00000    
     35793 TIP3     1917     SWM4     H2       HDW      0.557330       1.00800           0   0.00000       0.00000    
     35794 TIP3     1918     SWM4     OH2      ODW       1.71640       15.5994           0 -0.978253       1.30000    
     35795 TIP3     1918     SWM4     DOH2     DOH2     -1.71640      0.400000           0   0.00000       0.00000    
     35796 TIP3     1918     SWM4     OM       LPDW     -1.11466       0.00000          -1   0.00000       0.00000    
     35797 TIP3     1918     SWM4     H1       HDW      0.557330       1.00800           0   0.00000       0.00000    
     35798 TIP3     1918     SWM4     H2       HDW      0.557330       1.00800           0   0.00000       0.00000    
     35799 TIP3     1919     SWM4     OH2      ODW       1.71640       15.5994           0 -0.978253       1.30000    
     35800 TIP3     1919     SWM4     DOH2     DOH2     -1.71640      0.400000           0   0.00000       0.00000    
     35801 TIP3     1919     SWM4     OM       LPDW     -1.11466       0.00000          -1   0.00000       0.00000    
     35802 TIP3     1919     SWM4     H1       HDW      0.557330       1.00800           0   0.00000       0.00000    
     35803 TIP3     1919     SWM4     H2       HDW      0.557330       1.00800           0   0.00000       0.00000    
     35804 TIP3     1920     SWM4     OH2      ODW       1.71640       15.5994           0 -0.978253       1.30000    
     35805 TIP3     1920     SWM4     DOH2     DOH2     -1.71640      0.400000           0   0.00000       0.00000    
     35806 TIP3     1920     SWM4     OM       LPDW     -1.11466       0.00000          -1   0.00000       0.00000    
     35807 TIP3     1920     SWM4     H1       HDW      0.557330       1.00800           0   0.00000       0.00000    
     35808 TIP3     1920     SWM4     H2       HDW      0.557330       1.00800           0   0.00000       0.00000    
     35809 TIP3     1921     SWM4     OH2      ODW       1.71640       15.5994           0 -0.978253       1.30000    
     35810 TIP3     1921     SWM4     DOH2     DOH2     -1.71640      0.400000           0   0.00000       0.00000    
     35811 TIP3     1921     SWM4     OM       LPDW     -1.11466       0.00000          -1   0.00000       0.00000    
     35812 TIP3     1921     SWM4     H1       HDW      0.557330       1.00800           0   0.00000       0.00000    
     35813 TIP3     1921     SWM4     H2       HDW      0.557330       1.00800           0   0.00000       0.00000    
     35814 TIP3     1922     SWM4     OH2      ODW       1.71640       15.5994           0 -0.978253       1.30000    
     35815 TIP3     1922     SWM4     DOH2     DOH2     -1.71640      0.400000           0   0.00000       0.00000    
     35816 TIP3     1922     SWM4     OM       LPDW     -1.11466       0.00000          -1   0.00000       0.00000    
     35817 TIP3     1922     SWM4     H1       HDW      0.557330       1.00800           0   0.00000       0.00000    
     35818 TIP3     1922     SWM4     H2       HDW      0.557330       1.00800           0   0.00000       0.00000    
     35819 TIP3     1923     SWM4     OH2      ODW       1.71640       15.5994           0 -0.978253       1.30000    
     35820 TIP3     1923     SWM4     DOH2     DOH2     -1.71640      0.400000           0   0.00000       0.00000    
     35821 TIP3     1923     SWM4     OM       LPDW     -1.11466       0.00000          -1   0.00000       0.00000    
     35822 TIP3     1923     SWM4     H1       HDW      0.557330       1.00800           0   0.00000       0.00000    
     35823 TIP3     1923     SWM4     H2       HDW      0.557330       1.00800           0   0.00000       0.00000    
     35824 TIP3     1924     SWM4     OH2      ODW       1.71640       15.5994           0 -0.978253       1.30000    
     35825 TIP3     1924     SWM4     DOH2     DOH2     -1.71640      0.400000           0   0.00000       0.00000    
     35826 TIP3     1924     SWM4     OM       LPDW     -1.11466       0.00000          -1   0.00000       0.00000    
     35827 TIP3     1924     SWM4     H1       HDW      0.557330       1.00800           0   0.00000       0.00000    
     35828 TIP3     1924     SWM4     H2       HDW      0.557330       1.00800           0   0.00000       0.00000    
     35829 TIP3     1925     SWM4     OH2      ODW       1.71640       15.5994           0 -0.978253       1.30000    
     35830 TIP3     1925     SWM4     DOH2     DOH2     -1.71640      0.400000           0   0.00000       0.00000    
     35831 TIP3     1925     SWM4     OM       LPDW     -1.11466       0.00000          -1   0.00000       0.00000    
     35832 TIP3     1925     SWM4     H1       HDW      0.557330       1.00800           0   0.00000       0.00000    
     35833 TIP3     1925     SWM4     H2       HDW      0.557330       1.00800           0   0.00000       0.00000    
     35834 TIP3     1926     SWM4     OH2      ODW       1.71640       15.5994           0 -0.978253       1.30000    
     35835 TIP3     1926     SWM4     DOH2     DOH2     -1.71640      0.400000           0   0.00000       0.00000    
     35836 TIP3     1926     SWM4     OM       LPDW     -1.11466       0.00000          -1   0.00000       0.00000    
     35837 TIP3     1926     SWM4     H1       HDW      0.557330       1.00800           0   0.00000       0.00000    
     35838 TIP3     1926     SWM4     H2       HDW      0.557330       1.00800           0   0.00000       0.00000    
     35839 TIP3     1927     SWM4     OH2      ODW       1.71640       15.5994           0 -0.978253       1.30000    
     35840 TIP3     1927     SWM4     DOH2     DOH2     -1.71640      0.400000           0   0.00000       0.00000    
     35841 TIP3     1927     SWM4     OM       LPDW     -1.11466       0.00000          -1   0.00000       0.00000    
     35842 TIP3     1927     SWM4     H1       HDW      0.557330       1.00800           0   0.00000       0.00000    
     35843 TIP3     1927     SWM4     H2       HDW      0.557330       1.00800           0   0.00000       0.00000    
     35844 TIP3     1928     SWM4     OH2      ODW       1.71640       15.5994           0 -0.978253       1.30000    
     35845 TIP3     1928     SWM4     DOH2     DOH2     -1.71640      0.400000           0   0.00000       0.00000    
     35846 TIP3     1928     SWM4     OM       LPDW     -1.11466       0.00000          -1   0.00000       0.00000    
     35847 TIP3     1928     SWM4     H1       HDW      0.557330       1.00800           0   0.00000       0.00000    
     35848 TIP3     1928     SWM4     H2       HDW      0.557330       1.00800           0   0.00000       0.00000    
     35849 TIP3     1929     SWM4     OH2      ODW       1.71640       15.5994           0 -0.978253       1.30000    
     35850 TIP3     1929     SWM4     DOH2     DOH2     -1.71640      0.400000           0   0.00000       0.00000    
     35851 TIP3     1929     SWM4     OM       LPDW     -1.11466       0.00000          -1   0.00000       0.00000    
     35852 TIP3     1929     SWM4     H1       HDW      0.557330       1.00800           0   0.00000       0.00000    
     35853 TIP3     1929     SWM4     H2       HDW      0.557330       1.00800           0   0.00000       0.00000    
     35854 TIP3     1930     SWM4     OH2      ODW       1.71640       15.5994           0 -0.978253       1.30000    
     35855 TIP3     1930     SWM4     DOH2     DOH2     -1.71640      0.400000           0   0.00000       0.00000    
     35856 TIP3     1930     SWM4     OM       LPDW     -1.11466       0.00000          -1   0.00000       0.00000    
     35857 TIP3     1930     SWM4     H1       HDW      0.557330       1.00800           0   0.00000       0.00000    
     35858 TIP3     1930     SWM4     H2       HDW      0.557330       1.00800           0   0.00000       0.00000    
     35859 TIP3     1931     SWM4     OH2      ODW       1.71640       15.5994           0 -0.978253       1.30000    
     35860 TIP3     1931     SWM4     DOH2     DOH2     -1.71640      0.400000           0   0.00000       0.00000    
     35861 TIP3     1931     SWM4     OM       LPDW     -1.11466       0.00000          -1   0.00000       0.00000    
     35862 TIP3     1931     SWM4     H1       HDW      0.557330       1.00800           0   0.00000       0.00000    
     35863 TIP3     1931     SWM4     H2       HDW      0.557330       1.00800           0   0.00000       0.00000    
     35864 TIP3     1932     SWM4     OH2      ODW       1.71640       15.5994           0 -0.978253       1.30000    
     35865 TIP3     1932     SWM4     DOH2     DOH2     -1.71640      0.400000           0   0.00000       0.00000    
     35866 TIP3     1932     SWM4     OM       LPDW     -1.11466       0.00000          -1   0.00000       0.00000    
     35867 TIP3     1932     SWM4     H1       HDW      0.557330       1.00800           0   0.00000       0.00000    
     35868 TIP3     1932     SWM4     H2       HDW      0.557330       1.00800           0   0.00000       0.00000    
     35869 TIP3     1933     SWM4     OH2      ODW       1.71640       15.5994           0 -0.978253       1.30000    
     35870 TIP3     1933     SWM4     DOH2     DOH2     -1.71640      0.400000           0   0.00000       0.00000    
     35871 TIP3     1933     SWM4     OM       LPDW     -1.11466       0.00000          -1   0.00000       0.00000    
     35872 TIP3     1933     SWM4     H1       HDW      0.557330       1.00800           0   0.00000       0.00000    
     35873 TIP3     1933     SWM4     H2       HDW      0.557330       1.00800           0   0.00000       0.00000    
     35874 TIP3     1934     SWM4     OH2      ODW       1.71640       15.5994           0 -0.978253       1.30000    
     35875 TIP3     1934     SWM4     DOH2     DOH2     -1.71640      0.400000           0   0.00000       0.00000    
     35876 TIP3     1934     SWM4     OM       LPDW     -1.11466       0.00000          -1   0.00000       0.00000    
     35877 TIP3     1934     SWM4     H1       HDW      0.557330       1.00800           0   0.00000       0.00000    
     35878 TIP3     1934     SWM4     H2       HDW      0.557330       1.00800           0   0.00000       0.00000    
     35879 TIP3     1935     SWM4     OH2      ODW       1.71640       15.5994           0 -0.978253       1.30000    
     35880 TIP3     1935     SWM4     DOH2     DOH2     -1.71640      0.400000           0   0.00000       0.00000    
     35881 TIP3     1935     SWM4     OM       LPDW     -1.11466       0.00000          -1   0.00000       0.00000    
     35882 TIP3     1935     SWM4     H1       HDW      0.557330       1.00800           0   0.00000       0.00000    
     35883 TIP3     1935     SWM4     H2       HDW      0.557330       1.00800           0   0.00000       0.00000    
     35884 TIP3     1936     SWM4     OH2      ODW       1.71640       15.5994           0 -0.978253       1.30000    
     35885 TIP3     1936     SWM4     DOH2     DOH2     -1.71640      0.400000           0   0.00000       0.00000    
     35886 TIP3     1936     SWM4     OM       LPDW     -1.11466       0.00000          -1   0.00000       0.00000    
     35887 TIP3     1936     SWM4     H1       HDW      0.557330       1.00800           0   0.00000       0.00000    
     35888 TIP3     1936     SWM4     H2       HDW      0.557330       1.00800           0   0.00000       0.00000    
     35889 TIP3     1937     SWM4     OH2      ODW       1.71640       15.5994           0 -0.978253       1.30000    
     35890 TIP3     1937     SWM4     DOH2     DOH2     -1.71640      0.400000           0   0.00000       0.00000    
     35891 TIP3     1937     SWM4     OM       LPDW     -1.11466       0.00000          -1   0.00000       0.00000    
     35892 TIP3     1937     SWM4     H1       HDW      0.557330       1.00800           0   0.00000       0.00000    
     35893 TIP3     1937     SWM4     H2       HDW      0.557330       1.00800           0   0.00000       0.00000    
     35894 TIP3     1938     SWM4     OH2      ODW       1.71640       15.5994           0 -0.978253       1.30000    
     35895 TIP3     1938     SWM4     DOH2     DOH2     -1.71640      0.400000           0   0.00000       0.00000    
     35896 TIP3     1938     SWM4     OM       LPDW     -1.11466       0.00000          -1   0.00000       0.00000    
     35897 TIP3     1938     SWM4     H1       HDW      0.557330       1.00800           0   0.00000       0.00000    
     35898 TIP3     1938     SWM4     H2       HDW      0.557330       1.00800           0   0.00000       0.00000    
     35899 TIP3     1939     SWM4     OH2      ODW       1.71640       15.5994           0 -0.978253       1.30000    
     35900 TIP3     1939     SWM4     DOH2     DOH2     -1.71640      0.400000           0   0.00000       0.00000    
     35901 TIP3     1939     SWM4     OM       LPDW     -1.11466       0.00000          -1   0.00000       0.00000    
     35902 TIP3     1939     SWM4     H1       HDW      0.557330       1.00800           0   0.00000       0.00000    
     35903 TIP3     1939     SWM4     H2       HDW      0.557330       1.00800           0   0.00000       0.00000    
     35904 TIP3     1940     SWM4     OH2      ODW       1.71640       15.5994           0 -0.978253       1.30000    
     35905 TIP3     1940     SWM4     DOH2     DOH2     -1.71640      0.400000           0   0.00000       0.00000    
     35906 TIP3     1940     SWM4     OM       LPDW     -1.11466       0.00000          -1   0.00000       0.00000    
     35907 TIP3     1940     SWM4     H1       HDW      0.557330       1.00800           0   0.00000       0.00000    
     35908 TIP3     1940     SWM4     H2       HDW      0.557330       1.00800           0   0.00000       0.00000    
     35909 TIP3     1941     SWM4     OH2      ODW       1.71640       15.5994           0 -0.978253       1.30000    
     35910 TIP3     1941     SWM4     DOH2     DOH2     -1.71640      0.400000           0   0.00000       0.00000    
     35911 TIP3     1941     SWM4     OM       LPDW     -1.11466       0.00000          -1   0.00000       0.00000    
     35912 TIP3     1941     SWM4     H1       HDW      0.557330       1.00800           0   0.00000       0.00000    
     35913 TIP3     1941     SWM4     H2       HDW      0.557330       1.00800           0   0.00000       0.00000    
     35914 TIP3     1942     SWM4     OH2      ODW       1.71640       15.5994           0 -0.978253       1.30000    
     35915 TIP3     1942     SWM4     DOH2     DOH2     -1.71640      0.400000           0   0.00000       0.00000    
     35916 TIP3     1942     SWM4     OM       LPDW     -1.11466       0.00000          -1   0.00000       0.00000    
     35917 TIP3     1942     SWM4     H1       HDW      0.557330       1.00800           0   0.00000       0.00000    
     35918 TIP3     1942     SWM4     H2       HDW      0.557330       1.00800           0   0.00000       0.00000    
     35919 TIP3     1943     SWM4     OH2      ODW       1.71640       15.5994           0 -0.978253       1.30000    
     35920 TIP3     1943     SWM4     DOH2     DOH2     -1.71640      0.400000           0   0.00000       0.00000    
     35921 TIP3     1943     SWM4     OM       LPDW     -1.11466       0.00000          -1   0.00000       0.00000    
     35922 TIP3     1943     SWM4     H1       HDW      0.557330       1.00800           0   0.00000       0.00000    
     35923 TIP3     1943     SWM4     H2       HDW      0.557330       1.00800           0   0.00000       0.00000    
     35924 TIP3     1944     SWM4     OH2      ODW       1.71640       15.5994           0 -0.978253       1.30000    
     35925 TIP3     1944     SWM4     DOH2     DOH2     -1.71640      0.400000           0   0.00000       0.00000    
     35926 TIP3     1944     SWM4     OM       LPDW     -1.11466       0.00000          -1   0.00000       0.00000    
     35927 TIP3     1944     SWM4     H1       HDW      0.557330       1.00800           0   0.00000       0.00000    
     35928 TIP3     1944     SWM4     H2       HDW      0.557330       1.00800           0   0.00000       0.00000    
     35929 TIP3     1945     SWM4     OH2      ODW       1.71640       15.5994           0 -0.978253       1.30000    
     35930 TIP3     1945     SWM4     DOH2     DOH2     -1.71640      0.400000           0   0.00000       0.00000    
     35931 TIP3     1945     SWM4     OM       LPDW     -1.11466       0.00000          -1   0.00000       0.00000    
     35932 TIP3     1945     SWM4     H1       HDW      0.557330       1.00800           0   0.00000       0.00000    
     35933 TIP3     1945     SWM4     H2       HDW      0.557330       1.00800           0   0.00000       0.00000    
     35934 TIP3     1946     SWM4     OH2      ODW       1.71640       15.5994           0 -0.978253       1.30000    
     35935 TIP3     1946     SWM4     DOH2     DOH2     -1.71640      0.400000           0   0.00000       0.00000    
     35936 TIP3     1946     SWM4     OM       LPDW     -1.11466       0.00000          -1   0.00000       0.00000    
     35937 TIP3     1946     SWM4     H1       HDW      0.557330       1.00800           0   0.00000       0.00000    
     35938 TIP3     1946     SWM4     H2       HDW      0.557330       1.00800           0   0.00000       0.00000    
     35939 TIP3     1947     SWM4     OH2      ODW       1.71640       15.5994           0 -0.978253       1.30000    
     35940 TIP3     1947     SWM4     DOH2     DOH2     -1.71640      0.400000           0   0.00000       0.00000    
     35941 TIP3     1947     SWM4     OM       LPDW     -1.11466       0.00000          -1   0.00000       0.00000    
     35942 TIP3     1947     SWM4     H1       HDW      0.557330       1.00800           0   0.00000       0.00000    
     35943 TIP3     1947     SWM4     H2       HDW      0.557330       1.00800           0   0.00000       0.00000    
     35944 TIP3     1948     SWM4     OH2      ODW       1.71640       15.5994           0 -0.978253       1.30000    
     35945 TIP3     1948     SWM4     DOH2     DOH2     -1.71640      0.400000           0   0.00000       0.00000    
     35946 TIP3     1948     SWM4     OM       LPDW     -1.11466       0.00000          -1   0.00000       0.00000    
     35947 TIP3     1948     SWM4     H1       HDW      0.557330       1.00800           0   0.00000       0.00000    
     35948 TIP3     1948     SWM4     H2       HDW      0.557330       1.00800           0   0.00000       0.00000    
     35949 TIP3     1949     SWM4     OH2      ODW       1.71640       15.5994           0 -0.978253       1.30000    
     35950 TIP3     1949     SWM4     DOH2     DOH2     -1.71640      0.400000           0   0.00000       0.00000    
     35951 TIP3     1949     SWM4     OM       LPDW     -1.11466       0.00000          -1   0.00000       0.00000    
     35952 TIP3     1949     SWM4     H1       HDW      0.557330       1.00800           0   0.00000       0.00000    
     35953 TIP3     1949     SWM4     H2       HDW      0.557330       1.00800           0   0.00000       0.00000    
     35954 TIP3     1950     SWM4     OH2      ODW       1.71640       15.5994           0 -0.978253       1.30000    
     35955 TIP3     1950     SWM4     DOH2     DOH2     -1.71640      0.400000           0   0.00000       0.00000    
     35956 TIP3     1950     SWM4     OM       LPDW     -1.11466       0.00000          -1   0.00000       0.00000    
     35957 TIP3     1950     SWM4     H1       HDW      0.557330       1.00800           0   0.00000       0.00000    
     35958 TIP3     1950     SWM4     H2       HDW      0.557330       1.00800           0   0.00000       0.00000    
     35959 TIP3     1951     SWM4     OH2      ODW       1.71640       15.5994           0 -0.978253       1.30000    
     35960 TIP3     1951     SWM4     DOH2     DOH2     -1.71640      0.400000           0   0.00000       0.00000    
     35961 TIP3     1951     SWM4     OM       LPDW     -1.11466       0.00000          -1   0.00000       0.00000    
     35962 TIP3     1951     SWM4     H1       HDW      0.557330       1.00800           0   0.00000       0.00000    
     35963 TIP3     1951     SWM4     H2       HDW      0.557330       1.00800           0   0.00000       0.00000    
     35964 TIP3     1952     SWM4     OH2      ODW       1.71640       15.5994           0 -0.978253       1.30000    
     35965 TIP3     1952     SWM4     DOH2     DOH2     -1.71640      0.400000           0   0.00000       0.00000    
     35966 TIP3     1952     SWM4     OM       LPDW     -1.11466       0.00000          -1   0.00000       0.00000    
     35967 TIP3     1952     SWM4     H1       HDW      0.557330       1.00800           0   0.00000       0.00000    
     35968 TIP3     1952     SWM4     H2       HDW      0.557330       1.00800           0   0.00000       0.00000    
     35969 TIP3     1953     SWM4     OH2      ODW       1.71640       15.5994           0 -0.978253       1.30000    
     35970 TIP3     1953     SWM4     DOH2     DOH2     -1.71640      0.400000           0   0.00000       0.00000    
     35971 TIP3     1953     SWM4     OM       LPDW     -1.11466       0.00000          -1   0.00000       0.00000    
     35972 TIP3     1953     SWM4     H1       HDW      0.557330       1.00800           0   0.00000       0.00000    
     35973 TIP3     1953     SWM4     H2       HDW      0.557330       1.00800           0   0.00000       0.00000    
     35974 TIP3     1954     SWM4     OH2      ODW       1.71640       15.5994           0 -0.978253       1.30000    
     35975 TIP3     1954     SWM4     DOH2     DOH2     -1.71640      0.400000           0   0.00000       0.00000    
     35976 TIP3     1954     SWM4     OM       LPDW     -1.11466       0.00000          -1   0.00000       0.00000    
     35977 TIP3     1954     SWM4     H1       HDW      0.557330       1.00800           0   0.00000       0.00000    
     35978 TIP3     1954     SWM4     H2       HDW      0.557330       1.00800           0   0.00000       0.00000    
     35979 TIP3     1955     SWM4     OH2      ODW       1.71640       15.5994           0 -0.978253       1.30000    
     35980 TIP3     1955     SWM4     DOH2     DOH2     -1.71640      0.400000           0   0.00000       0.00000    
     35981 TIP3     1955     SWM4     OM       LPDW     -1.11466       0.00000          -1   0.00000       0.00000    
     35982 TIP3     1955     SWM4     H1       HDW      0.557330       1.00800           0   0.00000       0.00000    
     35983 TIP3     1955     SWM4     H2       HDW      0.557330       1.00800           0   0.00000       0.00000    
     35984 TIP3     1956     SWM4     OH2      ODW       1.71640       15.5994           0 -0.978253       1.30000    
     35985 TIP3     1956     SWM4     DOH2     DOH2     -1.71640      0.400000           0   0.00000       0.00000    
     35986 TIP3     1956     SWM4     OM       LPDW     -1.11466       0.00000          -1   0.00000       0.00000    
     35987 TIP3     1956     SWM4     H1       HDW      0.557330       1.00800           0   0.00000       0.00000    
     35988 TIP3     1956     SWM4     H2       HDW      0.557330       1.00800           0   0.00000       0.00000    
     35989 TIP3     1957     SWM4     OH2      ODW       1.71640       15.5994           0 -0.978253       1.30000    
     35990 TIP3     1957     SWM4     DOH2     DOH2     -1.71640      0.400000           0   0.00000       0.00000    
     35991 TIP3     1957     SWM4     OM       LPDW     -1.11466       0.00000          -1   0.00000       0.00000    
     35992 TIP3     1957     SWM4     H1       HDW      0.557330       1.00800           0   0.00000       0.00000    
     35993 TIP3     1957     SWM4     H2       HDW      0.557330       1.00800           0   0.00000       0.00000    
     35994 TIP3     1958     SWM4     OH2      ODW       1.71640       15.5994           0 -0.978253       1.30000    
     35995 TIP3     1958     SWM4     DOH2     DOH2     -1.71640      0.400000           0   0.00000       0.00000    
     35996 TIP3     1958     SWM4     OM       LPDW     -1.11466       0.00000          -1   0.00000       0.00000    
     35997 TIP3     1958     SWM4     H1       HDW      0.557330       1.00800           0   0.00000       0.00000    
     35998 TIP3     1958     SWM4     H2       HDW      0.557330       1.00800           0   0.00000       0.00000    
     35999 TIP3     1959     SWM4     OH2      ODW       1.71640       15.5994           0 -0.978253       1.30000    
     36000 TIP3     1959     SWM4     DOH2     DOH2     -1.71640      0.400000           0   0.00000       0.00000    
     36001 TIP3     1959     SWM4     OM       LPDW     -1.11466       0.00000          -1   0.00000       0.00000    
     36002 TIP3     1959     SWM4     H1       HDW      0.557330       1.00800           0   0.00000       0.00000    
     36003 TIP3     1959     SWM4     H2       HDW      0.557330       1.00800           0   0.00000       0.00000    
     36004 TIP3     1960     SWM4     OH2      ODW       1.71640       15.5994           0 -0.978253       1.30000    
     36005 TIP3     1960     SWM4     DOH2     DOH2     -1.71640      0.400000           0   0.00000       0.00000    
     36006 TIP3     1960     SWM4     OM       LPDW     -1.11466       0.00000          -1   0.00000       0.00000    
     36007 TIP3     1960     SWM4     H1       HDW      0.557330       1.00800           0   0.00000       0.00000    
     36008 TIP3     1960     SWM4     H2       HDW      0.557330       1.00800           0   0.00000       0.00000    
     36009 TIP3     1961     SWM4     OH2      ODW       1.71640       15.5994           0 -0.978253       1.30000    
     36010 TIP3     1961     SWM4     DOH2     DOH2     -1.71640      0.400000           0   0.00000       0.00000    
     36011 TIP3     1961     SWM4     OM       LPDW     -1.11466       0.00000          -1   0.00000       0.00000    
     36012 TIP3     1961     SWM4     H1       HDW      0.557330       1.00800           0   0.00000       0.00000    
     36013 TIP3     1961     SWM4     H2       HDW      0.557330       1.00800           0   0.00000       0.00000    
     36014 TIP3     1962     SWM4     OH2      ODW       1.71640       15.5994           0 -0.978253       1.30000    
     36015 TIP3     1962     SWM4     DOH2     DOH2     -1.71640      0.400000           0   0.00000       0.00000    
     36016 TIP3     1962     SWM4     OM       LPDW     -1.11466       0.00000          -1   0.00000       0.00000    
     36017 TIP3     1962     SWM4     H1       HDW      0.557330       1.00800           0   0.00000       0.00000    
     36018 TIP3     1962     SWM4     H2       HDW      0.557330       1.00800           0   0.00000       0.00000    
     36019 TIP3     1963     SWM4     OH2      ODW       1.71640       15.5994           0 -0.978253       1.30000    
     36020 TIP3     1963     SWM4     DOH2     DOH2     -1.71640      0.400000           0   0.00000       0.00000    
     36021 TIP3     1963     SWM4     OM       LPDW     -1.11466       0.00000          -1   0.00000       0.00000    
     36022 TIP3     1963     SWM4     H1       HDW      0.557330       1.00800           0   0.00000       0.00000    
     36023 TIP3     1963     SWM4     H2       HDW      0.557330       1.00800           0   0.00000       0.00000    
     36024 TIP3     1964     SWM4     OH2      ODW       1.71640       15.5994           0 -0.978253       1.30000    
     36025 TIP3     1964     SWM4     DOH2     DOH2     -1.71640      0.400000           0   0.00000       0.00000    
     36026 TIP3     1964     SWM4     OM       LPDW     -1.11466       0.00000          -1   0.00000       0.00000    
     36027 TIP3     1964     SWM4     H1       HDW      0.557330       1.00800           0   0.00000       0.00000    
     36028 TIP3     1964     SWM4     H2       HDW      0.557330       1.00800           0   0.00000       0.00000    
     36029 TIP3     1965     SWM4     OH2      ODW       1.71640       15.5994           0 -0.978253       1.30000    
     36030 TIP3     1965     SWM4     DOH2     DOH2     -1.71640      0.400000           0   0.00000       0.00000    
     36031 TIP3     1965     SWM4     OM       LPDW     -1.11466       0.00000          -1   0.00000       0.00000    
     36032 TIP3     1965     SWM4     H1       HDW      0.557330       1.00800           0   0.00000       0.00000    
     36033 TIP3     1965     SWM4     H2       HDW      0.557330       1.00800           0   0.00000       0.00000    
     36034 TIP3     1966     SWM4     OH2      ODW       1.71640       15.5994           0 -0.978253       1.30000    
     36035 TIP3     1966     SWM4     DOH2     DOH2     -1.71640      0.400000           0   0.00000       0.00000    
     36036 TIP3     1966     SWM4     OM       LPDW     -1.11466       0.00000          -1   0.00000       0.00000    
     36037 TIP3     1966     SWM4     H1       HDW      0.557330       1.00800           0   0.00000       0.00000    
     36038 TIP3     1966     SWM4     H2       HDW      0.557330       1.00800           0   0.00000       0.00000    
     36039 TIP3     1967     SWM4     OH2      ODW       1.71640       15.5994           0 -0.978253       1.30000    
     36040 TIP3     1967     SWM4     DOH2     DOH2     -1.71640      0.400000           0   0.00000       0.00000    
     36041 TIP3     1967     SWM4     OM       LPDW     -1.11466       0.00000          -1   0.00000       0.00000    
     36042 TIP3     1967     SWM4     H1       HDW      0.557330       1.00800           0   0.00000       0.00000    
     36043 TIP3     1967     SWM4     H2       HDW      0.557330       1.00800           0   0.00000       0.00000    
     36044 TIP3     1968     SWM4     OH2      ODW       1.71640       15.5994           0 -0.978253       1.30000    
     36045 TIP3     1968     SWM4     DOH2     DOH2     -1.71640      0.400000           0   0.00000       0.00000    
     36046 TIP3     1968     SWM4     OM       LPDW     -1.11466       0.00000          -1   0.00000       0.00000    
     36047 TIP3     1968     SWM4     H1       HDW      0.557330       1.00800           0   0.00000       0.00000    
     36048 TIP3     1968     SWM4     H2       HDW      0.557330       1.00800           0   0.00000       0.00000    
     36049 TIP3     1969     SWM4     OH2      ODW       1.71640       15.5994           0 -0.978253       1.30000    
     36050 TIP3     1969     SWM4     DOH2     DOH2     -1.71640      0.400000           0   0.00000       0.00000    
     36051 TIP3     1969     SWM4     OM       LPDW     -1.11466       0.00000          -1   0.00000       0.00000    
     36052 TIP3     1969     SWM4     H1       HDW      0.557330       1.00800           0   0.00000       0.00000    
     36053 TIP3     1969     SWM4     H2       HDW      0.557330       1.00800           0   0.00000       0.00000    
     36054 TIP3     1970     SWM4     OH2      ODW       1.71640       15.5994           0 -0.978253       1.30000    
     36055 TIP3     1970     SWM4     DOH2     DOH2     -1.71640      0.400000           0   0.00000       0.00000    
     36056 TIP3     1970     SWM4     OM       LPDW     -1.11466       0.00000          -1   0.00000       0.00000    
     36057 TIP3     1970     SWM4     H1       HDW      0.557330       1.00800           0   0.00000       0.00000    
     36058 TIP3     1970     SWM4     H2       HDW      0.557330       1.00800           0   0.00000       0.00000    
     36059 TIP3     1971     SWM4     OH2      ODW       1.71640       15.5994           0 -0.978253       1.30000    
     36060 TIP3     1971     SWM4     DOH2     DOH2     -1.71640      0.400000           0   0.00000       0.00000    
     36061 TIP3     1971     SWM4     OM       LPDW     -1.11466       0.00000          -1   0.00000       0.00000    
     36062 TIP3     1971     SWM4     H1       HDW      0.557330       1.00800           0   0.00000       0.00000    
     36063 TIP3     1971     SWM4     H2       HDW      0.557330       1.00800           0   0.00000       0.00000    
     36064 TIP3     1972     SWM4     OH2      ODW       1.71640       15.5994           0 -0.978253       1.30000    
     36065 TIP3     1972     SWM4     DOH2     DOH2     -1.71640      0.400000           0   0.00000       0.00000    
     36066 TIP3     1972     SWM4     OM       LPDW     -1.11466       0.00000          -1   0.00000       0.00000    
     36067 TIP3     1972     SWM4     H1       HDW      0.557330       1.00800           0   0.00000       0.00000    
     36068 TIP3     1972     SWM4     H2       HDW      0.557330       1.00800           0   0.00000       0.00000    
     36069 TIP3     1973     SWM4     OH2      ODW       1.71640       15.5994           0 -0.978253       1.30000    
     36070 TIP3     1973     SWM4     DOH2     DOH2     -1.71640      0.400000           0   0.00000       0.00000    
     36071 TIP3     1973     SWM4     OM       LPDW     -1.11466       0.00000          -1   0.00000       0.00000    
     36072 TIP3     1973     SWM4     H1       HDW      0.557330       1.00800           0   0.00000       0.00000    
     36073 TIP3     1973     SWM4     H2       HDW      0.557330       1.00800           0   0.00000       0.00000    
     36074 TIP3     1974     SWM4     OH2      ODW       1.71640       15.5994           0 -0.978253       1.30000    
     36075 TIP3     1974     SWM4     DOH2     DOH2     -1.71640      0.400000           0   0.00000       0.00000    
     36076 TIP3     1974     SWM4     OM       LPDW     -1.11466       0.00000          -1   0.00000       0.00000    
     36077 TIP3     1974     SWM4     H1       HDW      0.557330       1.00800           0   0.00000       0.00000    
     36078 TIP3     1974     SWM4     H2       HDW      0.557330       1.00800           0   0.00000       0.00000    
     36079 TIP3     1975     SWM4     OH2      ODW       1.71640       15.5994           0 -0.978253       1.30000    
     36080 TIP3     1975     SWM4     DOH2     DOH2     -1.71640      0.400000           0   0.00000       0.00000    
     36081 TIP3     1975     SWM4     OM       LPDW     -1.11466       0.00000          -1   0.00000       0.00000    
     36082 TIP3     1975     SWM4     H1       HDW      0.557330       1.00800           0   0.00000       0.00000    
     36083 TIP3     1975     SWM4     H2       HDW      0.557330       1.00800           0   0.00000       0.00000    
     36084 TIP3     1976     SWM4     OH2      ODW       1.71640       15.5994           0 -0.978253       1.30000    
     36085 TIP3     1976     SWM4     DOH2     DOH2     -1.71640      0.400000           0   0.00000       0.00000    
     36086 TIP3     1976     SWM4     OM       LPDW     -1.11466       0.00000          -1   0.00000       0.00000    
     36087 TIP3     1976     SWM4     H1       HDW      0.557330       1.00800           0   0.00000       0.00000    
     36088 TIP3     1976     SWM4     H2       HDW      0.557330       1.00800           0   0.00000       0.00000    
     36089 TIP3     1977     SWM4     OH2      ODW       1.71640       15.5994           0 -0.978253       1.30000    
     36090 TIP3     1977     SWM4     DOH2     DOH2     -1.71640      0.400000           0   0.00000       0.00000    
     36091 TIP3     1977     SWM4     OM       LPDW     -1.11466       0.00000          -1   0.00000       0.00000    
     36092 TIP3     1977     SWM4     H1       HDW      0.557330       1.00800           0   0.00000       0.00000    
     36093 TIP3     1977     SWM4     H2       HDW      0.557330       1.00800           0   0.00000       0.00000    
     36094 TIP3     1978     SWM4     OH2      ODW       1.71640       15.5994           0 -0.978253       1.30000    
     36095 TIP3     1978     SWM4     DOH2     DOH2     -1.71640      0.400000           0   0.00000       0.00000    
     36096 TIP3     1978     SWM4     OM       LPDW     -1.11466       0.00000          -1   0.00000       0.00000    
     36097 TIP3     1978     SWM4     H1       HDW      0.557330       1.00800           0   0.00000       0.00000    
     36098 TIP3     1978     SWM4     H2       HDW      0.557330       1.00800           0   0.00000       0.00000    
     36099 TIP3     1979     SWM4     OH2      ODW       1.71640       15.5994           0 -0.978253       1.30000    
     36100 TIP3     1979     SWM4     DOH2     DOH2     -1.71640      0.400000           0   0.00000       0.00000    
     36101 TIP3     1979     SWM4     OM       LPDW     -1.11466       0.00000          -1   0.00000       0.00000    
     36102 TIP3     1979     SWM4     H1       HDW      0.557330       1.00800           0   0.00000       0.00000    
     36103 TIP3     1979     SWM4     H2       HDW      0.557330       1.00800           0   0.00000       0.00000    
     36104 TIP3     1980     SWM4     OH2      ODW       1.71640       15.5994           0 -0.978253       1.30000    
     36105 TIP3     1980     SWM4     DOH2     DOH2     -1.71640      0.400000           0   0.00000       0.00000    
     36106 TIP3     1980     SWM4     OM       LPDW     -1.11466       0.00000          -1   0.00000       0.00000    
     36107 TIP3     1980     SWM4     H1       HDW      0.557330       1.00800           0   0.00000       0.00000    
     36108 TIP3     1980     SWM4     H2       HDW      0.557330       1.00800           0   0.00000       0.00000    
     36109 TIP3     1981     SWM4     OH2      ODW       1.71640       15.5994           0 -0.978253       1.30000    
     36110 TIP3     1981     SWM4     DOH2     DOH2     -1.71640      0.400000           0   0.00000       0.00000    
     36111 TIP3     1981     SWM4     OM       LPDW     -1.11466       0.00000          -1   0.00000       0.00000    
     36112 TIP3     1981     SWM4     H1       HDW      0.557330       1.00800           0   0.00000       0.00000    
     36113 TIP3     1981     SWM4     H2       HDW      0.557330       1.00800           0   0.00000       0.00000    
     36114 TIP3     1982     SWM4     OH2      ODW       1.71640       15.5994           0 -0.978253       1.30000    
     36115 TIP3     1982     SWM4     DOH2     DOH2     -1.71640      0.400000           0   0.00000       0.00000    
     36116 TIP3     1982     SWM4     OM       LPDW     -1.11466       0.00000          -1   0.00000       0.00000    
     36117 TIP3     1982     SWM4     H1       HDW      0.557330       1.00800           0   0.00000       0.00000    
     36118 TIP3     1982     SWM4     H2       HDW      0.557330       1.00800           0   0.00000       0.00000    
     36119 TIP3     1983     SWM4     OH2      ODW       1.71640       15.5994           0 -0.978253       1.30000    
     36120 TIP3     1983     SWM4     DOH2     DOH2     -1.71640      0.400000           0   0.00000       0.00000    
     36121 TIP3     1983     SWM4     OM       LPDW     -1.11466       0.00000          -1   0.00000       0.00000    
     36122 TIP3     1983     SWM4     H1       HDW      0.557330       1.00800           0   0.00000       0.00000    
     36123 TIP3     1983     SWM4     H2       HDW      0.557330       1.00800           0   0.00000       0.00000    
     36124 TIP3     1984     SWM4     OH2      ODW       1.71640       15.5994           0 -0.978253       1.30000    
     36125 TIP3     1984     SWM4     DOH2     DOH2     -1.71640      0.400000           0   0.00000       0.00000    
     36126 TIP3     1984     SWM4     OM       LPDW     -1.11466       0.00000          -1   0.00000       0.00000    
     36127 TIP3     1984     SWM4     H1       HDW      0.557330       1.00800           0   0.00000       0.00000    
     36128 TIP3     1984     SWM4     H2       HDW      0.557330       1.00800           0   0.00000       0.00000    
     36129 TIP3     1985     SWM4     OH2      ODW       1.71640       15.5994           0 -0.978253       1.30000    
     36130 TIP3     1985     SWM4     DOH2     DOH2     -1.71640      0.400000           0   0.00000       0.00000    
     36131 TIP3     1985     SWM4     OM       LPDW     -1.11466       0.00000          -1   0.00000       0.00000    
     36132 TIP3     1985     SWM4     H1       HDW      0.557330       1.00800           0   0.00000       0.00000    
     36133 TIP3     1985     SWM4     H2       HDW      0.557330       1.00800           0   0.00000       0.00000    
     36134 TIP3     1986     SWM4     OH2      ODW       1.71640       15.5994           0 -0.978253       1.30000    
     36135 TIP3     1986     SWM4     DOH2     DOH2     -1.71640      0.400000           0   0.00000       0.00000    
     36136 TIP3     1986     SWM4     OM       LPDW     -1.11466       0.00000          -1   0.00000       0.00000    
     36137 TIP3     1986     SWM4     H1       HDW      0.557330       1.00800           0   0.00000       0.00000    
     36138 TIP3     1986     SWM4     H2       HDW      0.557330       1.00800           0   0.00000       0.00000    
     36139 TIP3     1987     SWM4     OH2      ODW       1.71640       15.5994           0 -0.978253       1.30000    
     36140 TIP3     1987     SWM4     DOH2     DOH2     -1.71640      0.400000           0   0.00000       0.00000    
     36141 TIP3     1987     SWM4     OM       LPDW     -1.11466       0.00000          -1   0.00000       0.00000    
     36142 TIP3     1987     SWM4     H1       HDW      0.557330       1.00800           0   0.00000       0.00000    
     36143 TIP3     1987     SWM4     H2       HDW      0.557330       1.00800           0   0.00000       0.00000    
     36144 TIP3     1988     SWM4     OH2      ODW       1.71640       15.5994           0 -0.978253       1.30000    
     36145 TIP3     1988     SWM4     DOH2     DOH2     -1.71640      0.400000           0   0.00000       0.00000    
     36146 TIP3     1988     SWM4     OM       LPDW     -1.11466       0.00000          -1   0.00000       0.00000    
     36147 TIP3     1988     SWM4     H1       HDW      0.557330       1.00800           0   0.00000       0.00000    
     36148 TIP3     1988     SWM4     H2       HDW      0.557330       1.00800           0   0.00000       0.00000    
     36149 TIP3     1989     SWM4     OH2      ODW       1.71640       15.5994           0 -0.978253       1.30000    
     36150 TIP3     1989     SWM4     DOH2     DOH2     -1.71640      0.400000           0   0.00000       0.00000    
     36151 TIP3     1989     SWM4     OM       LPDW     -1.11466       0.00000          -1   0.00000       0.00000    
     36152 TIP3     1989     SWM4     H1       HDW      0.557330       1.00800           0   0.00000       0.00000    
     36153 TIP3     1989     SWM4     H2       HDW      0.557330       1.00800           0   0.00000       0.00000    
     36154 TIP3     1990     SWM4     OH2      ODW       1.71640       15.5994           0 -0.978253       1.30000    
     36155 TIP3     1990     SWM4     DOH2     DOH2     -1.71640      0.400000           0   0.00000       0.00000    
     36156 TIP3     1990     SWM4     OM       LPDW     -1.11466       0.00000          -1   0.00000       0.00000    
     36157 TIP3     1990     SWM4     H1       HDW      0.557330       1.00800           0   0.00000       0.00000    
     36158 TIP3     1990     SWM4     H2       HDW      0.557330       1.00800           0   0.00000       0.00000    
     36159 TIP3     1991     SWM4     OH2      ODW       1.71640       15.5994           0 -0.978253       1.30000    
     36160 TIP3     1991     SWM4     DOH2     DOH2     -1.71640      0.400000           0   0.00000       0.00000    
     36161 TIP3     1991     SWM4     OM       LPDW     -1.11466       0.00000          -1   0.00000       0.00000    
     36162 TIP3     1991     SWM4     H1       HDW      0.557330       1.00800           0   0.00000       0.00000    
     36163 TIP3     1991     SWM4     H2       HDW      0.557330       1.00800           0   0.00000       0.00000    
     36164 TIP3     1992     SWM4     OH2      ODW       1.71640       15.5994           0 -0.978253       1.30000    
     36165 TIP3     1992     SWM4     DOH2     DOH2     -1.71640      0.400000           0   0.00000       0.00000    
     36166 TIP3     1992     SWM4     OM       LPDW     -1.11466       0.00000          -1   0.00000       0.00000    
     36167 TIP3     1992     SWM4     H1       HDW      0.557330       1.00800           0   0.00000       0.00000    
     36168 TIP3     1992     SWM4     H2       HDW      0.557330       1.00800           0   0.00000       0.00000    
     36169 TIP3     1993     SWM4     OH2      ODW       1.71640       15.5994           0 -0.978253       1.30000    
     36170 TIP3     1993     SWM4     DOH2     DOH2     -1.71640      0.400000           0   0.00000       0.00000    
     36171 TIP3     1993     SWM4     OM       LPDW     -1.11466       0.00000          -1   0.00000       0.00000    
     36172 TIP3     1993     SWM4     H1       HDW      0.557330       1.00800           0   0.00000       0.00000    
     36173 TIP3     1993     SWM4     H2       HDW      0.557330       1.00800           0   0.00000       0.00000    
     36174 TIP3     1994     SWM4     OH2      ODW       1.71640       15.5994           0 -0.978253       1.30000    
     36175 TIP3     1994     SWM4     DOH2     DOH2     -1.71640      0.400000           0   0.00000       0.00000    
     36176 TIP3     1994     SWM4     OM       LPDW     -1.11466       0.00000          -1   0.00000       0.00000    
     36177 TIP3     1994     SWM4     H1       HDW      0.557330       1.00800           0   0.00000       0.00000    
     36178 TIP3     1994     SWM4     H2       HDW      0.557330       1.00800           0   0.00000       0.00000    
     36179 TIP3     1995     SWM4     OH2      ODW       1.71640       15.5994           0 -0.978253       1.30000    
     36180 TIP3     1995     SWM4     DOH2     DOH2     -1.71640      0.400000           0   0.00000       0.00000    
     36181 TIP3     1995     SWM4     OM       LPDW     -1.11466       0.00000          -1   0.00000       0.00000    
     36182 TIP3     1995     SWM4     H1       HDW      0.557330       1.00800           0   0.00000       0.00000    
     36183 TIP3     1995     SWM4     H2       HDW      0.557330       1.00800           0   0.00000       0.00000    
     36184 TIP3     1996     SWM4     OH2      ODW       1.71640       15.5994           0 -0.978253       1.30000    
     36185 TIP3     1996     SWM4     DOH2     DOH2     -1.71640      0.400000           0   0.00000       0.00000    
     36186 TIP3     1996     SWM4     OM       LPDW     -1.11466       0.00000          -1   0.00000       0.00000    
     36187 TIP3     1996     SWM4     H1       HDW      0.557330       1.00800           0   0.00000       0.00000    
     36188 TIP3     1996     SWM4     H2       HDW      0.557330       1.00800           0   0.00000       0.00000    
     36189 TIP3     1997     SWM4     OH2      ODW       1.71640       15.5994           0 -0.978253       1.30000    
     36190 TIP3     1997     SWM4     DOH2     DOH2     -1.71640      0.400000           0   0.00000       0.00000    
     36191 TIP3     1997     SWM4     OM       LPDW     -1.11466       0.00000          -1   0.00000       0.00000    
     36192 TIP3     1997     SWM4     H1       HDW      0.557330       1.00800           0   0.00000       0.00000    
     36193 TIP3     1997     SWM4     H2       HDW      0.557330       1.00800           0   0.00000       0.00000    
     36194 TIP3     1998     SWM4     OH2      ODW       1.71640       15.5994           0 -0.978253       1.30000    
     36195 TIP3     1998     SWM4     DOH2     DOH2     -1.71640      0.400000           0   0.00000       0.00000    
     36196 TIP3     1998     SWM4     OM       LPDW     -1.11466       0.00000          -1   0.00000       0.00000    
     36197 TIP3     1998     SWM4     H1       HDW      0.557330       1.00800           0   0.00000       0.00000    
     36198 TIP3     1998     SWM4     H2       HDW      0.557330       1.00800           0   0.00000       0.00000    
     36199 TIP3     1999     SWM4     OH2      ODW       1.71640       15.5994           0 -0.978253       1.30000    
     36200 TIP3     1999     SWM4     DOH2     DOH2     -1.71640      0.400000           0   0.00000       0.00000    
     36201 TIP3     1999     SWM4     OM       LPDW     -1.11466       0.00000          -1   0.00000       0.00000    
     36202 TIP3     1999     SWM4     H1       HDW      0.557330       1.00800           0   0.00000       0.00000    
     36203 TIP3     1999     SWM4     H2       HDW      0.557330       1.00800           0   0.00000       0.00000    
     36204 TIP3     2000     SWM4     OH2      ODW       1.71640       15.5994           0 -0.978253       1.30000    
     36205 TIP3     2000     SWM4     DOH2     DOH2     -1.71640      0.400000           0   0.00000       0.00000    
     36206 TIP3     2000     SWM4     OM       LPDW     -1.11466       0.00000          -1   0.00000       0.00000    
     36207 TIP3     2000     SWM4     H1       HDW      0.557330       1.00800           0   0.00000       0.00000    
     36208 TIP3     2000     SWM4     H2       HDW      0.557330       1.00800           0   0.00000       0.00000    
     36209 TIP3     2001     SWM4     OH2      ODW       1.71640       15.5994           0 -0.978253       1.30000    
     36210 TIP3     2001     SWM4     DOH2     DOH2     -1.71640      0.400000           0   0.00000       0.00000    
     36211 TIP3     2001     SWM4     OM       LPDW     -1.11466       0.00000          -1   0.00000       0.00000    
     36212 TIP3     2001     SWM4     H1       HDW      0.557330       1.00800           0   0.00000       0.00000    
     36213 TIP3     2001     SWM4     H2       HDW      0.557330       1.00800           0   0.00000       0.00000    
     36214 TIP3     2002     SWM4     OH2      ODW       1.71640       15.5994           0 -0.978253       1.30000    
     36215 TIP3     2002     SWM4     DOH2     DOH2     -1.71640      0.400000           0   0.00000       0.00000    
     36216 TIP3     2002     SWM4     OM       LPDW     -1.11466       0.00000          -1   0.00000       0.00000    
     36217 TIP3     2002     SWM4     H1       HDW      0.557330       1.00800           0   0.00000       0.00000    
     36218 TIP3     2002     SWM4     H2       HDW      0.557330       1.00800           0   0.00000       0.00000    
     36219 TIP3     2003     SWM4     OH2      ODW       1.71640       15.5994           0 -0.978253       1.30000    
     36220 TIP3     2003     SWM4     DOH2     DOH2     -1.71640      0.400000           0   0.00000       0.00000    
     36221 TIP3     2003     SWM4     OM       LPDW     -1.11466       0.00000          -1   0.00000       0.00000    
     36222 TIP3     2003     SWM4     H1       HDW      0.557330       1.00800           0   0.00000       0.00000    
     36223 TIP3     2003     SWM4     H2       HDW      0.557330       1.00800           0   0.00000       0.00000    
     36224 TIP3     2004     SWM4     OH2      ODW       1.71640       15.5994           0 -0.978253       1.30000    
     36225 TIP3     2004     SWM4     DOH2     DOH2     -1.71640      0.400000           0   0.00000       0.00000    
     36226 TIP3     2004     SWM4     OM       LPDW     -1.11466       0.00000          -1   0.00000       0.00000    
     36227 TIP3     2004     SWM4     H1       HDW      0.557330       1.00800           0   0.00000       0.00000    
     36228 TIP3     2004     SWM4     H2       HDW      0.557330       1.00800           0   0.00000       0.00000    
     36229 TIP3     2005     SWM4     OH2      ODW       1.71640       15.5994           0 -0.978253       1.30000    
     36230 TIP3     2005     SWM4     DOH2     DOH2     -1.71640      0.400000           0   0.00000       0.00000    
     36231 TIP3     2005     SWM4     OM       LPDW     -1.11466       0.00000          -1   0.00000       0.00000    
     36232 TIP3     2005     SWM4     H1       HDW      0.557330       1.00800           0   0.00000       0.00000    
     36233 TIP3     2005     SWM4     H2       HDW      0.557330       1.00800           0   0.00000       0.00000    
     36234 TIP3     2006     SWM4     OH2      ODW       1.71640       15.5994           0 -0.978253       1.30000    
     36235 TIP3     2006     SWM4     DOH2     DOH2     -1.71640      0.400000           0   0.00000       0.00000    
     36236 TIP3     2006     SWM4     OM       LPDW     -1.11466       0.00000          -1   0.00000       0.00000    
     36237 TIP3     2006     SWM4     H1       HDW      0.557330       1.00800           0   0.00000       0.00000    
     36238 TIP3     2006     SWM4     H2       HDW      0.557330       1.00800           0   0.00000       0.00000    
     36239 TIP3     2007     SWM4     OH2      ODW       1.71640       15.5994           0 -0.978253       1.30000    
     36240 TIP3     2007     SWM4     DOH2     DOH2     -1.71640      0.400000           0   0.00000       0.00000    
     36241 TIP3     2007     SWM4     OM       LPDW     -1.11466       0.00000          -1   0.00000       0.00000    
     36242 TIP3     2007     SWM4     H1       HDW      0.557330       1.00800           0   0.00000       0.00000    
     36243 TIP3     2007     SWM4     H2       HDW      0.557330       1.00800           0   0.00000       0.00000    
     36244 TIP3     2008     SWM4     OH2      ODW       1.71640       15.5994           0 -0.978253       1.30000    
     36245 TIP3     2008     SWM4     DOH2     DOH2     -1.71640      0.400000           0   0.00000       0.00000    
     36246 TIP3     2008     SWM4     OM       LPDW     -1.11466       0.00000          -1   0.00000       0.00000    
     36247 TIP3     2008     SWM4     H1       HDW      0.557330       1.00800           0   0.00000       0.00000    
     36248 TIP3     2008     SWM4     H2       HDW      0.557330       1.00800           0   0.00000       0.00000    
     36249 TIP3     2009     SWM4     OH2      ODW       1.71640       15.5994           0 -0.978253       1.30000    
     36250 TIP3     2009     SWM4     DOH2     DOH2     -1.71640      0.400000           0   0.00000       0.00000    
     36251 TIP3     2009     SWM4     OM       LPDW     -1.11466       0.00000          -1   0.00000       0.00000    
     36252 TIP3     2009     SWM4     H1       HDW      0.557330       1.00800           0   0.00000       0.00000    
     36253 TIP3     2009     SWM4     H2       HDW      0.557330       1.00800           0   0.00000       0.00000    
     36254 TIP3     2010     SWM4     OH2      ODW       1.71640       15.5994           0 -0.978253       1.30000    
     36255 TIP3     2010     SWM4     DOH2     DOH2     -1.71640      0.400000           0   0.00000       0.00000    
     36256 TIP3     2010     SWM4     OM       LPDW     -1.11466       0.00000          -1   0.00000       0.00000    
     36257 TIP3     2010     SWM4     H1       HDW      0.557330       1.00800           0   0.00000       0.00000    
     36258 TIP3     2010     SWM4     H2       HDW      0.557330       1.00800           0   0.00000       0.00000    
     36259 TIP3     2011     SWM4     OH2      ODW       1.71640       15.5994           0 -0.978253       1.30000    
     36260 TIP3     2011     SWM4     DOH2     DOH2     -1.71640      0.400000           0   0.00000       0.00000    
     36261 TIP3     2011     SWM4     OM       LPDW     -1.11466       0.00000          -1   0.00000       0.00000    
     36262 TIP3     2011     SWM4     H1       HDW      0.557330       1.00800           0   0.00000       0.00000    
     36263 TIP3     2011     SWM4     H2       HDW      0.557330       1.00800           0   0.00000       0.00000    
     36264 TIP3     2012     SWM4     OH2      ODW       1.71640       15.5994           0 -0.978253       1.30000    
     36265 TIP3     2012     SWM4     DOH2     DOH2     -1.71640      0.400000           0   0.00000       0.00000    
     36266 TIP3     2012     SWM4     OM       LPDW     -1.11466       0.00000          -1   0.00000       0.00000    
     36267 TIP3     2012     SWM4     H1       HDW      0.557330       1.00800           0   0.00000       0.00000    
     36268 TIP3     2012     SWM4     H2       HDW      0.557330       1.00800           0   0.00000       0.00000    
     36269 TIP3     2013     SWM4     OH2      ODW       1.71640       15.5994           0 -0.978253       1.30000    
     36270 TIP3     2013     SWM4     DOH2     DOH2     -1.71640      0.400000           0   0.00000       0.00000    
     36271 TIP3     2013     SWM4     OM       LPDW     -1.11466       0.00000          -1   0.00000       0.00000    
     36272 TIP3     2013     SWM4     H1       HDW      0.557330       1.00800           0   0.00000       0.00000    
     36273 TIP3     2013     SWM4     H2       HDW      0.557330       1.00800           0   0.00000       0.00000    
     36274 TIP3     2014     SWM4     OH2      ODW       1.71640       15.5994           0 -0.978253       1.30000    
     36275 TIP3     2014     SWM4     DOH2     DOH2     -1.71640      0.400000           0   0.00000       0.00000    
     36276 TIP3     2014     SWM4     OM       LPDW     -1.11466       0.00000          -1   0.00000       0.00000    
     36277 TIP3     2014     SWM4     H1       HDW      0.557330       1.00800           0   0.00000       0.00000    
     36278 TIP3     2014     SWM4     H2       HDW      0.557330       1.00800           0   0.00000       0.00000    
     36279 TIP3     2015     SWM4     OH2      ODW       1.71640       15.5994           0 -0.978253       1.30000    
     36280 TIP3     2015     SWM4     DOH2     DOH2     -1.71640      0.400000           0   0.00000       0.00000    
     36281 TIP3     2015     SWM4     OM       LPDW     -1.11466       0.00000          -1   0.00000       0.00000    
     36282 TIP3     2015     SWM4     H1       HDW      0.557330       1.00800           0   0.00000       0.00000    
     36283 TIP3     2015     SWM4     H2       HDW      0.557330       1.00800           0   0.00000       0.00000    
     36284 TIP3     2016     SWM4     OH2      ODW       1.71640       15.5994           0 -0.978253       1.30000    
     36285 TIP3     2016     SWM4     DOH2     DOH2     -1.71640      0.400000           0   0.00000       0.00000    
     36286 TIP3     2016     SWM4     OM       LPDW     -1.11466       0.00000          -1   0.00000       0.00000    
     36287 TIP3     2016     SWM4     H1       HDW      0.557330       1.00800           0   0.00000       0.00000    
     36288 TIP3     2016     SWM4     H2       HDW      0.557330       1.00800           0   0.00000       0.00000    
     36289 TIP3     2017     SWM4     OH2      ODW       1.71640       15.5994           0 -0.978253       1.30000    
     36290 TIP3     2017     SWM4     DOH2     DOH2     -1.71640      0.400000           0   0.00000       0.00000    
     36291 TIP3     2017     SWM4     OM       LPDW     -1.11466       0.00000          -1   0.00000       0.00000    
     36292 TIP3     2017     SWM4     H1       HDW      0.557330       1.00800           0   0.00000       0.00000    
     36293 TIP3     2017     SWM4     H2       HDW      0.557330       1.00800           0   0.00000       0.00000    
     36294 TIP3     2018     SWM4     OH2      ODW       1.71640       15.5994           0 -0.978253       1.30000    
     36295 TIP3     2018     SWM4     DOH2     DOH2     -1.71640      0.400000           0   0.00000       0.00000    
     36296 TIP3     2018     SWM4     OM       LPDW     -1.11466       0.00000          -1   0.00000       0.00000    
     36297 TIP3     2018     SWM4     H1       HDW      0.557330       1.00800           0   0.00000       0.00000    
     36298 TIP3     2018     SWM4     H2       HDW      0.557330       1.00800           0   0.00000       0.00000    
     36299 TIP3     2019     SWM4     OH2      ODW       1.71640       15.5994           0 -0.978253       1.30000    
     36300 TIP3     2019     SWM4     DOH2     DOH2     -1.71640      0.400000           0   0.00000       0.00000    
     36301 TIP3     2019     SWM4     OM       LPDW     -1.11466       0.00000          -1   0.00000       0.00000    
     36302 TIP3     2019     SWM4     H1       HDW      0.557330       1.00800           0   0.00000       0.00000    
     36303 TIP3     2019     SWM4     H2       HDW      0.557330       1.00800           0   0.00000       0.00000    
     36304 TIP3     2020     SWM4     OH2      ODW       1.71640       15.5994           0 -0.978253       1.30000    
     36305 TIP3     2020     SWM4     DOH2     DOH2     -1.71640      0.400000           0   0.00000       0.00000    
     36306 TIP3     2020     SWM4     OM       LPDW     -1.11466       0.00000          -1   0.00000       0.00000    
     36307 TIP3     2020     SWM4     H1       HDW      0.557330       1.00800           0   0.00000       0.00000    
     36308 TIP3     2020     SWM4     H2       HDW      0.557330       1.00800           0   0.00000       0.00000    
     36309 TIP3     2021     SWM4     OH2      ODW       1.71640       15.5994           0 -0.978253       1.30000    
     36310 TIP3     2021     SWM4     DOH2     DOH2     -1.71640      0.400000           0   0.00000       0.00000    
     36311 TIP3     2021     SWM4     OM       LPDW     -1.11466       0.00000          -1   0.00000       0.00000    
     36312 TIP3     2021     SWM4     H1       HDW      0.557330       1.00800           0   0.00000       0.00000    
     36313 TIP3     2021     SWM4     H2       HDW      0.557330       1.00800           0   0.00000       0.00000    
     36314 TIP3     2022     SWM4     OH2      ODW       1.71640       15.5994           0 -0.978253       1.30000    
     36315 TIP3     2022     SWM4     DOH2     DOH2     -1.71640      0.400000           0   0.00000       0.00000    
     36316 TIP3     2022     SWM4     OM       LPDW     -1.11466       0.00000          -1   0.00000       0.00000    
     36317 TIP3     2022     SWM4     H1       HDW      0.557330       1.00800           0   0.00000       0.00000    
     36318 TIP3     2022     SWM4     H2       HDW      0.557330       1.00800           0   0.00000       0.00000    
     36319 TIP3     2023     SWM4     OH2      ODW       1.71640       15.5994           0 -0.978253       1.30000    
     36320 TIP3     2023     SWM4     DOH2     DOH2     -1.71640      0.400000           0   0.00000       0.00000    
     36321 TIP3     2023     SWM4     OM       LPDW     -1.11466       0.00000          -1   0.00000       0.00000    
     36322 TIP3     2023     SWM4     H1       HDW      0.557330       1.00800           0   0.00000       0.00000    
     36323 TIP3     2023     SWM4     H2       HDW      0.557330       1.00800           0   0.00000       0.00000    
     36324 TIP3     2024     SWM4     OH2      ODW       1.71640       15.5994           0 -0.978253       1.30000    
     36325 TIP3     2024     SWM4     DOH2     DOH2     -1.71640      0.400000           0   0.00000       0.00000    
     36326 TIP3     2024     SWM4     OM       LPDW     -1.11466       0.00000          -1   0.00000       0.00000    
     36327 TIP3     2024     SWM4     H1       HDW      0.557330       1.00800           0   0.00000       0.00000    
     36328 TIP3     2024     SWM4     H2       HDW      0.557330       1.00800           0   0.00000       0.00000    
     36329 TIP3     2025     SWM4     OH2      ODW       1.71640       15.5994           0 -0.978253       1.30000    
     36330 TIP3     2025     SWM4     DOH2     DOH2     -1.71640      0.400000           0   0.00000       0.00000    
     36331 TIP3     2025     SWM4     OM       LPDW     -1.11466       0.00000          -1   0.00000       0.00000    
     36332 TIP3     2025     SWM4     H1       HDW      0.557330       1.00800           0   0.00000       0.00000    
     36333 TIP3     2025     SWM4     H2       HDW      0.557330       1.00800           0   0.00000       0.00000    
     36334 TIP3     2026     SWM4     OH2      ODW       1.71640       15.5994           0 -0.978253       1.30000    
     36335 TIP3     2026     SWM4     DOH2     DOH2     -1.71640      0.400000           0   0.00000       0.00000    
     36336 TIP3     2026     SWM4     OM       LPDW     -1.11466       0.00000          -1   0.00000       0.00000    
     36337 TIP3     2026     SWM4     H1       HDW      0.557330       1.00800           0   0.00000       0.00000    
     36338 TIP3     2026     SWM4     H2       HDW      0.557330       1.00800           0   0.00000       0.00000    
     36339 TIP3     2027     SWM4     OH2      ODW       1.71640       15.5994           0 -0.978253       1.30000    
     36340 TIP3     2027     SWM4     DOH2     DOH2     -1.71640      0.400000           0   0.00000       0.00000    
     36341 TIP3     2027     SWM4     OM       LPDW     -1.11466       0.00000          -1   0.00000       0.00000    
     36342 TIP3     2027     SWM4     H1       HDW      0.557330       1.00800           0   0.00000       0.00000    
     36343 TIP3     2027     SWM4     H2       HDW      0.557330       1.00800           0   0.00000       0.00000    
     36344 TIP3     2028     SWM4     OH2      ODW       1.71640       15.5994           0 -0.978253       1.30000    
     36345 TIP3     2028     SWM4     DOH2     DOH2     -1.71640      0.400000           0   0.00000       0.00000    
     36346 TIP3     2028     SWM4     OM       LPDW     -1.11466       0.00000          -1   0.00000       0.00000    
     36347 TIP3     2028     SWM4     H1       HDW      0.557330       1.00800           0   0.00000       0.00000    
     36348 TIP3     2028     SWM4     H2       HDW      0.557330       1.00800           0   0.00000       0.00000    
     36349 TIP3     2029     SWM4     OH2      ODW       1.71640       15.5994           0 -0.978253       1.30000    
     36350 TIP3     2029     SWM4     DOH2     DOH2     -1.71640      0.400000           0   0.00000       0.00000    
     36351 TIP3     2029     SWM4     OM       LPDW     -1.11466       0.00000          -1   0.00000       0.00000    
     36352 TIP3     2029     SWM4     H1       HDW      0.557330       1.00800           0   0.00000       0.00000    
     36353 TIP3     2029     SWM4     H2       HDW      0.557330       1.00800           0   0.00000       0.00000    
     36354 TIP3     2030     SWM4     OH2      ODW       1.71640       15.5994           0 -0.978253       1.30000    
     36355 TIP3     2030     SWM4     DOH2     DOH2     -1.71640      0.400000           0   0.00000       0.00000    
     36356 TIP3     2030     SWM4     OM       LPDW     -1.11466       0.00000          -1   0.00000       0.00000    
     36357 TIP3     2030     SWM4     H1       HDW      0.557330       1.00800           0   0.00000       0.00000    
     36358 TIP3     2030     SWM4     H2       HDW      0.557330       1.00800           0   0.00000       0.00000    
     36359 TIP3     2031     SWM4     OH2      ODW       1.71640       15.5994           0 -0.978253       1.30000    
     36360 TIP3     2031     SWM4     DOH2     DOH2     -1.71640      0.400000           0   0.00000       0.00000    
     36361 TIP3     2031     SWM4     OM       LPDW     -1.11466       0.00000          -1   0.00000       0.00000    
     36362 TIP3     2031     SWM4     H1       HDW      0.557330       1.00800           0   0.00000       0.00000    
     36363 TIP3     2031     SWM4     H2       HDW      0.557330       1.00800           0   0.00000       0.00000    
     36364 TIP3     2032     SWM4     OH2      ODW       1.71640       15.5994           0 -0.978253       1.30000    
     36365 TIP3     2032     SWM4     DOH2     DOH2     -1.71640      0.400000           0   0.00000       0.00000    
     36366 TIP3     2032     SWM4     OM       LPDW     -1.11466       0.00000          -1   0.00000       0.00000    
     36367 TIP3     2032     SWM4     H1       HDW      0.557330       1.00800           0   0.00000       0.00000    
     36368 TIP3     2032     SWM4     H2       HDW      0.557330       1.00800           0   0.00000       0.00000    
     36369 TIP3     2033     SWM4     OH2      ODW       1.71640       15.5994           0 -0.978253       1.30000    
     36370 TIP3     2033     SWM4     DOH2     DOH2     -1.71640      0.400000           0   0.00000       0.00000    
     36371 TIP3     2033     SWM4     OM       LPDW     -1.11466       0.00000          -1   0.00000       0.00000    
     36372 TIP3     2033     SWM4     H1       HDW      0.557330       1.00800           0   0.00000       0.00000    
     36373 TIP3     2033     SWM4     H2       HDW      0.557330       1.00800           0   0.00000       0.00000    
     36374 TIP3     2034     SWM4     OH2      ODW       1.71640       15.5994           0 -0.978253       1.30000    
     36375 TIP3     2034     SWM4     DOH2     DOH2     -1.71640      0.400000           0   0.00000       0.00000    
     36376 TIP3     2034     SWM4     OM       LPDW     -1.11466       0.00000          -1   0.00000       0.00000    
     36377 TIP3     2034     SWM4     H1       HDW      0.557330       1.00800           0   0.00000       0.00000    
     36378 TIP3     2034     SWM4     H2       HDW      0.557330       1.00800           0   0.00000       0.00000    
     36379 TIP3     2035     SWM4     OH2      ODW       1.71640       15.5994           0 -0.978253       1.30000    
     36380 TIP3     2035     SWM4     DOH2     DOH2     -1.71640      0.400000           0   0.00000       0.00000    
     36381 TIP3     2035     SWM4     OM       LPDW     -1.11466       0.00000          -1   0.00000       0.00000    
     36382 TIP3     2035     SWM4     H1       HDW      0.557330       1.00800           0   0.00000       0.00000    
     36383 TIP3     2035     SWM4     H2       HDW      0.557330       1.00800           0   0.00000       0.00000    
     36384 TIP3     2036     SWM4     OH2      ODW       1.71640       15.5994           0 -0.978253       1.30000    
     36385 TIP3     2036     SWM4     DOH2     DOH2     -1.71640      0.400000           0   0.00000       0.00000    
     36386 TIP3     2036     SWM4     OM       LPDW     -1.11466       0.00000          -1   0.00000       0.00000    
     36387 TIP3     2036     SWM4     H1       HDW      0.557330       1.00800           0   0.00000       0.00000    
     36388 TIP3     2036     SWM4     H2       HDW      0.557330       1.00800           0   0.00000       0.00000    
     36389 TIP3     2037     SWM4     OH2      ODW       1.71640       15.5994           0 -0.978253       1.30000    
     36390 TIP3     2037     SWM4     DOH2     DOH2     -1.71640      0.400000           0   0.00000       0.00000    
     36391 TIP3     2037     SWM4     OM       LPDW     -1.11466       0.00000          -1   0.00000       0.00000    
     36392 TIP3     2037     SWM4     H1       HDW      0.557330       1.00800           0   0.00000       0.00000    
     36393 TIP3     2037     SWM4     H2       HDW      0.557330       1.00800           0   0.00000       0.00000    
     36394 TIP3     2038     SWM4     OH2      ODW       1.71640       15.5994           0 -0.978253       1.30000    
     36395 TIP3     2038     SWM4     DOH2     DOH2     -1.71640      0.400000           0   0.00000       0.00000    
     36396 TIP3     2038     SWM4     OM       LPDW     -1.11466       0.00000          -1   0.00000       0.00000    
     36397 TIP3     2038     SWM4     H1       HDW      0.557330       1.00800           0   0.00000       0.00000    
     36398 TIP3     2038     SWM4     H2       HDW      0.557330       1.00800           0   0.00000       0.00000    
     36399 TIP3     2039     SWM4     OH2      ODW       1.71640       15.5994           0 -0.978253       1.30000    
     36400 TIP3     2039     SWM4     DOH2     DOH2     -1.71640      0.400000           0   0.00000       0.00000    
     36401 TIP3     2039     SWM4     OM       LPDW     -1.11466       0.00000          -1   0.00000       0.00000    
     36402 TIP3     2039     SWM4     H1       HDW      0.557330       1.00800           0   0.00000       0.00000    
     36403 TIP3     2039     SWM4     H2       HDW      0.557330       1.00800           0   0.00000       0.00000    
     36404 TIP3     2040     SWM4     OH2      ODW       1.71640       15.5994           0 -0.978253       1.30000    
     36405 TIP3     2040     SWM4     DOH2     DOH2     -1.71640      0.400000           0   0.00000       0.00000    
     36406 TIP3     2040     SWM4     OM       LPDW     -1.11466       0.00000          -1   0.00000       0.00000    
     36407 TIP3     2040     SWM4     H1       HDW      0.557330       1.00800           0   0.00000       0.00000    
     36408 TIP3     2040     SWM4     H2       HDW      0.557330       1.00800           0   0.00000       0.00000    
     36409 TIP3     2041     SWM4     OH2      ODW       1.71640       15.5994           0 -0.978253       1.30000    
     36410 TIP3     2041     SWM4     DOH2     DOH2     -1.71640      0.400000           0   0.00000       0.00000    
     36411 TIP3     2041     SWM4     OM       LPDW     -1.11466       0.00000          -1   0.00000       0.00000    
     36412 TIP3     2041     SWM4     H1       HDW      0.557330       1.00800           0   0.00000       0.00000    
     36413 TIP3     2041     SWM4     H2       HDW      0.557330       1.00800           0   0.00000       0.00000    
     36414 TIP3     2042     SWM4     OH2      ODW       1.71640       15.5994           0 -0.978253       1.30000    
     36415 TIP3     2042     SWM4     DOH2     DOH2     -1.71640      0.400000           0   0.00000       0.00000    
     36416 TIP3     2042     SWM4     OM       LPDW     -1.11466       0.00000          -1   0.00000       0.00000    
     36417 TIP3     2042     SWM4     H1       HDW      0.557330       1.00800           0   0.00000       0.00000    
     36418 TIP3     2042     SWM4     H2       HDW      0.557330       1.00800           0   0.00000       0.00000    
     36419 TIP3     2043     SWM4     OH2      ODW       1.71640       15.5994           0 -0.978253       1.30000    
     36420 TIP3     2043     SWM4     DOH2     DOH2     -1.71640      0.400000           0   0.00000       0.00000    
     36421 TIP3     2043     SWM4     OM       LPDW     -1.11466       0.00000          -1   0.00000       0.00000    
     36422 TIP3     2043     SWM4     H1       HDW      0.557330       1.00800           0   0.00000       0.00000    
     36423 TIP3     2043     SWM4     H2       HDW      0.557330       1.00800           0   0.00000       0.00000    
     36424 TIP3     2044     SWM4     OH2      ODW       1.71640       15.5994           0 -0.978253       1.30000    
     36425 TIP3     2044     SWM4     DOH2     DOH2     -1.71640      0.400000           0   0.00000       0.00000    
     36426 TIP3     2044     SWM4     OM       LPDW     -1.11466       0.00000          -1   0.00000       0.00000    
     36427 TIP3     2044     SWM4     H1       HDW      0.557330       1.00800           0   0.00000       0.00000    
     36428 TIP3     2044     SWM4     H2       HDW      0.557330       1.00800           0   0.00000       0.00000    
     36429 TIP3     2045     SWM4     OH2      ODW       1.71640       15.5994           0 -0.978253       1.30000    
     36430 TIP3     2045     SWM4     DOH2     DOH2     -1.71640      0.400000           0   0.00000       0.00000    
     36431 TIP3     2045     SWM4     OM       LPDW     -1.11466       0.00000          -1   0.00000       0.00000    
     36432 TIP3     2045     SWM4     H1       HDW      0.557330       1.00800           0   0.00000       0.00000    
     36433 TIP3     2045     SWM4     H2       HDW      0.557330       1.00800           0   0.00000       0.00000    
     36434 TIP3     2046     SWM4     OH2      ODW       1.71640       15.5994           0 -0.978253       1.30000    
     36435 TIP3     2046     SWM4     DOH2     DOH2     -1.71640      0.400000           0   0.00000       0.00000    
     36436 TIP3     2046     SWM4     OM       LPDW     -1.11466       0.00000          -1   0.00000       0.00000    
     36437 TIP3     2046     SWM4     H1       HDW      0.557330       1.00800           0   0.00000       0.00000    
     36438 TIP3     2046     SWM4     H2       HDW      0.557330       1.00800           0   0.00000       0.00000    
     36439 TIP3     2047     SWM4     OH2      ODW       1.71640       15.5994           0 -0.978253       1.30000    
     36440 TIP3     2047     SWM4     DOH2     DOH2     -1.71640      0.400000           0   0.00000       0.00000    
     36441 TIP3     2047     SWM4     OM       LPDW     -1.11466       0.00000          -1   0.00000       0.00000    
     36442 TIP3     2047     SWM4     H1       HDW      0.557330       1.00800           0   0.00000       0.00000    
     36443 TIP3     2047     SWM4     H2       HDW      0.557330       1.00800           0   0.00000       0.00000    
     36444 TIP3     2048     SWM4     OH2      ODW       1.71640       15.5994           0 -0.978253       1.30000    
     36445 TIP3     2048     SWM4     DOH2     DOH2     -1.71640      0.400000           0   0.00000       0.00000    
     36446 TIP3     2048     SWM4     OM       LPDW     -1.11466       0.00000          -1   0.00000       0.00000    
     36447 TIP3     2048     SWM4     H1       HDW      0.557330       1.00800           0   0.00000       0.00000    
     36448 TIP3     2048     SWM4     H2       HDW      0.557330       1.00800           0   0.00000       0.00000    
     36449 TIP3     2049     SWM4     OH2      ODW       1.71640       15.5994           0 -0.978253       1.30000    
     36450 TIP3     2049     SWM4     DOH2     DOH2     -1.71640      0.400000           0   0.00000       0.00000    
     36451 TIP3     2049     SWM4     OM       LPDW     -1.11466       0.00000          -1   0.00000       0.00000    
     36452 TIP3     2049     SWM4     H1       HDW      0.557330       1.00800           0   0.00000       0.00000    
     36453 TIP3     2049     SWM4     H2       HDW      0.557330       1.00800           0   0.00000       0.00000    
     36454 TIP3     2050     SWM4     OH2      ODW       1.71640       15.5994           0 -0.978253       1.30000    
     36455 TIP3     2050     SWM4     DOH2     DOH2     -1.71640      0.400000           0   0.00000       0.00000    
     36456 TIP3     2050     SWM4     OM       LPDW     -1.11466       0.00000          -1   0.00000       0.00000    
     36457 TIP3     2050     SWM4     H1       HDW      0.557330       1.00800           0   0.00000       0.00000    
     36458 TIP3     2050     SWM4     H2       HDW      0.557330       1.00800           0   0.00000       0.00000    
     36459 TIP3     2051     SWM4     OH2      ODW       1.71640       15.5994           0 -0.978253       1.30000    
     36460 TIP3     2051     SWM4     DOH2     DOH2     -1.71640      0.400000           0   0.00000       0.00000    
     36461 TIP3     2051     SWM4     OM       LPDW     -1.11466       0.00000          -1   0.00000       0.00000    
     36462 TIP3     2051     SWM4     H1       HDW      0.557330       1.00800           0   0.00000       0.00000    
     36463 TIP3     2051     SWM4     H2       HDW      0.557330       1.00800           0   0.00000       0.00000    
     36464 TIP3     2052     SWM4     OH2      ODW       1.71640       15.5994           0 -0.978253       1.30000    
     36465 TIP3     2052     SWM4     DOH2     DOH2     -1.71640      0.400000           0   0.00000       0.00000    
     36466 TIP3     2052     SWM4     OM       LPDW     -1.11466       0.00000          -1   0.00000       0.00000    
     36467 TIP3     2052     SWM4     H1       HDW      0.557330       1.00800           0   0.00000       0.00000    
     36468 TIP3     2052     SWM4     H2       HDW      0.557330       1.00800           0   0.00000       0.00000    
     36469 TIP3     2053     SWM4     OH2      ODW       1.71640       15.5994           0 -0.978253       1.30000    
     36470 TIP3     2053     SWM4     DOH2     DOH2     -1.71640      0.400000           0   0.00000       0.00000    
     36471 TIP3     2053     SWM4     OM       LPDW     -1.11466       0.00000          -1   0.00000       0.00000    
     36472 TIP3     2053     SWM4     H1       HDW      0.557330       1.00800           0   0.00000       0.00000    
     36473 TIP3     2053     SWM4     H2       HDW      0.557330       1.00800           0   0.00000       0.00000    
     36474 TIP3     2054     SWM4     OH2      ODW       1.71640       15.5994           0 -0.978253       1.30000    
     36475 TIP3     2054     SWM4     DOH2     DOH2     -1.71640      0.400000           0   0.00000       0.00000    
     36476 TIP3     2054     SWM4     OM       LPDW     -1.11466       0.00000          -1   0.00000       0.00000    
     36477 TIP3     2054     SWM4     H1       HDW      0.557330       1.00800           0   0.00000       0.00000    
     36478 TIP3     2054     SWM4     H2       HDW      0.557330       1.00800           0   0.00000       0.00000    
     36479 TIP3     2055     SWM4     OH2      ODW       1.71640       15.5994           0 -0.978253       1.30000    
     36480 TIP3     2055     SWM4     DOH2     DOH2     -1.71640      0.400000           0   0.00000       0.00000    
     36481 TIP3     2055     SWM4     OM       LPDW     -1.11466       0.00000          -1   0.00000       0.00000    
     36482 TIP3     2055     SWM4     H1       HDW      0.557330       1.00800           0   0.00000       0.00000    
     36483 TIP3     2055     SWM4     H2       HDW      0.557330       1.00800           0   0.00000       0.00000    
     36484 TIP3     2056     SWM4     OH2      ODW       1.71640       15.5994           0 -0.978253       1.30000    
     36485 TIP3     2056     SWM4     DOH2     DOH2     -1.71640      0.400000           0   0.00000       0.00000    
     36486 TIP3     2056     SWM4     OM       LPDW     -1.11466       0.00000          -1   0.00000       0.00000    
     36487 TIP3     2056     SWM4     H1       HDW      0.557330       1.00800           0   0.00000       0.00000    
     36488 TIP3     2056     SWM4     H2       HDW      0.557330       1.00800           0   0.00000       0.00000    
     36489 TIP3     2057     SWM4     OH2      ODW       1.71640       15.5994           0 -0.978253       1.30000    
     36490 TIP3     2057     SWM4     DOH2     DOH2     -1.71640      0.400000           0   0.00000       0.00000    
     36491 TIP3     2057     SWM4     OM       LPDW     -1.11466       0.00000          -1   0.00000       0.00000    
     36492 TIP3     2057     SWM4     H1       HDW      0.557330       1.00800           0   0.00000       0.00000    
     36493 TIP3     2057     SWM4     H2       HDW      0.557330       1.00800           0   0.00000       0.00000    
     36494 TIP3     2058     SWM4     OH2      ODW       1.71640       15.5994           0 -0.978253       1.30000    
     36495 TIP3     2058     SWM4     DOH2     DOH2     -1.71640      0.400000           0   0.00000       0.00000    
     36496 TIP3     2058     SWM4     OM       LPDW     -1.11466       0.00000          -1   0.00000       0.00000    
     36497 TIP3     2058     SWM4     H1       HDW      0.557330       1.00800           0   0.00000       0.00000    
     36498 TIP3     2058     SWM4     H2       HDW      0.557330       1.00800           0   0.00000       0.00000    
     36499 TIP3     2059     SWM4     OH2      ODW       1.71640       15.5994           0 -0.978253       1.30000    
     36500 TIP3     2059     SWM4     DOH2     DOH2     -1.71640      0.400000           0   0.00000       0.00000    
     36501 TIP3     2059     SWM4     OM       LPDW     -1.11466       0.00000          -1   0.00000       0.00000    
     36502 TIP3     2059     SWM4     H1       HDW      0.557330       1.00800           0   0.00000       0.00000    
     36503 TIP3     2059     SWM4     H2       HDW      0.557330       1.00800           0   0.00000       0.00000    
     36504 TIP3     2060     SWM4     OH2      ODW       1.71640       15.5994           0 -0.978253       1.30000    
     36505 TIP3     2060     SWM4     DOH2     DOH2     -1.71640      0.400000           0   0.00000       0.00000    
     36506 TIP3     2060     SWM4     OM       LPDW     -1.11466       0.00000          -1   0.00000       0.00000    
     36507 TIP3     2060     SWM4     H1       HDW      0.557330       1.00800           0   0.00000       0.00000    
     36508 TIP3     2060     SWM4     H2       HDW      0.557330       1.00800           0   0.00000       0.00000    
     36509 TIP3     2061     SWM4     OH2      ODW       1.71640       15.5994           0 -0.978253       1.30000    
     36510 TIP3     2061     SWM4     DOH2     DOH2     -1.71640      0.400000           0   0.00000       0.00000    
     36511 TIP3     2061     SWM4     OM       LPDW     -1.11466       0.00000          -1   0.00000       0.00000    
     36512 TIP3     2061     SWM4     H1       HDW      0.557330       1.00800           0   0.00000       0.00000    
     36513 TIP3     2061     SWM4     H2       HDW      0.557330       1.00800           0   0.00000       0.00000    
     36514 TIP3     2062     SWM4     OH2      ODW       1.71640       15.5994           0 -0.978253       1.30000    
     36515 TIP3     2062     SWM4     DOH2     DOH2     -1.71640      0.400000           0   0.00000       0.00000    
     36516 TIP3     2062     SWM4     OM       LPDW     -1.11466       0.00000          -1   0.00000       0.00000    
     36517 TIP3     2062     SWM4     H1       HDW      0.557330       1.00800           0   0.00000       0.00000    
     36518 TIP3     2062     SWM4     H2       HDW      0.557330       1.00800           0   0.00000       0.00000    
     36519 TIP3     2063     SWM4     OH2      ODW       1.71640       15.5994           0 -0.978253       1.30000    
     36520 TIP3     2063     SWM4     DOH2     DOH2     -1.71640      0.400000           0   0.00000       0.00000    
     36521 TIP3     2063     SWM4     OM       LPDW     -1.11466       0.00000          -1   0.00000       0.00000    
     36522 TIP3     2063     SWM4     H1       HDW      0.557330       1.00800           0   0.00000       0.00000    
     36523 TIP3     2063     SWM4     H2       HDW      0.557330       1.00800           0   0.00000       0.00000    
     36524 TIP3     2064     SWM4     OH2      ODW       1.71640       15.5994           0 -0.978253       1.30000    
     36525 TIP3     2064     SWM4     DOH2     DOH2     -1.71640      0.400000           0   0.00000       0.00000    
     36526 TIP3     2064     SWM4     OM       LPDW     -1.11466       0.00000          -1   0.00000       0.00000    
     36527 TIP3     2064     SWM4     H1       HDW      0.557330       1.00800           0   0.00000       0.00000    
     36528 TIP3     2064     SWM4     H2       HDW      0.557330       1.00800           0   0.00000       0.00000    
     36529 TIP3     2065     SWM4     OH2      ODW       1.71640       15.5994           0 -0.978253       1.30000    
     36530 TIP3     2065     SWM4     DOH2     DOH2     -1.71640      0.400000           0   0.00000       0.00000    
     36531 TIP3     2065     SWM4     OM       LPDW     -1.11466       0.00000          -1   0.00000       0.00000    
     36532 TIP3     2065     SWM4     H1       HDW      0.557330       1.00800           0   0.00000       0.00000    
     36533 TIP3     2065     SWM4     H2       HDW      0.557330       1.00800           0   0.00000       0.00000    
     36534 TIP3     2066     SWM4     OH2      ODW       1.71640       15.5994           0 -0.978253       1.30000    
     36535 TIP3     2066     SWM4     DOH2     DOH2     -1.71640      0.400000           0   0.00000       0.00000    
     36536 TIP3     2066     SWM4     OM       LPDW     -1.11466       0.00000          -1   0.00000       0.00000    
     36537 TIP3     2066     SWM4     H1       HDW      0.557330       1.00800           0   0.00000       0.00000    
     36538 TIP3     2066     SWM4     H2       HDW      0.557330       1.00800           0   0.00000       0.00000    
     36539 TIP3     2067     SWM4     OH2      ODW       1.71640       15.5994           0 -0.978253       1.30000    
     36540 TIP3     2067     SWM4     DOH2     DOH2     -1.71640      0.400000           0   0.00000       0.00000    
     36541 TIP3     2067     SWM4     OM       LPDW     -1.11466       0.00000          -1   0.00000       0.00000    
     36542 TIP3     2067     SWM4     H1       HDW      0.557330       1.00800           0   0.00000       0.00000    
     36543 TIP3     2067     SWM4     H2       HDW      0.557330       1.00800           0   0.00000       0.00000    
     36544 TIP3     2068     SWM4     OH2      ODW       1.71640       15.5994           0 -0.978253       1.30000    
     36545 TIP3     2068     SWM4     DOH2     DOH2     -1.71640      0.400000           0   0.00000       0.00000    
     36546 TIP3     2068     SWM4     OM       LPDW     -1.11466       0.00000          -1   0.00000       0.00000    
     36547 TIP3     2068     SWM4     H1       HDW      0.557330       1.00800           0   0.00000       0.00000    
     36548 TIP3     2068     SWM4     H2       HDW      0.557330       1.00800           0   0.00000       0.00000    
     36549 TIP3     2069     SWM4     OH2      ODW       1.71640       15.5994           0 -0.978253       1.30000    
     36550 TIP3     2069     SWM4     DOH2     DOH2     -1.71640      0.400000           0   0.00000       0.00000    
     36551 TIP3     2069     SWM4     OM       LPDW     -1.11466       0.00000          -1   0.00000       0.00000    
     36552 TIP3     2069     SWM4     H1       HDW      0.557330       1.00800           0   0.00000       0.00000    
     36553 TIP3     2069     SWM4     H2       HDW      0.557330       1.00800           0   0.00000       0.00000    
     36554 TIP3     2070     SWM4     OH2      ODW       1.71640       15.5994           0 -0.978253       1.30000    
     36555 TIP3     2070     SWM4     DOH2     DOH2     -1.71640      0.400000           0   0.00000       0.00000    
     36556 TIP3     2070     SWM4     OM       LPDW     -1.11466       0.00000          -1   0.00000       0.00000    
     36557 TIP3     2070     SWM4     H1       HDW      0.557330       1.00800           0   0.00000       0.00000    
     36558 TIP3     2070     SWM4     H2       HDW      0.557330       1.00800           0   0.00000       0.00000    
     36559 TIP3     2071     SWM4     OH2      ODW       1.71640       15.5994           0 -0.978253       1.30000    
     36560 TIP3     2071     SWM4     DOH2     DOH2     -1.71640      0.400000           0   0.00000       0.00000    
     36561 TIP3     2071     SWM4     OM       LPDW     -1.11466       0.00000          -1   0.00000       0.00000    
     36562 TIP3     2071     SWM4     H1       HDW      0.557330       1.00800           0   0.00000       0.00000    
     36563 TIP3     2071     SWM4     H2       HDW      0.557330       1.00800           0   0.00000       0.00000    
     36564 TIP3     2072     SWM4     OH2      ODW       1.71640       15.5994           0 -0.978253       1.30000    
     36565 TIP3     2072     SWM4     DOH2     DOH2     -1.71640      0.400000           0   0.00000       0.00000    
     36566 TIP3     2072     SWM4     OM       LPDW     -1.11466       0.00000          -1   0.00000       0.00000    
     36567 TIP3     2072     SWM4     H1       HDW      0.557330       1.00800           0   0.00000       0.00000    
     36568 TIP3     2072     SWM4     H2       HDW      0.557330       1.00800           0   0.00000       0.00000    
     36569 TIP3     2073     SWM4     OH2      ODW       1.71640       15.5994           0 -0.978253       1.30000    
     36570 TIP3     2073     SWM4     DOH2     DOH2     -1.71640      0.400000           0   0.00000       0.00000    
     36571 TIP3     2073     SWM4     OM       LPDW     -1.11466       0.00000          -1   0.00000       0.00000    
     36572 TIP3     2073     SWM4     H1       HDW      0.557330       1.00800           0   0.00000       0.00000    
     36573 TIP3     2073     SWM4     H2       HDW      0.557330       1.00800           0   0.00000       0.00000    
     36574 TIP3     2074     SWM4     OH2      ODW       1.71640       15.5994           0 -0.978253       1.30000    
     36575 TIP3     2074     SWM4     DOH2     DOH2     -1.71640      0.400000           0   0.00000       0.00000    
     36576 TIP3     2074     SWM4     OM       LPDW     -1.11466       0.00000          -1   0.00000       0.00000    
     36577 TIP3     2074     SWM4     H1       HDW      0.557330       1.00800           0   0.00000       0.00000    
     36578 TIP3     2074     SWM4     H2       HDW      0.557330       1.00800           0   0.00000       0.00000    
     36579 TIP3     2075     SWM4     OH2      ODW       1.71640       15.5994           0 -0.978253       1.30000    
     36580 TIP3     2075     SWM4     DOH2     DOH2     -1.71640      0.400000           0   0.00000       0.00000    
     36581 TIP3     2075     SWM4     OM       LPDW     -1.11466       0.00000          -1   0.00000       0.00000    
     36582 TIP3     2075     SWM4     H1       HDW      0.557330       1.00800           0   0.00000       0.00000    
     36583 TIP3     2075     SWM4     H2       HDW      0.557330       1.00800           0   0.00000       0.00000    
     36584 TIP3     2076     SWM4     OH2      ODW       1.71640       15.5994           0 -0.978253       1.30000    
     36585 TIP3     2076     SWM4     DOH2     DOH2     -1.71640      0.400000           0   0.00000       0.00000    
     36586 TIP3     2076     SWM4     OM       LPDW     -1.11466       0.00000          -1   0.00000       0.00000    
     36587 TIP3     2076     SWM4     H1       HDW      0.557330       1.00800           0   0.00000       0.00000    
     36588 TIP3     2076     SWM4     H2       HDW      0.557330       1.00800           0   0.00000       0.00000    
     36589 TIP3     2077     SWM4     OH2      ODW       1.71640       15.5994           0 -0.978253       1.30000    
     36590 TIP3     2077     SWM4     DOH2     DOH2     -1.71640      0.400000           0   0.00000       0.00000    
     36591 TIP3     2077     SWM4     OM       LPDW     -1.11466       0.00000          -1   0.00000       0.00000    
     36592 TIP3     2077     SWM4     H1       HDW      0.557330       1.00800           0   0.00000       0.00000    
     36593 TIP3     2077     SWM4     H2       HDW      0.557330       1.00800           0   0.00000       0.00000    
     36594 TIP3     2078     SWM4     OH2      ODW       1.71640       15.5994           0 -0.978253       1.30000    
     36595 TIP3     2078     SWM4     DOH2     DOH2     -1.71640      0.400000           0   0.00000       0.00000    
     36596 TIP3     2078     SWM4     OM       LPDW     -1.11466       0.00000          -1   0.00000       0.00000    
     36597 TIP3     2078     SWM4     H1       HDW      0.557330       1.00800           0   0.00000       0.00000    
     36598 TIP3     2078     SWM4     H2       HDW      0.557330       1.00800           0   0.00000       0.00000    
     36599 TIP3     2079     SWM4     OH2      ODW       1.71640       15.5994           0 -0.978253       1.30000    
     36600 TIP3     2079     SWM4     DOH2     DOH2     -1.71640      0.400000           0   0.00000       0.00000    
     36601 TIP3     2079     SWM4     OM       LPDW     -1.11466       0.00000          -1   0.00000       0.00000    
     36602 TIP3     2079     SWM4     H1       HDW      0.557330       1.00800           0   0.00000       0.00000    
     36603 TIP3     2079     SWM4     H2       HDW      0.557330       1.00800           0   0.00000       0.00000    
     36604 TIP3     2080     SWM4     OH2      ODW       1.71640       15.5994           0 -0.978253       1.30000    
     36605 TIP3     2080     SWM4     DOH2     DOH2     -1.71640      0.400000           0   0.00000       0.00000    
     36606 TIP3     2080     SWM4     OM       LPDW     -1.11466       0.00000          -1   0.00000       0.00000    
     36607 TIP3     2080     SWM4     H1       HDW      0.557330       1.00800           0   0.00000       0.00000    
     36608 TIP3     2080     SWM4     H2       HDW      0.557330       1.00800           0   0.00000       0.00000    
     36609 TIP3     2081     SWM4     OH2      ODW       1.71640       15.5994           0 -0.978253       1.30000    
     36610 TIP3     2081     SWM4     DOH2     DOH2     -1.71640      0.400000           0   0.00000       0.00000    
     36611 TIP3     2081     SWM4     OM       LPDW     -1.11466       0.00000          -1   0.00000       0.00000    
     36612 TIP3     2081     SWM4     H1       HDW      0.557330       1.00800           0   0.00000       0.00000    
     36613 TIP3     2081     SWM4     H2       HDW      0.557330       1.00800           0   0.00000       0.00000    
     36614 TIP3     2082     SWM4     OH2      ODW       1.71640       15.5994           0 -0.978253       1.30000    
     36615 TIP3     2082     SWM4     DOH2     DOH2     -1.71640      0.400000           0   0.00000       0.00000    
     36616 TIP3     2082     SWM4     OM       LPDW     -1.11466       0.00000          -1   0.00000       0.00000    
     36617 TIP3     2082     SWM4     H1       HDW      0.557330       1.00800           0   0.00000       0.00000    
     36618 TIP3     2082     SWM4     H2       HDW      0.557330       1.00800           0   0.00000       0.00000    
     36619 TIP3     2083     SWM4     OH2      ODW       1.71640       15.5994           0 -0.978253       1.30000    
     36620 TIP3     2083     SWM4     DOH2     DOH2     -1.71640      0.400000           0   0.00000       0.00000    
     36621 TIP3     2083     SWM4     OM       LPDW     -1.11466       0.00000          -1   0.00000       0.00000    
     36622 TIP3     2083     SWM4     H1       HDW      0.557330       1.00800           0   0.00000       0.00000    
     36623 TIP3     2083     SWM4     H2       HDW      0.557330       1.00800           0   0.00000       0.00000    
     36624 TIP3     2084     SWM4     OH2      ODW       1.71640       15.5994           0 -0.978253       1.30000    
     36625 TIP3     2084     SWM4     DOH2     DOH2     -1.71640      0.400000           0   0.00000       0.00000    
     36626 TIP3     2084     SWM4     OM       LPDW     -1.11466       0.00000          -1   0.00000       0.00000    
     36627 TIP3     2084     SWM4     H1       HDW      0.557330       1.00800           0   0.00000       0.00000    
     36628 TIP3     2084     SWM4     H2       HDW      0.557330       1.00800           0   0.00000       0.00000    
     36629 TIP3     2085     SWM4     OH2      ODW       1.71640       15.5994           0 -0.978253       1.30000    
     36630 TIP3     2085     SWM4     DOH2     DOH2     -1.71640      0.400000           0   0.00000       0.00000    
     36631 TIP3     2085     SWM4     OM       LPDW     -1.11466       0.00000          -1   0.00000       0.00000    
     36632 TIP3     2085     SWM4     H1       HDW      0.557330       1.00800           0   0.00000       0.00000    
     36633 TIP3     2085     SWM4     H2       HDW      0.557330       1.00800           0   0.00000       0.00000    
     36634 TIP3     2086     SWM4     OH2      ODW       1.71640       15.5994           0 -0.978253       1.30000    
     36635 TIP3     2086     SWM4     DOH2     DOH2     -1.71640      0.400000           0   0.00000       0.00000    
     36636 TIP3     2086     SWM4     OM       LPDW     -1.11466       0.00000          -1   0.00000       0.00000    
     36637 TIP3     2086     SWM4     H1       HDW      0.557330       1.00800           0   0.00000       0.00000    
     36638 TIP3     2086     SWM4     H2       HDW      0.557330       1.00800           0   0.00000       0.00000    
     36639 TIP3     2087     SWM4     OH2      ODW       1.71640       15.5994           0 -0.978253       1.30000    
     36640 TIP3     2087     SWM4     DOH2     DOH2     -1.71640      0.400000           0   0.00000       0.00000    
     36641 TIP3     2087     SWM4     OM       LPDW     -1.11466       0.00000          -1   0.00000       0.00000    
     36642 TIP3     2087     SWM4     H1       HDW      0.557330       1.00800           0   0.00000       0.00000    
     36643 TIP3     2087     SWM4     H2       HDW      0.557330       1.00800           0   0.00000       0.00000    
     36644 TIP3     2088     SWM4     OH2      ODW       1.71640       15.5994           0 -0.978253       1.30000    
     36645 TIP3     2088     SWM4     DOH2     DOH2     -1.71640      0.400000           0   0.00000       0.00000    
     36646 TIP3     2088     SWM4     OM       LPDW     -1.11466       0.00000          -1   0.00000       0.00000    
     36647 TIP3     2088     SWM4     H1       HDW      0.557330       1.00800           0   0.00000       0.00000    
     36648 TIP3     2088     SWM4     H2       HDW      0.557330       1.00800           0   0.00000       0.00000    
     36649 TIP3     2089     SWM4     OH2      ODW       1.71640       15.5994           0 -0.978253       1.30000    
     36650 TIP3     2089     SWM4     DOH2     DOH2     -1.71640      0.400000           0   0.00000       0.00000    
     36651 TIP3     2089     SWM4     OM       LPDW     -1.11466       0.00000          -1   0.00000       0.00000    
     36652 TIP3     2089     SWM4     H1       HDW      0.557330       1.00800           0   0.00000       0.00000    
     36653 TIP3     2089     SWM4     H2       HDW      0.557330       1.00800           0   0.00000       0.00000    
     36654 TIP3     2090     SWM4     OH2      ODW       1.71640       15.5994           0 -0.978253       1.30000    
     36655 TIP3     2090     SWM4     DOH2     DOH2     -1.71640      0.400000           0   0.00000       0.00000    
     36656 TIP3     2090     SWM4     OM       LPDW     -1.11466       0.00000          -1   0.00000       0.00000    
     36657 TIP3     2090     SWM4     H1       HDW      0.557330       1.00800           0   0.00000       0.00000    
     36658 TIP3     2090     SWM4     H2       HDW      0.557330       1.00800           0   0.00000       0.00000    
     36659 TIP3     2091     SWM4     OH2      ODW       1.71640       15.5994           0 -0.978253       1.30000    
     36660 TIP3     2091     SWM4     DOH2     DOH2     -1.71640      0.400000           0   0.00000       0.00000    
     36661 TIP3     2091     SWM4     OM       LPDW     -1.11466       0.00000          -1   0.00000       0.00000    
     36662 TIP3     2091     SWM4     H1       HDW      0.557330       1.00800           0   0.00000       0.00000    
     36663 TIP3     2091     SWM4     H2       HDW      0.557330       1.00800           0   0.00000       0.00000    
     36664 TIP3     2092     SWM4     OH2      ODW       1.71640       15.5994           0 -0.978253       1.30000    
     36665 TIP3     2092     SWM4     DOH2     DOH2     -1.71640      0.400000           0   0.00000       0.00000    
     36666 TIP3     2092     SWM4     OM       LPDW     -1.11466       0.00000          -1   0.00000       0.00000    
     36667 TIP3     2092     SWM4     H1       HDW      0.557330       1.00800           0   0.00000       0.00000    
     36668 TIP3     2092     SWM4     H2       HDW      0.557330       1.00800           0   0.00000       0.00000    
     36669 TIP3     2093     SWM4     OH2      ODW       1.71640       15.5994           0 -0.978253       1.30000    
     36670 TIP3     2093     SWM4     DOH2     DOH2     -1.71640      0.400000           0   0.00000       0.00000    
     36671 TIP3     2093     SWM4     OM       LPDW     -1.11466       0.00000          -1   0.00000       0.00000    
     36672 TIP3     2093     SWM4     H1       HDW      0.557330       1.00800           0   0.00000       0.00000    
     36673 TIP3     2093     SWM4     H2       HDW      0.557330       1.00800           0   0.00000       0.00000    
     36674 TIP3     2094     SWM4     OH2      ODW       1.71640       15.5994           0 -0.978253       1.30000    
     36675 TIP3     2094     SWM4     DOH2     DOH2     -1.71640      0.400000           0   0.00000       0.00000    
     36676 TIP3     2094     SWM4     OM       LPDW     -1.11466       0.00000          -1   0.00000       0.00000    
     36677 TIP3     2094     SWM4     H1       HDW      0.557330       1.00800           0   0.00000       0.00000    
     36678 TIP3     2094     SWM4     H2       HDW      0.557330       1.00800           0   0.00000       0.00000    
     36679 TIP3     2095     SWM4     OH2      ODW       1.71640       15.5994           0 -0.978253       1.30000    
     36680 TIP3     2095     SWM4     DOH2     DOH2     -1.71640      0.400000           0   0.00000       0.00000    
     36681 TIP3     2095     SWM4     OM       LPDW     -1.11466       0.00000          -1   0.00000       0.00000    
     36682 TIP3     2095     SWM4     H1       HDW      0.557330       1.00800           0   0.00000       0.00000    
     36683 TIP3     2095     SWM4     H2       HDW      0.557330       1.00800           0   0.00000       0.00000    
     36684 TIP3     2096     SWM4     OH2      ODW       1.71640       15.5994           0 -0.978253       1.30000    
     36685 TIP3     2096     SWM4     DOH2     DOH2     -1.71640      0.400000           0   0.00000       0.00000    
     36686 TIP3     2096     SWM4     OM       LPDW     -1.11466       0.00000          -1   0.00000       0.00000    
     36687 TIP3     2096     SWM4     H1       HDW      0.557330       1.00800           0   0.00000       0.00000    
     36688 TIP3     2096     SWM4     H2       HDW      0.557330       1.00800           0   0.00000       0.00000    
     36689 TIP3     2097     SWM4     OH2      ODW       1.71640       15.5994           0 -0.978253       1.30000    
     36690 TIP3     2097     SWM4     DOH2     DOH2     -1.71640      0.400000           0   0.00000       0.00000    
     36691 TIP3     2097     SWM4     OM       LPDW     -1.11466       0.00000          -1   0.00000       0.00000    
     36692 TIP3     2097     SWM4     H1       HDW      0.557330       1.00800           0   0.00000       0.00000    
     36693 TIP3     2097     SWM4     H2       HDW      0.557330       1.00800           0   0.00000       0.00000    
     36694 TIP3     2098     SWM4     OH2      ODW       1.71640       15.5994           0 -0.978253       1.30000    
     36695 TIP3     2098     SWM4     DOH2     DOH2     -1.71640      0.400000           0   0.00000       0.00000    
     36696 TIP3     2098     SWM4     OM       LPDW     -1.11466       0.00000          -1   0.00000       0.00000    
     36697 TIP3     2098     SWM4     H1       HDW      0.557330       1.00800           0   0.00000       0.00000    
     36698 TIP3     2098     SWM4     H2       HDW      0.557330       1.00800           0   0.00000       0.00000    
     36699 TIP3     2099     SWM4     OH2      ODW       1.71640       15.5994           0 -0.978253       1.30000    
     36700 TIP3     2099     SWM4     DOH2     DOH2     -1.71640      0.400000           0   0.00000       0.00000    
     36701 TIP3     2099     SWM4     OM       LPDW     -1.11466       0.00000          -1   0.00000       0.00000    
     36702 TIP3     2099     SWM4     H1       HDW      0.557330       1.00800           0   0.00000       0.00000    
     36703 TIP3     2099     SWM4     H2       HDW      0.557330       1.00800           0   0.00000       0.00000    
     36704 TIP3     2100     SWM4     OH2      ODW       1.71640       15.5994           0 -0.978253       1.30000    
     36705 TIP3     2100     SWM4     DOH2     DOH2     -1.71640      0.400000           0   0.00000       0.00000    
     36706 TIP3     2100     SWM4     OM       LPDW     -1.11466       0.00000          -1   0.00000       0.00000    
     36707 TIP3     2100     SWM4     H1       HDW      0.557330       1.00800           0   0.00000       0.00000    
     36708 TIP3     2100     SWM4     H2       HDW      0.557330       1.00800           0   0.00000       0.00000    
     36709 TIP3     2101     SWM4     OH2      ODW       1.71640       15.5994           0 -0.978253       1.30000    
     36710 TIP3     2101     SWM4     DOH2     DOH2     -1.71640      0.400000           0   0.00000       0.00000    
     36711 TIP3     2101     SWM4     OM       LPDW     -1.11466       0.00000          -1   0.00000       0.00000    
     36712 TIP3     2101     SWM4     H1       HDW      0.557330       1.00800           0   0.00000       0.00000    
     36713 TIP3     2101     SWM4     H2       HDW      0.557330       1.00800           0   0.00000       0.00000    
     36714 TIP3     2102     SWM4     OH2      ODW       1.71640       15.5994           0 -0.978253       1.30000    
     36715 TIP3     2102     SWM4     DOH2     DOH2     -1.71640      0.400000           0   0.00000       0.00000    
     36716 TIP3     2102     SWM4     OM       LPDW     -1.11466       0.00000          -1   0.00000       0.00000    
     36717 TIP3     2102     SWM4     H1       HDW      0.557330       1.00800           0   0.00000       0.00000    
     36718 TIP3     2102     SWM4     H2       HDW      0.557330       1.00800           0   0.00000       0.00000    
     36719 TIP3     2103     SWM4     OH2      ODW       1.71640       15.5994           0 -0.978253       1.30000    
     36720 TIP3     2103     SWM4     DOH2     DOH2     -1.71640      0.400000           0   0.00000       0.00000    
     36721 TIP3     2103     SWM4     OM       LPDW     -1.11466       0.00000          -1   0.00000       0.00000    
     36722 TIP3     2103     SWM4     H1       HDW      0.557330       1.00800           0   0.00000       0.00000    
     36723 TIP3     2103     SWM4     H2       HDW      0.557330       1.00800           0   0.00000       0.00000    
     36724 TIP3     2104     SWM4     OH2      ODW       1.71640       15.5994           0 -0.978253       1.30000    
     36725 TIP3     2104     SWM4     DOH2     DOH2     -1.71640      0.400000           0   0.00000       0.00000    
     36726 TIP3     2104     SWM4     OM       LPDW     -1.11466       0.00000          -1   0.00000       0.00000    
     36727 TIP3     2104     SWM4     H1       HDW      0.557330       1.00800           0   0.00000       0.00000    
     36728 TIP3     2104     SWM4     H2       HDW      0.557330       1.00800           0   0.00000       0.00000    
     36729 TIP3     2105     SWM4     OH2      ODW       1.71640       15.5994           0 -0.978253       1.30000    
     36730 TIP3     2105     SWM4     DOH2     DOH2     -1.71640      0.400000           0   0.00000       0.00000    
     36731 TIP3     2105     SWM4     OM       LPDW     -1.11466       0.00000          -1   0.00000       0.00000    
     36732 TIP3     2105     SWM4     H1       HDW      0.557330       1.00800           0   0.00000       0.00000    
     36733 TIP3     2105     SWM4     H2       HDW      0.557330       1.00800           0   0.00000       0.00000    
     36734 TIP3     2106     SWM4     OH2      ODW       1.71640       15.5994           0 -0.978253       1.30000    
     36735 TIP3     2106     SWM4     DOH2     DOH2     -1.71640      0.400000           0   0.00000       0.00000    
     36736 TIP3     2106     SWM4     OM       LPDW     -1.11466       0.00000          -1   0.00000       0.00000    
     36737 TIP3     2106     SWM4     H1       HDW      0.557330       1.00800           0   0.00000       0.00000    
     36738 TIP3     2106     SWM4     H2       HDW      0.557330       1.00800           0   0.00000       0.00000    
     36739 TIP3     2107     SWM4     OH2      ODW       1.71640       15.5994           0 -0.978253       1.30000    
     36740 TIP3     2107     SWM4     DOH2     DOH2     -1.71640      0.400000           0   0.00000       0.00000    
     36741 TIP3     2107     SWM4     OM       LPDW     -1.11466       0.00000          -1   0.00000       0.00000    
     36742 TIP3     2107     SWM4     H1       HDW      0.557330       1.00800           0   0.00000       0.00000    
     36743 TIP3     2107     SWM4     H2       HDW      0.557330       1.00800           0   0.00000       0.00000    
     36744 TIP3     2108     SWM4     OH2      ODW       1.71640       15.5994           0 -0.978253       1.30000    
     36745 TIP3     2108     SWM4     DOH2     DOH2     -1.71640      0.400000           0   0.00000       0.00000    
     36746 TIP3     2108     SWM4     OM       LPDW     -1.11466       0.00000          -1   0.00000       0.00000    
     36747 TIP3     2108     SWM4     H1       HDW      0.557330       1.00800           0   0.00000       0.00000    
     36748 TIP3     2108     SWM4     H2       HDW      0.557330       1.00800           0   0.00000       0.00000    
     36749 TIP3     2109     SWM4     OH2      ODW       1.71640       15.5994           0 -0.978253       1.30000    
     36750 TIP3     2109     SWM4     DOH2     DOH2     -1.71640      0.400000           0   0.00000       0.00000    
     36751 TIP3     2109     SWM4     OM       LPDW     -1.11466       0.00000          -1   0.00000       0.00000    
     36752 TIP3     2109     SWM4     H1       HDW      0.557330       1.00800           0   0.00000       0.00000    
     36753 TIP3     2109     SWM4     H2       HDW      0.557330       1.00800           0   0.00000       0.00000    
     36754 TIP3     2110     SWM4     OH2      ODW       1.71640       15.5994           0 -0.978253       1.30000    
     36755 TIP3     2110     SWM4     DOH2     DOH2     -1.71640      0.400000           0   0.00000       0.00000    
     36756 TIP3     2110     SWM4     OM       LPDW     -1.11466       0.00000          -1   0.00000       0.00000    
     36757 TIP3     2110     SWM4     H1       HDW      0.557330       1.00800           0   0.00000       0.00000    
     36758 TIP3     2110     SWM4     H2       HDW      0.557330       1.00800           0   0.00000       0.00000    
     36759 TIP3     2111     SWM4     OH2      ODW       1.71640       15.5994           0 -0.978253       1.30000    
     36760 TIP3     2111     SWM4     DOH2     DOH2     -1.71640      0.400000           0   0.00000       0.00000    
     36761 TIP3     2111     SWM4     OM       LPDW     -1.11466       0.00000          -1   0.00000       0.00000    
     36762 TIP3     2111     SWM4     H1       HDW      0.557330       1.00800           0   0.00000       0.00000    
     36763 TIP3     2111     SWM4     H2       HDW      0.557330       1.00800           0   0.00000       0.00000    
     36764 TIP3     2112     SWM4     OH2      ODW       1.71640       15.5994           0 -0.978253       1.30000    
     36765 TIP3     2112     SWM4     DOH2     DOH2     -1.71640      0.400000           0   0.00000       0.00000    
     36766 TIP3     2112     SWM4     OM       LPDW     -1.11466       0.00000          -1   0.00000       0.00000    
     36767 TIP3     2112     SWM4     H1       HDW      0.557330       1.00800           0   0.00000       0.00000    
     36768 TIP3     2112     SWM4     H2       HDW      0.557330       1.00800           0   0.00000       0.00000    
     36769 TIP3     2113     SWM4     OH2      ODW       1.71640       15.5994           0 -0.978253       1.30000    
     36770 TIP3     2113     SWM4     DOH2     DOH2     -1.71640      0.400000           0   0.00000       0.00000    
     36771 TIP3     2113     SWM4     OM       LPDW     -1.11466       0.00000          -1   0.00000       0.00000    
     36772 TIP3     2113     SWM4     H1       HDW      0.557330       1.00800           0   0.00000       0.00000    
     36773 TIP3     2113     SWM4     H2       HDW      0.557330       1.00800           0   0.00000       0.00000    
     36774 TIP3     2114     SWM4     OH2      ODW       1.71640       15.5994           0 -0.978253       1.30000    
     36775 TIP3     2114     SWM4     DOH2     DOH2     -1.71640      0.400000           0   0.00000       0.00000    
     36776 TIP3     2114     SWM4     OM       LPDW     -1.11466       0.00000          -1   0.00000       0.00000    
     36777 TIP3     2114     SWM4     H1       HDW      0.557330       1.00800           0   0.00000       0.00000    
     36778 TIP3     2114     SWM4     H2       HDW      0.557330       1.00800           0   0.00000       0.00000    
     36779 TIP3     2115     SWM4     OH2      ODW       1.71640       15.5994           0 -0.978253       1.30000    
     36780 TIP3     2115     SWM4     DOH2     DOH2     -1.71640      0.400000           0   0.00000       0.00000    
     36781 TIP3     2115     SWM4     OM       LPDW     -1.11466       0.00000          -1   0.00000       0.00000    
     36782 TIP3     2115     SWM4     H1       HDW      0.557330       1.00800           0   0.00000       0.00000    
     36783 TIP3     2115     SWM4     H2       HDW      0.557330       1.00800           0   0.00000       0.00000    
     36784 TIP3     2116     SWM4     OH2      ODW       1.71640       15.5994           0 -0.978253       1.30000    
     36785 TIP3     2116     SWM4     DOH2     DOH2     -1.71640      0.400000           0   0.00000       0.00000    
     36786 TIP3     2116     SWM4     OM       LPDW     -1.11466       0.00000          -1   0.00000       0.00000    
     36787 TIP3     2116     SWM4     H1       HDW      0.557330       1.00800           0   0.00000       0.00000    
     36788 TIP3     2116     SWM4     H2       HDW      0.557330       1.00800           0   0.00000       0.00000    
     36789 TIP3     2117     SWM4     OH2      ODW       1.71640       15.5994           0 -0.978253       1.30000    
     36790 TIP3     2117     SWM4     DOH2     DOH2     -1.71640      0.400000           0   0.00000       0.00000    
     36791 TIP3     2117     SWM4     OM       LPDW     -1.11466       0.00000          -1   0.00000       0.00000    
     36792 TIP3     2117     SWM4     H1       HDW      0.557330       1.00800           0   0.00000       0.00000    
     36793 TIP3     2117     SWM4     H2       HDW      0.557330       1.00800           0   0.00000       0.00000    
     36794 TIP3     2118     SWM4     OH2      ODW       1.71640       15.5994           0 -0.978253       1.30000    
     36795 TIP3     2118     SWM4     DOH2     DOH2     -1.71640      0.400000           0   0.00000       0.00000    
     36796 TIP3     2118     SWM4     OM       LPDW     -1.11466       0.00000          -1   0.00000       0.00000    
     36797 TIP3     2118     SWM4     H1       HDW      0.557330       1.00800           0   0.00000       0.00000    
     36798 TIP3     2118     SWM4     H2       HDW      0.557330       1.00800           0   0.00000       0.00000    
     36799 TIP3     2119     SWM4     OH2      ODW       1.71640       15.5994           0 -0.978253       1.30000    
     36800 TIP3     2119     SWM4     DOH2     DOH2     -1.71640      0.400000           0   0.00000       0.00000    
     36801 TIP3     2119     SWM4     OM       LPDW     -1.11466       0.00000          -1   0.00000       0.00000    
     36802 TIP3     2119     SWM4     H1       HDW      0.557330       1.00800           0   0.00000       0.00000    
     36803 TIP3     2119     SWM4     H2       HDW      0.557330       1.00800           0   0.00000       0.00000    
     36804 TIP3     2120     SWM4     OH2      ODW       1.71640       15.5994           0 -0.978253       1.30000    
     36805 TIP3     2120     SWM4     DOH2     DOH2     -1.71640      0.400000           0   0.00000       0.00000    
     36806 TIP3     2120     SWM4     OM       LPDW     -1.11466       0.00000          -1   0.00000       0.00000    
     36807 TIP3     2120     SWM4     H1       HDW      0.557330       1.00800           0   0.00000       0.00000    
     36808 TIP3     2120     SWM4     H2       HDW      0.557330       1.00800           0   0.00000       0.00000    
     36809 TIP3     2121     SWM4     OH2      ODW       1.71640       15.5994           0 -0.978253       1.30000    
     36810 TIP3     2121     SWM4     DOH2     DOH2     -1.71640      0.400000           0   0.00000       0.00000    
     36811 TIP3     2121     SWM4     OM       LPDW     -1.11466       0.00000          -1   0.00000       0.00000    
     36812 TIP3     2121     SWM4     H1       HDW      0.557330       1.00800           0   0.00000       0.00000    
     36813 TIP3     2121     SWM4     H2       HDW      0.557330       1.00800           0   0.00000       0.00000    
     36814 TIP3     2122     SWM4     OH2      ODW       1.71640       15.5994           0 -0.978253       1.30000    
     36815 TIP3     2122     SWM4     DOH2     DOH2     -1.71640      0.400000           0   0.00000       0.00000    
     36816 TIP3     2122     SWM4     OM       LPDW     -1.11466       0.00000          -1   0.00000       0.00000    
     36817 TIP3     2122     SWM4     H1       HDW      0.557330       1.00800           0   0.00000       0.00000    
     36818 TIP3     2122     SWM4     H2       HDW      0.557330       1.00800           0   0.00000       0.00000    
     36819 TIP3     2123     SWM4     OH2      ODW       1.71640       15.5994           0 -0.978253       1.30000    
     36820 TIP3     2123     SWM4     DOH2     DOH2     -1.71640      0.400000           0   0.00000       0.00000    
     36821 TIP3     2123     SWM4     OM       LPDW     -1.11466       0.00000          -1   0.00000       0.00000    
     36822 TIP3     2123     SWM4     H1       HDW      0.557330       1.00800           0   0.00000       0.00000    
     36823 TIP3     2123     SWM4     H2       HDW      0.557330       1.00800           0   0.00000       0.00000    
     36824 TIP3     2124     SWM4     OH2      ODW       1.71640       15.5994           0 -0.978253       1.30000    
     36825 TIP3     2124     SWM4     DOH2     DOH2     -1.71640      0.400000           0   0.00000       0.00000    
     36826 TIP3     2124     SWM4     OM       LPDW     -1.11466       0.00000          -1   0.00000       0.00000    
     36827 TIP3     2124     SWM4     H1       HDW      0.557330       1.00800           0   0.00000       0.00000    
     36828 TIP3     2124     SWM4     H2       HDW      0.557330       1.00800           0   0.00000       0.00000    
     36829 TIP3     2125     SWM4     OH2      ODW       1.71640       15.5994           0 -0.978253       1.30000    
     36830 TIP3     2125     SWM4     DOH2     DOH2     -1.71640      0.400000           0   0.00000       0.00000    
     36831 TIP3     2125     SWM4     OM       LPDW     -1.11466       0.00000          -1   0.00000       0.00000    
     36832 TIP3     2125     SWM4     H1       HDW      0.557330       1.00800           0   0.00000       0.00000    
     36833 TIP3     2125     SWM4     H2       HDW      0.557330       1.00800           0   0.00000       0.00000    
     36834 TIP3     2126     SWM4     OH2      ODW       1.71640       15.5994           0 -0.978253       1.30000    
     36835 TIP3     2126     SWM4     DOH2     DOH2     -1.71640      0.400000           0   0.00000       0.00000    
     36836 TIP3     2126     SWM4     OM       LPDW     -1.11466       0.00000          -1   0.00000       0.00000    
     36837 TIP3     2126     SWM4     H1       HDW      0.557330       1.00800           0   0.00000       0.00000    
     36838 TIP3     2126     SWM4     H2       HDW      0.557330       1.00800           0   0.00000       0.00000    
     36839 TIP3     2127     SWM4     OH2      ODW       1.71640       15.5994           0 -0.978253       1.30000    
     36840 TIP3     2127     SWM4     DOH2     DOH2     -1.71640      0.400000           0   0.00000       0.00000    
     36841 TIP3     2127     SWM4     OM       LPDW     -1.11466       0.00000          -1   0.00000       0.00000    
     36842 TIP3     2127     SWM4     H1       HDW      0.557330       1.00800           0   0.00000       0.00000    
     36843 TIP3     2127     SWM4     H2       HDW      0.557330       1.00800           0   0.00000       0.00000    
     36844 TIP3     2128     SWM4     OH2      ODW       1.71640       15.5994           0 -0.978253       1.30000    
     36845 TIP3     2128     SWM4     DOH2     DOH2     -1.71640      0.400000           0   0.00000       0.00000    
     36846 TIP3     2128     SWM4     OM       LPDW     -1.11466       0.00000          -1   0.00000       0.00000    
     36847 TIP3     2128     SWM4     H1       HDW      0.557330       1.00800           0   0.00000       0.00000    
     36848 TIP3     2128     SWM4     H2       HDW      0.557330       1.00800           0   0.00000       0.00000    
     36849 TIP3     2129     SWM4     OH2      ODW       1.71640       15.5994           0 -0.978253       1.30000    
     36850 TIP3     2129     SWM4     DOH2     DOH2     -1.71640      0.400000           0   0.00000       0.00000    
     36851 TIP3     2129     SWM4     OM       LPDW     -1.11466       0.00000          -1   0.00000       0.00000    
     36852 TIP3     2129     SWM4     H1       HDW      0.557330       1.00800           0   0.00000       0.00000    
     36853 TIP3     2129     SWM4     H2       HDW      0.557330       1.00800           0   0.00000       0.00000    
     36854 TIP3     2130     SWM4     OH2      ODW       1.71640       15.5994           0 -0.978253       1.30000    
     36855 TIP3     2130     SWM4     DOH2     DOH2     -1.71640      0.400000           0   0.00000       0.00000    
     36856 TIP3     2130     SWM4     OM       LPDW     -1.11466       0.00000          -1   0.00000       0.00000    
     36857 TIP3     2130     SWM4     H1       HDW      0.557330       1.00800           0   0.00000       0.00000    
     36858 TIP3     2130     SWM4     H2       HDW      0.557330       1.00800           0   0.00000       0.00000    
     36859 TIP3     2131     SWM4     OH2      ODW       1.71640       15.5994           0 -0.978253       1.30000    
     36860 TIP3     2131     SWM4     DOH2     DOH2     -1.71640      0.400000           0   0.00000       0.00000    
     36861 TIP3     2131     SWM4     OM       LPDW     -1.11466       0.00000          -1   0.00000       0.00000    
     36862 TIP3     2131     SWM4     H1       HDW      0.557330       1.00800           0   0.00000       0.00000    
     36863 TIP3     2131     SWM4     H2       HDW      0.557330       1.00800           0   0.00000       0.00000    
     36864 TIP3     2132     SWM4     OH2      ODW       1.71640       15.5994           0 -0.978253       1.30000    
     36865 TIP3     2132     SWM4     DOH2     DOH2     -1.71640      0.400000           0   0.00000       0.00000    
     36866 TIP3     2132     SWM4     OM       LPDW     -1.11466       0.00000          -1   0.00000       0.00000    
     36867 TIP3     2132     SWM4     H1       HDW      0.557330       1.00800           0   0.00000       0.00000    
     36868 TIP3     2132     SWM4     H2       HDW      0.557330       1.00800           0   0.00000       0.00000    
     36869 TIP3     2133     SWM4     OH2      ODW       1.71640       15.5994           0 -0.978253       1.30000    
     36870 TIP3     2133     SWM4     DOH2     DOH2     -1.71640      0.400000           0   0.00000       0.00000    
     36871 TIP3     2133     SWM4     OM       LPDW     -1.11466       0.00000          -1   0.00000       0.00000    
     36872 TIP3     2133     SWM4     H1       HDW      0.557330       1.00800           0   0.00000       0.00000    
     36873 TIP3     2133     SWM4     H2       HDW      0.557330       1.00800           0   0.00000       0.00000    
     36874 TIP3     2134     SWM4     OH2      ODW       1.71640       15.5994           0 -0.978253       1.30000    
     36875 TIP3     2134     SWM4     DOH2     DOH2     -1.71640      0.400000           0   0.00000       0.00000    
     36876 TIP3     2134     SWM4     OM       LPDW     -1.11466       0.00000          -1   0.00000       0.00000    
     36877 TIP3     2134     SWM4     H1       HDW      0.557330       1.00800           0   0.00000       0.00000    
     36878 TIP3     2134     SWM4     H2       HDW      0.557330       1.00800           0   0.00000       0.00000    
     36879 TIP3     2135     SWM4     OH2      ODW       1.71640       15.5994           0 -0.978253       1.30000    
     36880 TIP3     2135     SWM4     DOH2     DOH2     -1.71640      0.400000           0   0.00000       0.00000    
     36881 TIP3     2135     SWM4     OM       LPDW     -1.11466       0.00000          -1   0.00000       0.00000    
     36882 TIP3     2135     SWM4     H1       HDW      0.557330       1.00800           0   0.00000       0.00000    
     36883 TIP3     2135     SWM4     H2       HDW      0.557330       1.00800           0   0.00000       0.00000    
     36884 TIP3     2136     SWM4     OH2      ODW       1.71640       15.5994           0 -0.978253       1.30000    
     36885 TIP3     2136     SWM4     DOH2     DOH2     -1.71640      0.400000           0   0.00000       0.00000    
     36886 TIP3     2136     SWM4     OM       LPDW     -1.11466       0.00000          -1   0.00000       0.00000    
     36887 TIP3     2136     SWM4     H1       HDW      0.557330       1.00800           0   0.00000       0.00000    
     36888 TIP3     2136     SWM4     H2       HDW      0.557330       1.00800           0   0.00000       0.00000    
     36889 TIP3     2137     SWM4     OH2      ODW       1.71640       15.5994           0 -0.978253       1.30000    
     36890 TIP3     2137     SWM4     DOH2     DOH2     -1.71640      0.400000           0   0.00000       0.00000    
     36891 TIP3     2137     SWM4     OM       LPDW     -1.11466       0.00000          -1   0.00000       0.00000    
     36892 TIP3     2137     SWM4     H1       HDW      0.557330       1.00800           0   0.00000       0.00000    
     36893 TIP3     2137     SWM4     H2       HDW      0.557330       1.00800           0   0.00000       0.00000    
     36894 TIP3     2138     SWM4     OH2      ODW       1.71640       15.5994           0 -0.978253       1.30000    
     36895 TIP3     2138     SWM4     DOH2     DOH2     -1.71640      0.400000           0   0.00000       0.00000    
     36896 TIP3     2138     SWM4     OM       LPDW     -1.11466       0.00000          -1   0.00000       0.00000    
     36897 TIP3     2138     SWM4     H1       HDW      0.557330       1.00800           0   0.00000       0.00000    
     36898 TIP3     2138     SWM4     H2       HDW      0.557330       1.00800           0   0.00000       0.00000    
     36899 TIP3     2139     SWM4     OH2      ODW       1.71640       15.5994           0 -0.978253       1.30000    
     36900 TIP3     2139     SWM4     DOH2     DOH2     -1.71640      0.400000           0   0.00000       0.00000    
     36901 TIP3     2139     SWM4     OM       LPDW     -1.11466       0.00000          -1   0.00000       0.00000    
     36902 TIP3     2139     SWM4     H1       HDW      0.557330       1.00800           0   0.00000       0.00000    
     36903 TIP3     2139     SWM4     H2       HDW      0.557330       1.00800           0   0.00000       0.00000    
     36904 TIP3     2140     SWM4     OH2      ODW       1.71640       15.5994           0 -0.978253       1.30000    
     36905 TIP3     2140     SWM4     DOH2     DOH2     -1.71640      0.400000           0   0.00000       0.00000    
     36906 TIP3     2140     SWM4     OM       LPDW     -1.11466       0.00000          -1   0.00000       0.00000    
     36907 TIP3     2140     SWM4     H1       HDW      0.557330       1.00800           0   0.00000       0.00000    
     36908 TIP3     2140     SWM4     H2       HDW      0.557330       1.00800           0   0.00000       0.00000    
     36909 TIP3     2141     SWM4     OH2      ODW       1.71640       15.5994           0 -0.978253       1.30000    
     36910 TIP3     2141     SWM4     DOH2     DOH2     -1.71640      0.400000           0   0.00000       0.00000    
     36911 TIP3     2141     SWM4     OM       LPDW     -1.11466       0.00000          -1   0.00000       0.00000    
     36912 TIP3     2141     SWM4     H1       HDW      0.557330       1.00800           0   0.00000       0.00000    
     36913 TIP3     2141     SWM4     H2       HDW      0.557330       1.00800           0   0.00000       0.00000    
     36914 TIP3     2142     SWM4     OH2      ODW       1.71640       15.5994           0 -0.978253       1.30000    
     36915 TIP3     2142     SWM4     DOH2     DOH2     -1.71640      0.400000           0   0.00000       0.00000    
     36916 TIP3     2142     SWM4     OM       LPDW     -1.11466       0.00000          -1   0.00000       0.00000    
     36917 TIP3     2142     SWM4     H1       HDW      0.557330       1.00800           0   0.00000       0.00000    
     36918 TIP3     2142     SWM4     H2       HDW      0.557330       1.00800           0   0.00000       0.00000    
     36919 TIP3     2143     SWM4     OH2      ODW       1.71640       15.5994           0 -0.978253       1.30000    
     36920 TIP3     2143     SWM4     DOH2     DOH2     -1.71640      0.400000           0   0.00000       0.00000    
     36921 TIP3     2143     SWM4     OM       LPDW     -1.11466       0.00000          -1   0.00000       0.00000    
     36922 TIP3     2143     SWM4     H1       HDW      0.557330       1.00800           0   0.00000       0.00000    
     36923 TIP3     2143     SWM4     H2       HDW      0.557330       1.00800           0   0.00000       0.00000    
     36924 TIP3     2144     SWM4     OH2      ODW       1.71640       15.5994           0 -0.978253       1.30000    
     36925 TIP3     2144     SWM4     DOH2     DOH2     -1.71640      0.400000           0   0.00000       0.00000    
     36926 TIP3     2144     SWM4     OM       LPDW     -1.11466       0.00000          -1   0.00000       0.00000    
     36927 TIP3     2144     SWM4     H1       HDW      0.557330       1.00800           0   0.00000       0.00000    
     36928 TIP3     2144     SWM4     H2       HDW      0.557330       1.00800           0   0.00000       0.00000    
     36929 TIP3     2145     SWM4     OH2      ODW       1.71640       15.5994           0 -0.978253       1.30000    
     36930 TIP3     2145     SWM4     DOH2     DOH2     -1.71640      0.400000           0   0.00000       0.00000    
     36931 TIP3     2145     SWM4     OM       LPDW     -1.11466       0.00000          -1   0.00000       0.00000    
     36932 TIP3     2145     SWM4     H1       HDW      0.557330       1.00800           0   0.00000       0.00000    
     36933 TIP3     2145     SWM4     H2       HDW      0.557330       1.00800           0   0.00000       0.00000    
     36934 TIP3     2146     SWM4     OH2      ODW       1.71640       15.5994           0 -0.978253       1.30000    
     36935 TIP3     2146     SWM4     DOH2     DOH2     -1.71640      0.400000           0   0.00000       0.00000    
     36936 TIP3     2146     SWM4     OM       LPDW     -1.11466       0.00000          -1   0.00000       0.00000    
     36937 TIP3     2146     SWM4     H1       HDW      0.557330       1.00800           0   0.00000       0.00000    
     36938 TIP3     2146     SWM4     H2       HDW      0.557330       1.00800           0   0.00000       0.00000    
     36939 TIP3     2147     SWM4     OH2      ODW       1.71640       15.5994           0 -0.978253       1.30000    
     36940 TIP3     2147     SWM4     DOH2     DOH2     -1.71640      0.400000           0   0.00000       0.00000    
     36941 TIP3     2147     SWM4     OM       LPDW     -1.11466       0.00000          -1   0.00000       0.00000    
     36942 TIP3     2147     SWM4     H1       HDW      0.557330       1.00800           0   0.00000       0.00000    
     36943 TIP3     2147     SWM4     H2       HDW      0.557330       1.00800           0   0.00000       0.00000    
     36944 TIP3     2148     SWM4     OH2      ODW       1.71640       15.5994           0 -0.978253       1.30000    
     36945 TIP3     2148     SWM4     DOH2     DOH2     -1.71640      0.400000           0   0.00000       0.00000    
     36946 TIP3     2148     SWM4     OM       LPDW     -1.11466       0.00000          -1   0.00000       0.00000    
     36947 TIP3     2148     SWM4     H1       HDW      0.557330       1.00800           0   0.00000       0.00000    
     36948 TIP3     2148     SWM4     H2       HDW      0.557330       1.00800           0   0.00000       0.00000    
     36949 TIP3     2149     SWM4     OH2      ODW       1.71640       15.5994           0 -0.978253       1.30000    
     36950 TIP3     2149     SWM4     DOH2     DOH2     -1.71640      0.400000           0   0.00000       0.00000    
     36951 TIP3     2149     SWM4     OM       LPDW     -1.11466       0.00000          -1   0.00000       0.00000    
     36952 TIP3     2149     SWM4     H1       HDW      0.557330       1.00800           0   0.00000       0.00000    
     36953 TIP3     2149     SWM4     H2       HDW      0.557330       1.00800           0   0.00000       0.00000    
     36954 TIP3     2150     SWM4     OH2      ODW       1.71640       15.5994           0 -0.978253       1.30000    
     36955 TIP3     2150     SWM4     DOH2     DOH2     -1.71640      0.400000           0   0.00000       0.00000    
     36956 TIP3     2150     SWM4     OM       LPDW     -1.11466       0.00000          -1   0.00000       0.00000    
     36957 TIP3     2150     SWM4     H1       HDW      0.557330       1.00800           0   0.00000       0.00000    
     36958 TIP3     2150     SWM4     H2       HDW      0.557330       1.00800           0   0.00000       0.00000    
     36959 TIP3     2151     SWM4     OH2      ODW       1.71640       15.5994           0 -0.978253       1.30000    
     36960 TIP3     2151     SWM4     DOH2     DOH2     -1.71640      0.400000           0   0.00000       0.00000    
     36961 TIP3     2151     SWM4     OM       LPDW     -1.11466       0.00000          -1   0.00000       0.00000    
     36962 TIP3     2151     SWM4     H1       HDW      0.557330       1.00800           0   0.00000       0.00000    
     36963 TIP3     2151     SWM4     H2       HDW      0.557330       1.00800           0   0.00000       0.00000    
     36964 TIP3     2152     SWM4     OH2      ODW       1.71640       15.5994           0 -0.978253       1.30000    
     36965 TIP3     2152     SWM4     DOH2     DOH2     -1.71640      0.400000           0   0.00000       0.00000    
     36966 TIP3     2152     SWM4     OM       LPDW     -1.11466       0.00000          -1   0.00000       0.00000    
     36967 TIP3     2152     SWM4     H1       HDW      0.557330       1.00800           0   0.00000       0.00000    
     36968 TIP3     2152     SWM4     H2       HDW      0.557330       1.00800           0   0.00000       0.00000    
     36969 TIP3     2153     SWM4     OH2      ODW       1.71640       15.5994           0 -0.978253       1.30000    
     36970 TIP3     2153     SWM4     DOH2     DOH2     -1.71640      0.400000           0   0.00000       0.00000    
     36971 TIP3     2153     SWM4     OM       LPDW     -1.11466       0.00000          -1   0.00000       0.00000    
     36972 TIP3     2153     SWM4     H1       HDW      0.557330       1.00800           0   0.00000       0.00000    
     36973 TIP3     2153     SWM4     H2       HDW      0.557330       1.00800           0   0.00000       0.00000    
     36974 TIP3     2154     SWM4     OH2      ODW       1.71640       15.5994           0 -0.978253       1.30000    
     36975 TIP3     2154     SWM4     DOH2     DOH2     -1.71640      0.400000           0   0.00000       0.00000    
     36976 TIP3     2154     SWM4     OM       LPDW     -1.11466       0.00000          -1   0.00000       0.00000    
     36977 TIP3     2154     SWM4     H1       HDW      0.557330       1.00800           0   0.00000       0.00000    
     36978 TIP3     2154     SWM4     H2       HDW      0.557330       1.00800           0   0.00000       0.00000    
     36979 TIP3     2155     SWM4     OH2      ODW       1.71640       15.5994           0 -0.978253       1.30000    
     36980 TIP3     2155     SWM4     DOH2     DOH2     -1.71640      0.400000           0   0.00000       0.00000    
     36981 TIP3     2155     SWM4     OM       LPDW     -1.11466       0.00000          -1   0.00000       0.00000    
     36982 TIP3     2155     SWM4     H1       HDW      0.557330       1.00800           0   0.00000       0.00000    
     36983 TIP3     2155     SWM4     H2       HDW      0.557330       1.00800           0   0.00000       0.00000    
     36984 TIP3     2156     SWM4     OH2      ODW       1.71640       15.5994           0 -0.978253       1.30000    
     36985 TIP3     2156     SWM4     DOH2     DOH2     -1.71640      0.400000           0   0.00000       0.00000    
     36986 TIP3     2156     SWM4     OM       LPDW     -1.11466       0.00000          -1   0.00000       0.00000    
     36987 TIP3     2156     SWM4     H1       HDW      0.557330       1.00800           0   0.00000       0.00000    
     36988 TIP3     2156     SWM4     H2       HDW      0.557330       1.00800           0   0.00000       0.00000    
     36989 TIP3     2157     SWM4     OH2      ODW       1.71640       15.5994           0 -0.978253       1.30000    
     36990 TIP3     2157     SWM4     DOH2     DOH2     -1.71640      0.400000           0   0.00000       0.00000    
     36991 TIP3     2157     SWM4     OM       LPDW     -1.11466       0.00000          -1   0.00000       0.00000    
     36992 TIP3     2157     SWM4     H1       HDW      0.557330       1.00800           0   0.00000       0.00000    
     36993 TIP3     2157     SWM4     H2       HDW      0.557330       1.00800           0   0.00000       0.00000    
     36994 TIP3     2158     SWM4     OH2      ODW       1.71640       15.5994           0 -0.978253       1.30000    
     36995 TIP3     2158     SWM4     DOH2     DOH2     -1.71640      0.400000           0   0.00000       0.00000    
     36996 TIP3     2158     SWM4     OM       LPDW     -1.11466       0.00000          -1   0.00000       0.00000    
     36997 TIP3     2158     SWM4     H1       HDW      0.557330       1.00800           0   0.00000       0.00000    
     36998 TIP3     2158     SWM4     H2       HDW      0.557330       1.00800           0   0.00000       0.00000    
     36999 TIP3     2159     SWM4     OH2      ODW       1.71640       15.5994           0 -0.978253       1.30000    
     37000 TIP3     2159     SWM4     DOH2     DOH2     -1.71640      0.400000           0   0.00000       0.00000    
     37001 TIP3     2159     SWM4     OM       LPDW     -1.11466       0.00000          -1   0.00000       0.00000    
     37002 TIP3     2159     SWM4     H1       HDW      0.557330       1.00800           0   0.00000       0.00000    
     37003 TIP3     2159     SWM4     H2       HDW      0.557330       1.00800           0   0.00000       0.00000    
     37004 TIP3     2160     SWM4     OH2      ODW       1.71640       15.5994           0 -0.978253       1.30000    
     37005 TIP3     2160     SWM4     DOH2     DOH2     -1.71640      0.400000           0   0.00000       0.00000    
     37006 TIP3     2160     SWM4     OM       LPDW     -1.11466       0.00000          -1   0.00000       0.00000    
     37007 TIP3     2160     SWM4     H1       HDW      0.557330       1.00800           0   0.00000       0.00000    
     37008 TIP3     2160     SWM4     H2       HDW      0.557330       1.00800           0   0.00000       0.00000    
     37009 TIP3     2161     SWM4     OH2      ODW       1.71640       15.5994           0 -0.978253       1.30000    
     37010 TIP3     2161     SWM4     DOH2     DOH2     -1.71640      0.400000           0   0.00000       0.00000    
     37011 TIP3     2161     SWM4     OM       LPDW     -1.11466       0.00000          -1   0.00000       0.00000    
     37012 TIP3     2161     SWM4     H1       HDW      0.557330       1.00800           0   0.00000       0.00000    
     37013 TIP3     2161     SWM4     H2       HDW      0.557330       1.00800           0   0.00000       0.00000    
     37014 TIP3     2162     SWM4     OH2      ODW       1.71640       15.5994           0 -0.978253       1.30000    
     37015 TIP3     2162     SWM4     DOH2     DOH2     -1.71640      0.400000           0   0.00000       0.00000    
     37016 TIP3     2162     SWM4     OM       LPDW     -1.11466       0.00000          -1   0.00000       0.00000    
     37017 TIP3     2162     SWM4     H1       HDW      0.557330       1.00800           0   0.00000       0.00000    
     37018 TIP3     2162     SWM4     H2       HDW      0.557330       1.00800           0   0.00000       0.00000    
     37019 TIP3     2163     SWM4     OH2      ODW       1.71640       15.5994           0 -0.978253       1.30000    
     37020 TIP3     2163     SWM4     DOH2     DOH2     -1.71640      0.400000           0   0.00000       0.00000    
     37021 TIP3     2163     SWM4     OM       LPDW     -1.11466       0.00000          -1   0.00000       0.00000    
     37022 TIP3     2163     SWM4     H1       HDW      0.557330       1.00800           0   0.00000       0.00000    
     37023 TIP3     2163     SWM4     H2       HDW      0.557330       1.00800           0   0.00000       0.00000    
     37024 TIP3     2164     SWM4     OH2      ODW       1.71640       15.5994           0 -0.978253       1.30000    
     37025 TIP3     2164     SWM4     DOH2     DOH2     -1.71640      0.400000           0   0.00000       0.00000    
     37026 TIP3     2164     SWM4     OM       LPDW     -1.11466       0.00000          -1   0.00000       0.00000    
     37027 TIP3     2164     SWM4     H1       HDW      0.557330       1.00800           0   0.00000       0.00000    
     37028 TIP3     2164     SWM4     H2       HDW      0.557330       1.00800           0   0.00000       0.00000    
     37029 TIP3     2165     SWM4     OH2      ODW       1.71640       15.5994           0 -0.978253       1.30000    
     37030 TIP3     2165     SWM4     DOH2     DOH2     -1.71640      0.400000           0   0.00000       0.00000    
     37031 TIP3     2165     SWM4     OM       LPDW     -1.11466       0.00000          -1   0.00000       0.00000    
     37032 TIP3     2165     SWM4     H1       HDW      0.557330       1.00800           0   0.00000       0.00000    
     37033 TIP3     2165     SWM4     H2       HDW      0.557330       1.00800           0   0.00000       0.00000    
     37034 TIP3     2166     SWM4     OH2      ODW       1.71640       15.5994           0 -0.978253       1.30000    
     37035 TIP3     2166     SWM4     DOH2     DOH2     -1.71640      0.400000           0   0.00000       0.00000    
     37036 TIP3     2166     SWM4     OM       LPDW     -1.11466       0.00000          -1   0.00000       0.00000    
     37037 TIP3     2166     SWM4     H1       HDW      0.557330       1.00800           0   0.00000       0.00000    
     37038 TIP3     2166     SWM4     H2       HDW      0.557330       1.00800           0   0.00000       0.00000    
     37039 TIP3     2167     SWM4     OH2      ODW       1.71640       15.5994           0 -0.978253       1.30000    
     37040 TIP3     2167     SWM4     DOH2     DOH2     -1.71640      0.400000           0   0.00000       0.00000    
     37041 TIP3     2167     SWM4     OM       LPDW     -1.11466       0.00000          -1   0.00000       0.00000    
     37042 TIP3     2167     SWM4     H1       HDW      0.557330       1.00800           0   0.00000       0.00000    
     37043 TIP3     2167     SWM4     H2       HDW      0.557330       1.00800           0   0.00000       0.00000    
     37044 TIP3     2168     SWM4     OH2      ODW       1.71640       15.5994           0 -0.978253       1.30000    
     37045 TIP3     2168     SWM4     DOH2     DOH2     -1.71640      0.400000           0   0.00000       0.00000    
     37046 TIP3     2168     SWM4     OM       LPDW     -1.11466       0.00000          -1   0.00000       0.00000    
     37047 TIP3     2168     SWM4     H1       HDW      0.557330       1.00800           0   0.00000       0.00000    
     37048 TIP3     2168     SWM4     H2       HDW      0.557330       1.00800           0   0.00000       0.00000    
     37049 TIP3     2169     SWM4     OH2      ODW       1.71640       15.5994           0 -0.978253       1.30000    
     37050 TIP3     2169     SWM4     DOH2     DOH2     -1.71640      0.400000           0   0.00000       0.00000    
     37051 TIP3     2169     SWM4     OM       LPDW     -1.11466       0.00000          -1   0.00000       0.00000    
     37052 TIP3     2169     SWM4     H1       HDW      0.557330       1.00800           0   0.00000       0.00000    
     37053 TIP3     2169     SWM4     H2       HDW      0.557330       1.00800           0   0.00000       0.00000    
     37054 TIP3     2170     SWM4     OH2      ODW       1.71640       15.5994           0 -0.978253       1.30000    
     37055 TIP3     2170     SWM4     DOH2     DOH2     -1.71640      0.400000           0   0.00000       0.00000    
     37056 TIP3     2170     SWM4     OM       LPDW     -1.11466       0.00000          -1   0.00000       0.00000    
     37057 TIP3     2170     SWM4     H1       HDW      0.557330       1.00800           0   0.00000       0.00000    
     37058 TIP3     2170     SWM4     H2       HDW      0.557330       1.00800           0   0.00000       0.00000    
     37059 TIP3     2171     SWM4     OH2      ODW       1.71640       15.5994           0 -0.978253       1.30000    
     37060 TIP3     2171     SWM4     DOH2     DOH2     -1.71640      0.400000           0   0.00000       0.00000    
     37061 TIP3     2171     SWM4     OM       LPDW     -1.11466       0.00000          -1   0.00000       0.00000    
     37062 TIP3     2171     SWM4     H1       HDW      0.557330       1.00800           0   0.00000       0.00000    
     37063 TIP3     2171     SWM4     H2       HDW      0.557330       1.00800           0   0.00000       0.00000    
     37064 TIP3     2172     SWM4     OH2      ODW       1.71640       15.5994           0 -0.978253       1.30000    
     37065 TIP3     2172     SWM4     DOH2     DOH2     -1.71640      0.400000           0   0.00000       0.00000    
     37066 TIP3     2172     SWM4     OM       LPDW     -1.11466       0.00000          -1   0.00000       0.00000    
     37067 TIP3     2172     SWM4     H1       HDW      0.557330       1.00800           0   0.00000       0.00000    
     37068 TIP3     2172     SWM4     H2       HDW      0.557330       1.00800           0   0.00000       0.00000    
     37069 TIP3     2173     SWM4     OH2      ODW       1.71640       15.5994           0 -0.978253       1.30000    
     37070 TIP3     2173     SWM4     DOH2     DOH2     -1.71640      0.400000           0   0.00000       0.00000    
     37071 TIP3     2173     SWM4     OM       LPDW     -1.11466       0.00000          -1   0.00000       0.00000    
     37072 TIP3     2173     SWM4     H1       HDW      0.557330       1.00800           0   0.00000       0.00000    
     37073 TIP3     2173     SWM4     H2       HDW      0.557330       1.00800           0   0.00000       0.00000    
     37074 TIP3     2174     SWM4     OH2      ODW       1.71640       15.5994           0 -0.978253       1.30000    
     37075 TIP3     2174     SWM4     DOH2     DOH2     -1.71640      0.400000           0   0.00000       0.00000    
     37076 TIP3     2174     SWM4     OM       LPDW     -1.11466       0.00000          -1   0.00000       0.00000    
     37077 TIP3     2174     SWM4     H1       HDW      0.557330       1.00800           0   0.00000       0.00000    
     37078 TIP3     2174     SWM4     H2       HDW      0.557330       1.00800           0   0.00000       0.00000    
     37079 TIP3     2175     SWM4     OH2      ODW       1.71640       15.5994           0 -0.978253       1.30000    
     37080 TIP3     2175     SWM4     DOH2     DOH2     -1.71640      0.400000           0   0.00000       0.00000    
     37081 TIP3     2175     SWM4     OM       LPDW     -1.11466       0.00000          -1   0.00000       0.00000    
     37082 TIP3     2175     SWM4     H1       HDW      0.557330       1.00800           0   0.00000       0.00000    
     37083 TIP3     2175     SWM4     H2       HDW      0.557330       1.00800           0   0.00000       0.00000    
     37084 TIP3     2176     SWM4     OH2      ODW       1.71640       15.5994           0 -0.978253       1.30000    
     37085 TIP3     2176     SWM4     DOH2     DOH2     -1.71640      0.400000           0   0.00000       0.00000    
     37086 TIP3     2176     SWM4     OM       LPDW     -1.11466       0.00000          -1   0.00000       0.00000    
     37087 TIP3     2176     SWM4     H1       HDW      0.557330       1.00800           0   0.00000       0.00000    
     37088 TIP3     2176     SWM4     H2       HDW      0.557330       1.00800           0   0.00000       0.00000    
     37089 TIP3     2177     SWM4     OH2      ODW       1.71640       15.5994           0 -0.978253       1.30000    
     37090 TIP3     2177     SWM4     DOH2     DOH2     -1.71640      0.400000           0   0.00000       0.00000    
     37091 TIP3     2177     SWM4     OM       LPDW     -1.11466       0.00000          -1   0.00000       0.00000    
     37092 TIP3     2177     SWM4     H1       HDW      0.557330       1.00800           0   0.00000       0.00000    
     37093 TIP3     2177     SWM4     H2       HDW      0.557330       1.00800           0   0.00000       0.00000    
     37094 TIP3     2178     SWM4     OH2      ODW       1.71640       15.5994           0 -0.978253       1.30000    
     37095 TIP3     2178     SWM4     DOH2     DOH2     -1.71640      0.400000           0   0.00000       0.00000    
     37096 TIP3     2178     SWM4     OM       LPDW     -1.11466       0.00000          -1   0.00000       0.00000    
     37097 TIP3     2178     SWM4     H1       HDW      0.557330       1.00800           0   0.00000       0.00000    
     37098 TIP3     2178     SWM4     H2       HDW      0.557330       1.00800           0   0.00000       0.00000    
     37099 TIP3     2179     SWM4     OH2      ODW       1.71640       15.5994           0 -0.978253       1.30000    
     37100 TIP3     2179     SWM4     DOH2     DOH2     -1.71640      0.400000           0   0.00000       0.00000    
     37101 TIP3     2179     SWM4     OM       LPDW     -1.11466       0.00000          -1   0.00000       0.00000    
     37102 TIP3     2179     SWM4     H1       HDW      0.557330       1.00800           0   0.00000       0.00000    
     37103 TIP3     2179     SWM4     H2       HDW      0.557330       1.00800           0   0.00000       0.00000    
     37104 TIP3     2180     SWM4     OH2      ODW       1.71640       15.5994           0 -0.978253       1.30000    
     37105 TIP3     2180     SWM4     DOH2     DOH2     -1.71640      0.400000           0   0.00000       0.00000    
     37106 TIP3     2180     SWM4     OM       LPDW     -1.11466       0.00000          -1   0.00000       0.00000    
     37107 TIP3     2180     SWM4     H1       HDW      0.557330       1.00800           0   0.00000       0.00000    
     37108 TIP3     2180     SWM4     H2       HDW      0.557330       1.00800           0   0.00000       0.00000    
     37109 TIP3     2181     SWM4     OH2      ODW       1.71640       15.5994           0 -0.978253       1.30000    
     37110 TIP3     2181     SWM4     DOH2     DOH2     -1.71640      0.400000           0   0.00000       0.00000    
     37111 TIP3     2181     SWM4     OM       LPDW     -1.11466       0.00000          -1   0.00000       0.00000    
     37112 TIP3     2181     SWM4     H1       HDW      0.557330       1.00800           0   0.00000       0.00000    
     37113 TIP3     2181     SWM4     H2       HDW      0.557330       1.00800           0   0.00000       0.00000    
     37114 TIP3     2182     SWM4     OH2      ODW       1.71640       15.5994           0 -0.978253       1.30000    
     37115 TIP3     2182     SWM4     DOH2     DOH2     -1.71640      0.400000           0   0.00000       0.00000    
     37116 TIP3     2182     SWM4     OM       LPDW     -1.11466       0.00000          -1   0.00000       0.00000    
     37117 TIP3     2182     SWM4     H1       HDW      0.557330       1.00800           0   0.00000       0.00000    
     37118 TIP3     2182     SWM4     H2       HDW      0.557330       1.00800           0   0.00000       0.00000    
     37119 TIP3     2183     SWM4     OH2      ODW       1.71640       15.5994           0 -0.978253       1.30000    
     37120 TIP3     2183     SWM4     DOH2     DOH2     -1.71640      0.400000           0   0.00000       0.00000    
     37121 TIP3     2183     SWM4     OM       LPDW     -1.11466       0.00000          -1   0.00000       0.00000    
     37122 TIP3     2183     SWM4     H1       HDW      0.557330       1.00800           0   0.00000       0.00000    
     37123 TIP3     2183     SWM4     H2       HDW      0.557330       1.00800           0   0.00000       0.00000    
     37124 TIP3     2184     SWM4     OH2      ODW       1.71640       15.5994           0 -0.978253       1.30000    
     37125 TIP3     2184     SWM4     DOH2     DOH2     -1.71640      0.400000           0   0.00000       0.00000    
     37126 TIP3     2184     SWM4     OM       LPDW     -1.11466       0.00000          -1   0.00000       0.00000    
     37127 TIP3     2184     SWM4     H1       HDW      0.557330       1.00800           0   0.00000       0.00000    
     37128 TIP3     2184     SWM4     H2       HDW      0.557330       1.00800           0   0.00000       0.00000    
     37129 TIP3     2185     SWM4     OH2      ODW       1.71640       15.5994           0 -0.978253       1.30000    
     37130 TIP3     2185     SWM4     DOH2     DOH2     -1.71640      0.400000           0   0.00000       0.00000    
     37131 TIP3     2185     SWM4     OM       LPDW     -1.11466       0.00000          -1   0.00000       0.00000    
     37132 TIP3     2185     SWM4     H1       HDW      0.557330       1.00800           0   0.00000       0.00000    
     37133 TIP3     2185     SWM4     H2       HDW      0.557330       1.00800           0   0.00000       0.00000    
     37134 TIP3     2186     SWM4     OH2      ODW       1.71640       15.5994           0 -0.978253       1.30000    
     37135 TIP3     2186     SWM4     DOH2     DOH2     -1.71640      0.400000           0   0.00000       0.00000    
     37136 TIP3     2186     SWM4     OM       LPDW     -1.11466       0.00000          -1   0.00000       0.00000    
     37137 TIP3     2186     SWM4     H1       HDW      0.557330       1.00800           0   0.00000       0.00000    
     37138 TIP3     2186     SWM4     H2       HDW      0.557330       1.00800           0   0.00000       0.00000    
     37139 TIP3     2187     SWM4     OH2      ODW       1.71640       15.5994           0 -0.978253       1.30000    
     37140 TIP3     2187     SWM4     DOH2     DOH2     -1.71640      0.400000           0   0.00000       0.00000    
     37141 TIP3     2187     SWM4     OM       LPDW     -1.11466       0.00000          -1   0.00000       0.00000    
     37142 TIP3     2187     SWM4     H1       HDW      0.557330       1.00800           0   0.00000       0.00000    
     37143 TIP3     2187     SWM4     H2       HDW      0.557330       1.00800           0   0.00000       0.00000    
     37144 TIP3     2188     SWM4     OH2      ODW       1.71640       15.5994           0 -0.978253       1.30000    
     37145 TIP3     2188     SWM4     DOH2     DOH2     -1.71640      0.400000           0   0.00000       0.00000    
     37146 TIP3     2188     SWM4     OM       LPDW     -1.11466       0.00000          -1   0.00000       0.00000    
     37147 TIP3     2188     SWM4     H1       HDW      0.557330       1.00800           0   0.00000       0.00000    
     37148 TIP3     2188     SWM4     H2       HDW      0.557330       1.00800           0   0.00000       0.00000    
     37149 TIP3     2189     SWM4     OH2      ODW       1.71640       15.5994           0 -0.978253       1.30000    
     37150 TIP3     2189     SWM4     DOH2     DOH2     -1.71640      0.400000           0   0.00000       0.00000    
     37151 TIP3     2189     SWM4     OM       LPDW     -1.11466       0.00000          -1   0.00000       0.00000    
     37152 TIP3     2189     SWM4     H1       HDW      0.557330       1.00800           0   0.00000       0.00000    
     37153 TIP3     2189     SWM4     H2       HDW      0.557330       1.00800           0   0.00000       0.00000    
     37154 TIP3     2190     SWM4     OH2      ODW       1.71640       15.5994           0 -0.978253       1.30000    
     37155 TIP3     2190     SWM4     DOH2     DOH2     -1.71640      0.400000           0   0.00000       0.00000    
     37156 TIP3     2190     SWM4     OM       LPDW     -1.11466       0.00000          -1   0.00000       0.00000    
     37157 TIP3     2190     SWM4     H1       HDW      0.557330       1.00800           0   0.00000       0.00000    
     37158 TIP3     2190     SWM4     H2       HDW      0.557330       1.00800           0   0.00000       0.00000    
     37159 TIP3     2191     SWM4     OH2      ODW       1.71640       15.5994           0 -0.978253       1.30000    
     37160 TIP3     2191     SWM4     DOH2     DOH2     -1.71640      0.400000           0   0.00000       0.00000    
     37161 TIP3     2191     SWM4     OM       LPDW     -1.11466       0.00000          -1   0.00000       0.00000    
     37162 TIP3     2191     SWM4     H1       HDW      0.557330       1.00800           0   0.00000       0.00000    
     37163 TIP3     2191     SWM4     H2       HDW      0.557330       1.00800           0   0.00000       0.00000    
     37164 TIP3     2192     SWM4     OH2      ODW       1.71640       15.5994           0 -0.978253       1.30000    
     37165 TIP3     2192     SWM4     DOH2     DOH2     -1.71640      0.400000           0   0.00000       0.00000    
     37166 TIP3     2192     SWM4     OM       LPDW     -1.11466       0.00000          -1   0.00000       0.00000    
     37167 TIP3     2192     SWM4     H1       HDW      0.557330       1.00800           0   0.00000       0.00000    
     37168 TIP3     2192     SWM4     H2       HDW      0.557330       1.00800           0   0.00000       0.00000    
     37169 TIP3     2193     SWM4     OH2      ODW       1.71640       15.5994           0 -0.978253       1.30000    
     37170 TIP3     2193     SWM4     DOH2     DOH2     -1.71640      0.400000           0   0.00000       0.00000    
     37171 TIP3     2193     SWM4     OM       LPDW     -1.11466       0.00000          -1   0.00000       0.00000    
     37172 TIP3     2193     SWM4     H1       HDW      0.557330       1.00800           0   0.00000       0.00000    
     37173 TIP3     2193     SWM4     H2       HDW      0.557330       1.00800           0   0.00000       0.00000    
     37174 TIP3     2194     SWM4     OH2      ODW       1.71640       15.5994           0 -0.978253       1.30000    
     37175 TIP3     2194     SWM4     DOH2     DOH2     -1.71640      0.400000           0   0.00000       0.00000    
     37176 TIP3     2194     SWM4     OM       LPDW     -1.11466       0.00000          -1   0.00000       0.00000    
     37177 TIP3     2194     SWM4     H1       HDW      0.557330       1.00800           0   0.00000       0.00000    
     37178 TIP3     2194     SWM4     H2       HDW      0.557330       1.00800           0   0.00000       0.00000    
     37179 TIP3     2195     SWM4     OH2      ODW       1.71640       15.5994           0 -0.978253       1.30000    
     37180 TIP3     2195     SWM4     DOH2     DOH2     -1.71640      0.400000           0   0.00000       0.00000    
     37181 TIP3     2195     SWM4     OM       LPDW     -1.11466       0.00000          -1   0.00000       0.00000    
     37182 TIP3     2195     SWM4     H1       HDW      0.557330       1.00800           0   0.00000       0.00000    
     37183 TIP3     2195     SWM4     H2       HDW      0.557330       1.00800           0   0.00000       0.00000    
     37184 TIP3     2196     SWM4     OH2      ODW       1.71640       15.5994           0 -0.978253       1.30000    
     37185 TIP3     2196     SWM4     DOH2     DOH2     -1.71640      0.400000           0   0.00000       0.00000    
     37186 TIP3     2196     SWM4     OM       LPDW     -1.11466       0.00000          -1   0.00000       0.00000    
     37187 TIP3     2196     SWM4     H1       HDW      0.557330       1.00800           0   0.00000       0.00000    
     37188 TIP3     2196     SWM4     H2       HDW      0.557330       1.00800           0   0.00000       0.00000    
     37189 TIP3     2197     SWM4     OH2      ODW       1.71640       15.5994           0 -0.978253       1.30000    
     37190 TIP3     2197     SWM4     DOH2     DOH2     -1.71640      0.400000           0   0.00000       0.00000    
     37191 TIP3     2197     SWM4     OM       LPDW     -1.11466       0.00000          -1   0.00000       0.00000    
     37192 TIP3     2197     SWM4     H1       HDW      0.557330       1.00800           0   0.00000       0.00000    
     37193 TIP3     2197     SWM4     H2       HDW      0.557330       1.00800           0   0.00000       0.00000    
     37194 TIP3     2198     SWM4     OH2      ODW       1.71640       15.5994           0 -0.978253       1.30000    
     37195 TIP3     2198     SWM4     DOH2     DOH2     -1.71640      0.400000           0   0.00000       0.00000    
     37196 TIP3     2198     SWM4     OM       LPDW     -1.11466       0.00000          -1   0.00000       0.00000    
     37197 TIP3     2198     SWM4     H1       HDW      0.557330       1.00800           0   0.00000       0.00000    
     37198 TIP3     2198     SWM4     H2       HDW      0.557330       1.00800           0   0.00000       0.00000    
     37199 TIP3     2199     SWM4     OH2      ODW       1.71640       15.5994           0 -0.978253       1.30000    
     37200 TIP3     2199     SWM4     DOH2     DOH2     -1.71640      0.400000           0   0.00000       0.00000    
     37201 TIP3     2199     SWM4     OM       LPDW     -1.11466       0.00000          -1   0.00000       0.00000    
     37202 TIP3     2199     SWM4     H1       HDW      0.557330       1.00800           0   0.00000       0.00000    
     37203 TIP3     2199     SWM4     H2       HDW      0.557330       1.00800           0   0.00000       0.00000    
     37204 TIP3     2200     SWM4     OH2      ODW       1.71640       15.5994           0 -0.978253       1.30000    
     37205 TIP3     2200     SWM4     DOH2     DOH2     -1.71640      0.400000           0   0.00000       0.00000    
     37206 TIP3     2200     SWM4     OM       LPDW     -1.11466       0.00000          -1   0.00000       0.00000    
     37207 TIP3     2200     SWM4     H1       HDW      0.557330       1.00800           0   0.00000       0.00000    
     37208 TIP3     2200     SWM4     H2       HDW      0.557330       1.00800           0   0.00000       0.00000    
     37209 TIP3     2201     SWM4     OH2      ODW       1.71640       15.5994           0 -0.978253       1.30000    
     37210 TIP3     2201     SWM4     DOH2     DOH2     -1.71640      0.400000           0   0.00000       0.00000    
     37211 TIP3     2201     SWM4     OM       LPDW     -1.11466       0.00000          -1   0.00000       0.00000    
     37212 TIP3     2201     SWM4     H1       HDW      0.557330       1.00800           0   0.00000       0.00000    
     37213 TIP3     2201     SWM4     H2       HDW      0.557330       1.00800           0   0.00000       0.00000    
     37214 TIP3     2202     SWM4     OH2      ODW       1.71640       15.5994           0 -0.978253       1.30000    
     37215 TIP3     2202     SWM4     DOH2     DOH2     -1.71640      0.400000           0   0.00000       0.00000    
     37216 TIP3     2202     SWM4     OM       LPDW     -1.11466       0.00000          -1   0.00000       0.00000    
     37217 TIP3     2202     SWM4     H1       HDW      0.557330       1.00800           0   0.00000       0.00000    
     37218 TIP3     2202     SWM4     H2       HDW      0.557330       1.00800           0   0.00000       0.00000    
     37219 TIP3     2203     SWM4     OH2      ODW       1.71640       15.5994           0 -0.978253       1.30000    
     37220 TIP3     2203     SWM4     DOH2     DOH2     -1.71640      0.400000           0   0.00000       0.00000    
     37221 TIP3     2203     SWM4     OM       LPDW     -1.11466       0.00000          -1   0.00000       0.00000    
     37222 TIP3     2203     SWM4     H1       HDW      0.557330       1.00800           0   0.00000       0.00000    
     37223 TIP3     2203     SWM4     H2       HDW      0.557330       1.00800           0   0.00000       0.00000    
     37224 TIP3     2204     SWM4     OH2      ODW       1.71640       15.5994           0 -0.978253       1.30000    
     37225 TIP3     2204     SWM4     DOH2     DOH2     -1.71640      0.400000           0   0.00000       0.00000    
     37226 TIP3     2204     SWM4     OM       LPDW     -1.11466       0.00000          -1   0.00000       0.00000    
     37227 TIP3     2204     SWM4     H1       HDW      0.557330       1.00800           0   0.00000       0.00000    
     37228 TIP3     2204     SWM4     H2       HDW      0.557330       1.00800           0   0.00000       0.00000    
     37229 TIP3     2205     SWM4     OH2      ODW       1.71640       15.5994           0 -0.978253       1.30000    
     37230 TIP3     2205     SWM4     DOH2     DOH2     -1.71640      0.400000           0   0.00000       0.00000    
     37231 TIP3     2205     SWM4     OM       LPDW     -1.11466       0.00000          -1   0.00000       0.00000    
     37232 TIP3     2205     SWM4     H1       HDW      0.557330       1.00800           0   0.00000       0.00000    
     37233 TIP3     2205     SWM4     H2       HDW      0.557330       1.00800           0   0.00000       0.00000    
     37234 TIP3     2206     SWM4     OH2      ODW       1.71640       15.5994           0 -0.978253       1.30000    
     37235 TIP3     2206     SWM4     DOH2     DOH2     -1.71640      0.400000           0   0.00000       0.00000    
     37236 TIP3     2206     SWM4     OM       LPDW     -1.11466       0.00000          -1   0.00000       0.00000    
     37237 TIP3     2206     SWM4     H1       HDW      0.557330       1.00800           0   0.00000       0.00000    
     37238 TIP3     2206     SWM4     H2       HDW      0.557330       1.00800           0   0.00000       0.00000    
     37239 TIP3     2207     SWM4     OH2      ODW       1.71640       15.5994           0 -0.978253       1.30000    
     37240 TIP3     2207     SWM4     DOH2     DOH2     -1.71640      0.400000           0   0.00000       0.00000    
     37241 TIP3     2207     SWM4     OM       LPDW     -1.11466       0.00000          -1   0.00000       0.00000    
     37242 TIP3     2207     SWM4     H1       HDW      0.557330       1.00800           0   0.00000       0.00000    
     37243 TIP3     2207     SWM4     H2       HDW      0.557330       1.00800           0   0.00000       0.00000    
     37244 TIP3     2208     SWM4     OH2      ODW       1.71640       15.5994           0 -0.978253       1.30000    
     37245 TIP3     2208     SWM4     DOH2     DOH2     -1.71640      0.400000           0   0.00000       0.00000    
     37246 TIP3     2208     SWM4     OM       LPDW     -1.11466       0.00000          -1   0.00000       0.00000    
     37247 TIP3     2208     SWM4     H1       HDW      0.557330       1.00800           0   0.00000       0.00000    
     37248 TIP3     2208     SWM4     H2       HDW      0.557330       1.00800           0   0.00000       0.00000    
     37249 TIP3     2209     SWM4     OH2      ODW       1.71640       15.5994           0 -0.978253       1.30000    
     37250 TIP3     2209     SWM4     DOH2     DOH2     -1.71640      0.400000           0   0.00000       0.00000    
     37251 TIP3     2209     SWM4     OM       LPDW     -1.11466       0.00000          -1   0.00000       0.00000    
     37252 TIP3     2209     SWM4     H1       HDW      0.557330       1.00800           0   0.00000       0.00000    
     37253 TIP3     2209     SWM4     H2       HDW      0.557330       1.00800           0   0.00000       0.00000    
     37254 TIP3     2210     SWM4     OH2      ODW       1.71640       15.5994           0 -0.978253       1.30000    
     37255 TIP3     2210     SWM4     DOH2     DOH2     -1.71640      0.400000           0   0.00000       0.00000    
     37256 TIP3     2210     SWM4     OM       LPDW     -1.11466       0.00000          -1   0.00000       0.00000    
     37257 TIP3     2210     SWM4     H1       HDW      0.557330       1.00800           0   0.00000       0.00000    
     37258 TIP3     2210     SWM4     H2       HDW      0.557330       1.00800           0   0.00000       0.00000    
     37259 TIP3     2211     SWM4     OH2      ODW       1.71640       15.5994           0 -0.978253       1.30000    
     37260 TIP3     2211     SWM4     DOH2     DOH2     -1.71640      0.400000           0   0.00000       0.00000    
     37261 TIP3     2211     SWM4     OM       LPDW     -1.11466       0.00000          -1   0.00000       0.00000    
     37262 TIP3     2211     SWM4     H1       HDW      0.557330       1.00800           0   0.00000       0.00000    
     37263 TIP3     2211     SWM4     H2       HDW      0.557330       1.00800           0   0.00000       0.00000    
     37264 TIP3     2212     SWM4     OH2      ODW       1.71640       15.5994           0 -0.978253       1.30000    
     37265 TIP3     2212     SWM4     DOH2     DOH2     -1.71640      0.400000           0   0.00000       0.00000    
     37266 TIP3     2212     SWM4     OM       LPDW     -1.11466       0.00000          -1   0.00000       0.00000    
     37267 TIP3     2212     SWM4     H1       HDW      0.557330       1.00800           0   0.00000       0.00000    
     37268 TIP3     2212     SWM4     H2       HDW      0.557330       1.00800           0   0.00000       0.00000    
     37269 TIP3     2213     SWM4     OH2      ODW       1.71640       15.5994           0 -0.978253       1.30000    
     37270 TIP3     2213     SWM4     DOH2     DOH2     -1.71640      0.400000           0   0.00000       0.00000    
     37271 TIP3     2213     SWM4     OM       LPDW     -1.11466       0.00000          -1   0.00000       0.00000    
     37272 TIP3     2213     SWM4     H1       HDW      0.557330       1.00800           0   0.00000       0.00000    
     37273 TIP3     2213     SWM4     H2       HDW      0.557330       1.00800           0   0.00000       0.00000    
     37274 TIP3     2214     SWM4     OH2      ODW       1.71640       15.5994           0 -0.978253       1.30000    
     37275 TIP3     2214     SWM4     DOH2     DOH2     -1.71640      0.400000           0   0.00000       0.00000    
     37276 TIP3     2214     SWM4     OM       LPDW     -1.11466       0.00000          -1   0.00000       0.00000    
     37277 TIP3     2214     SWM4     H1       HDW      0.557330       1.00800           0   0.00000       0.00000    
     37278 TIP3     2214     SWM4     H2       HDW      0.557330       1.00800           0   0.00000       0.00000    
     37279 TIP3     2215     SWM4     OH2      ODW       1.71640       15.5994           0 -0.978253       1.30000    
     37280 TIP3     2215     SWM4     DOH2     DOH2     -1.71640      0.400000           0   0.00000       0.00000    
     37281 TIP3     2215     SWM4     OM       LPDW     -1.11466       0.00000          -1   0.00000       0.00000    
     37282 TIP3     2215     SWM4     H1       HDW      0.557330       1.00800           0   0.00000       0.00000    
     37283 TIP3     2215     SWM4     H2       HDW      0.557330       1.00800           0   0.00000       0.00000    
     37284 TIP3     2216     SWM4     OH2      ODW       1.71640       15.5994           0 -0.978253       1.30000    
     37285 TIP3     2216     SWM4     DOH2     DOH2     -1.71640      0.400000           0   0.00000       0.00000    
     37286 TIP3     2216     SWM4     OM       LPDW     -1.11466       0.00000          -1   0.00000       0.00000    
     37287 TIP3     2216     SWM4     H1       HDW      0.557330       1.00800           0   0.00000       0.00000    
     37288 TIP3     2216     SWM4     H2       HDW      0.557330       1.00800           0   0.00000       0.00000    
     37289 TIP3     2217     SWM4     OH2      ODW       1.71640       15.5994           0 -0.978253       1.30000    
     37290 TIP3     2217     SWM4     DOH2     DOH2     -1.71640      0.400000           0   0.00000       0.00000    
     37291 TIP3     2217     SWM4     OM       LPDW     -1.11466       0.00000          -1   0.00000       0.00000    
     37292 TIP3     2217     SWM4     H1       HDW      0.557330       1.00800           0   0.00000       0.00000    
     37293 TIP3     2217     SWM4     H2       HDW      0.557330       1.00800           0   0.00000       0.00000    
     37294 TIP3     2218     SWM4     OH2      ODW       1.71640       15.5994           0 -0.978253       1.30000    
     37295 TIP3     2218     SWM4     DOH2     DOH2     -1.71640      0.400000           0   0.00000       0.00000    
     37296 TIP3     2218     SWM4     OM       LPDW     -1.11466       0.00000          -1   0.00000       0.00000    
     37297 TIP3     2218     SWM4     H1       HDW      0.557330       1.00800           0   0.00000       0.00000    
     37298 TIP3     2218     SWM4     H2       HDW      0.557330       1.00800           0   0.00000       0.00000    
     37299 TIP3     2219     SWM4     OH2      ODW       1.71640       15.5994           0 -0.978253       1.30000    
     37300 TIP3     2219     SWM4     DOH2     DOH2     -1.71640      0.400000           0   0.00000       0.00000    
     37301 TIP3     2219     SWM4     OM       LPDW     -1.11466       0.00000          -1   0.00000       0.00000    
     37302 TIP3     2219     SWM4     H1       HDW      0.557330       1.00800           0   0.00000       0.00000    
     37303 TIP3     2219     SWM4     H2       HDW      0.557330       1.00800           0   0.00000       0.00000    
     37304 TIP3     2220     SWM4     OH2      ODW       1.71640       15.5994           0 -0.978253       1.30000    
     37305 TIP3     2220     SWM4     DOH2     DOH2     -1.71640      0.400000           0   0.00000       0.00000    
     37306 TIP3     2220     SWM4     OM       LPDW     -1.11466       0.00000          -1   0.00000       0.00000    
     37307 TIP3     2220     SWM4     H1       HDW      0.557330       1.00800           0   0.00000       0.00000    
     37308 TIP3     2220     SWM4     H2       HDW      0.557330       1.00800           0   0.00000       0.00000    
     37309 TIP3     2221     SWM4     OH2      ODW       1.71640       15.5994           0 -0.978253       1.30000    
     37310 TIP3     2221     SWM4     DOH2     DOH2     -1.71640      0.400000           0   0.00000       0.00000    
     37311 TIP3     2221     SWM4     OM       LPDW     -1.11466       0.00000          -1   0.00000       0.00000    
     37312 TIP3     2221     SWM4     H1       HDW      0.557330       1.00800           0   0.00000       0.00000    
     37313 TIP3     2221     SWM4     H2       HDW      0.557330       1.00800           0   0.00000       0.00000    
     37314 TIP3     2222     SWM4     OH2      ODW       1.71640       15.5994           0 -0.978253       1.30000    
     37315 TIP3     2222     SWM4     DOH2     DOH2     -1.71640      0.400000           0   0.00000       0.00000    
     37316 TIP3     2222     SWM4     OM       LPDW     -1.11466       0.00000          -1   0.00000       0.00000    
     37317 TIP3     2222     SWM4     H1       HDW      0.557330       1.00800           0   0.00000       0.00000    
     37318 TIP3     2222     SWM4     H2       HDW      0.557330       1.00800           0   0.00000       0.00000    
     37319 TIP3     2223     SWM4     OH2      ODW       1.71640       15.5994           0 -0.978253       1.30000    
     37320 TIP3     2223     SWM4     DOH2     DOH2     -1.71640      0.400000           0   0.00000       0.00000    
     37321 TIP3     2223     SWM4     OM       LPDW     -1.11466       0.00000          -1   0.00000       0.00000    
     37322 TIP3     2223     SWM4     H1       HDW      0.557330       1.00800           0   0.00000       0.00000    
     37323 TIP3     2223     SWM4     H2       HDW      0.557330       1.00800           0   0.00000       0.00000    
     37324 TIP3     2224     SWM4     OH2      ODW       1.71640       15.5994           0 -0.978253       1.30000    
     37325 TIP3     2224     SWM4     DOH2     DOH2     -1.71640      0.400000           0   0.00000       0.00000    
     37326 TIP3     2224     SWM4     OM       LPDW     -1.11466       0.00000          -1   0.00000       0.00000    
     37327 TIP3     2224     SWM4     H1       HDW      0.557330       1.00800           0   0.00000       0.00000    
     37328 TIP3     2224     SWM4     H2       HDW      0.557330       1.00800           0   0.00000       0.00000    
     37329 TIP3     2225     SWM4     OH2      ODW       1.71640       15.5994           0 -0.978253       1.30000    
     37330 TIP3     2225     SWM4     DOH2     DOH2     -1.71640      0.400000           0   0.00000       0.00000    
     37331 TIP3     2225     SWM4     OM       LPDW     -1.11466       0.00000          -1   0.00000       0.00000    
     37332 TIP3     2225     SWM4     H1       HDW      0.557330       1.00800           0   0.00000       0.00000    
     37333 TIP3     2225     SWM4     H2       HDW      0.557330       1.00800           0   0.00000       0.00000    
     37334 TIP3     2226     SWM4     OH2      ODW       1.71640       15.5994           0 -0.978253       1.30000    
     37335 TIP3     2226     SWM4     DOH2     DOH2     -1.71640      0.400000           0   0.00000       0.00000    
     37336 TIP3     2226     SWM4     OM       LPDW     -1.11466       0.00000          -1   0.00000       0.00000    
     37337 TIP3     2226     SWM4     H1       HDW      0.557330       1.00800           0   0.00000       0.00000    
     37338 TIP3     2226     SWM4     H2       HDW      0.557330       1.00800           0   0.00000       0.00000    
     37339 TIP3     2227     SWM4     OH2      ODW       1.71640       15.5994           0 -0.978253       1.30000    
     37340 TIP3     2227     SWM4     DOH2     DOH2     -1.71640      0.400000           0   0.00000       0.00000    
     37341 TIP3     2227     SWM4     OM       LPDW     -1.11466       0.00000          -1   0.00000       0.00000    
     37342 TIP3     2227     SWM4     H1       HDW      0.557330       1.00800           0   0.00000       0.00000    
     37343 TIP3     2227     SWM4     H2       HDW      0.557330       1.00800           0   0.00000       0.00000    
     37344 TIP3     2228     SWM4     OH2      ODW       1.71640       15.5994           0 -0.978253       1.30000    
     37345 TIP3     2228     SWM4     DOH2     DOH2     -1.71640      0.400000           0   0.00000       0.00000    
     37346 TIP3     2228     SWM4     OM       LPDW     -1.11466       0.00000          -1   0.00000       0.00000    
     37347 TIP3     2228     SWM4     H1       HDW      0.557330       1.00800           0   0.00000       0.00000    
     37348 TIP3     2228     SWM4     H2       HDW      0.557330       1.00800           0   0.00000       0.00000    
     37349 TIP3     2229     SWM4     OH2      ODW       1.71640       15.5994           0 -0.978253       1.30000    
     37350 TIP3     2229     SWM4     DOH2     DOH2     -1.71640      0.400000           0   0.00000       0.00000    
     37351 TIP3     2229     SWM4     OM       LPDW     -1.11466       0.00000          -1   0.00000       0.00000    
     37352 TIP3     2229     SWM4     H1       HDW      0.557330       1.00800           0   0.00000       0.00000    
     37353 TIP3     2229     SWM4     H2       HDW      0.557330       1.00800           0   0.00000       0.00000    
     37354 TIP3     2230     SWM4     OH2      ODW       1.71640       15.5994           0 -0.978253       1.30000    
     37355 TIP3     2230     SWM4     DOH2     DOH2     -1.71640      0.400000           0   0.00000       0.00000    
     37356 TIP3     2230     SWM4     OM       LPDW     -1.11466       0.00000          -1   0.00000       0.00000    
     37357 TIP3     2230     SWM4     H1       HDW      0.557330       1.00800           0   0.00000       0.00000    
     37358 TIP3     2230     SWM4     H2       HDW      0.557330       1.00800           0   0.00000       0.00000    
     37359 TIP3     2231     SWM4     OH2      ODW       1.71640       15.5994           0 -0.978253       1.30000    
     37360 TIP3     2231     SWM4     DOH2     DOH2     -1.71640      0.400000           0   0.00000       0.00000    
     37361 TIP3     2231     SWM4     OM       LPDW     -1.11466       0.00000          -1   0.00000       0.00000    
     37362 TIP3     2231     SWM4     H1       HDW      0.557330       1.00800           0   0.00000       0.00000    
     37363 TIP3     2231     SWM4     H2       HDW      0.557330       1.00800           0   0.00000       0.00000    
     37364 TIP3     2232     SWM4     OH2      ODW       1.71640       15.5994           0 -0.978253       1.30000    
     37365 TIP3     2232     SWM4     DOH2     DOH2     -1.71640      0.400000           0   0.00000       0.00000    
     37366 TIP3     2232     SWM4     OM       LPDW     -1.11466       0.00000          -1   0.00000       0.00000    
     37367 TIP3     2232     SWM4     H1       HDW      0.557330       1.00800           0   0.00000       0.00000    
     37368 TIP3     2232     SWM4     H2       HDW      0.557330       1.00800           0   0.00000       0.00000    
     37369 TIP3     2233     SWM4     OH2      ODW       1.71640       15.5994           0 -0.978253       1.30000    
     37370 TIP3     2233     SWM4     DOH2     DOH2     -1.71640      0.400000           0   0.00000       0.00000    
     37371 TIP3     2233     SWM4     OM       LPDW     -1.11466       0.00000          -1   0.00000       0.00000    
     37372 TIP3     2233     SWM4     H1       HDW      0.557330       1.00800           0   0.00000       0.00000    
     37373 TIP3     2233     SWM4     H2       HDW      0.557330       1.00800           0   0.00000       0.00000    
     37374 TIP3     2234     SWM4     OH2      ODW       1.71640       15.5994           0 -0.978253       1.30000    
     37375 TIP3     2234     SWM4     DOH2     DOH2     -1.71640      0.400000           0   0.00000       0.00000    
     37376 TIP3     2234     SWM4     OM       LPDW     -1.11466       0.00000          -1   0.00000       0.00000    
     37377 TIP3     2234     SWM4     H1       HDW      0.557330       1.00800           0   0.00000       0.00000    
     37378 TIP3     2234     SWM4     H2       HDW      0.557330       1.00800           0   0.00000       0.00000    
     37379 TIP3     2235     SWM4     OH2      ODW       1.71640       15.5994           0 -0.978253       1.30000    
     37380 TIP3     2235     SWM4     DOH2     DOH2     -1.71640      0.400000           0   0.00000       0.00000    
     37381 TIP3     2235     SWM4     OM       LPDW     -1.11466       0.00000          -1   0.00000       0.00000    
     37382 TIP3     2235     SWM4     H1       HDW      0.557330       1.00800           0   0.00000       0.00000    
     37383 TIP3     2235     SWM4     H2       HDW      0.557330       1.00800           0   0.00000       0.00000    
     37384 TIP3     2236     SWM4     OH2      ODW       1.71640       15.5994           0 -0.978253       1.30000    
     37385 TIP3     2236     SWM4     DOH2     DOH2     -1.71640      0.400000           0   0.00000       0.00000    
     37386 TIP3     2236     SWM4     OM       LPDW     -1.11466       0.00000          -1   0.00000       0.00000    
     37387 TIP3     2236     SWM4     H1       HDW      0.557330       1.00800           0   0.00000       0.00000    
     37388 TIP3     2236     SWM4     H2       HDW      0.557330       1.00800           0   0.00000       0.00000    
     37389 TIP3     2237     SWM4     OH2      ODW       1.71640       15.5994           0 -0.978253       1.30000    
     37390 TIP3     2237     SWM4     DOH2     DOH2     -1.71640      0.400000           0   0.00000       0.00000    
     37391 TIP3     2237     SWM4     OM       LPDW     -1.11466       0.00000          -1   0.00000       0.00000    
     37392 TIP3     2237     SWM4     H1       HDW      0.557330       1.00800           0   0.00000       0.00000    
     37393 TIP3     2237     SWM4     H2       HDW      0.557330       1.00800           0   0.00000       0.00000    
     37394 TIP3     2238     SWM4     OH2      ODW       1.71640       15.5994           0 -0.978253       1.30000    
     37395 TIP3     2238     SWM4     DOH2     DOH2     -1.71640      0.400000           0   0.00000       0.00000    
     37396 TIP3     2238     SWM4     OM       LPDW     -1.11466       0.00000          -1   0.00000       0.00000    
     37397 TIP3     2238     SWM4     H1       HDW      0.557330       1.00800           0   0.00000       0.00000    
     37398 TIP3     2238     SWM4     H2       HDW      0.557330       1.00800           0   0.00000       0.00000    
     37399 TIP3     2239     SWM4     OH2      ODW       1.71640       15.5994           0 -0.978253       1.30000    
     37400 TIP3     2239     SWM4     DOH2     DOH2     -1.71640      0.400000           0   0.00000       0.00000    
     37401 TIP3     2239     SWM4     OM       LPDW     -1.11466       0.00000          -1   0.00000       0.00000    
     37402 TIP3     2239     SWM4     H1       HDW      0.557330       1.00800           0   0.00000       0.00000    
     37403 TIP3     2239     SWM4     H2       HDW      0.557330       1.00800           0   0.00000       0.00000    
     37404 TIP3     2240     SWM4     OH2      ODW       1.71640       15.5994           0 -0.978253       1.30000    
     37405 TIP3     2240     SWM4     DOH2     DOH2     -1.71640      0.400000           0   0.00000       0.00000    
     37406 TIP3     2240     SWM4     OM       LPDW     -1.11466       0.00000          -1   0.00000       0.00000    
     37407 TIP3     2240     SWM4     H1       HDW      0.557330       1.00800           0   0.00000       0.00000    
     37408 TIP3     2240     SWM4     H2       HDW      0.557330       1.00800           0   0.00000       0.00000    
     37409 TIP3     2241     SWM4     OH2      ODW       1.71640       15.5994           0 -0.978253       1.30000    
     37410 TIP3     2241     SWM4     DOH2     DOH2     -1.71640      0.400000           0   0.00000       0.00000    
     37411 TIP3     2241     SWM4     OM       LPDW     -1.11466       0.00000          -1   0.00000       0.00000    
     37412 TIP3     2241     SWM4     H1       HDW      0.557330       1.00800           0   0.00000       0.00000    
     37413 TIP3     2241     SWM4     H2       HDW      0.557330       1.00800           0   0.00000       0.00000    
     37414 TIP3     2242     SWM4     OH2      ODW       1.71640       15.5994           0 -0.978253       1.30000    
     37415 TIP3     2242     SWM4     DOH2     DOH2     -1.71640      0.400000           0   0.00000       0.00000    
     37416 TIP3     2242     SWM4     OM       LPDW     -1.11466       0.00000          -1   0.00000       0.00000    
     37417 TIP3     2242     SWM4     H1       HDW      0.557330       1.00800           0   0.00000       0.00000    
     37418 TIP3     2242     SWM4     H2       HDW      0.557330       1.00800           0   0.00000       0.00000    
     37419 TIP3     2243     SWM4     OH2      ODW       1.71640       15.5994           0 -0.978253       1.30000    
     37420 TIP3     2243     SWM4     DOH2     DOH2     -1.71640      0.400000           0   0.00000       0.00000    
     37421 TIP3     2243     SWM4     OM       LPDW     -1.11466       0.00000          -1   0.00000       0.00000    
     37422 TIP3     2243     SWM4     H1       HDW      0.557330       1.00800           0   0.00000       0.00000    
     37423 TIP3     2243     SWM4     H2       HDW      0.557330       1.00800           0   0.00000       0.00000    
     37424 TIP3     2244     SWM4     OH2      ODW       1.71640       15.5994           0 -0.978253       1.30000    
     37425 TIP3     2244     SWM4     DOH2     DOH2     -1.71640      0.400000           0   0.00000       0.00000    
     37426 TIP3     2244     SWM4     OM       LPDW     -1.11466       0.00000          -1   0.00000       0.00000    
     37427 TIP3     2244     SWM4     H1       HDW      0.557330       1.00800           0   0.00000       0.00000    
     37428 TIP3     2244     SWM4     H2       HDW      0.557330       1.00800           0   0.00000       0.00000    
     37429 TIP3     2245     SWM4     OH2      ODW       1.71640       15.5994           0 -0.978253       1.30000    
     37430 TIP3     2245     SWM4     DOH2     DOH2     -1.71640      0.400000           0   0.00000       0.00000    
     37431 TIP3     2245     SWM4     OM       LPDW     -1.11466       0.00000          -1   0.00000       0.00000    
     37432 TIP3     2245     SWM4     H1       HDW      0.557330       1.00800           0   0.00000       0.00000    
     37433 TIP3     2245     SWM4     H2       HDW      0.557330       1.00800           0   0.00000       0.00000    
     37434 TIP3     2246     SWM4     OH2      ODW       1.71640       15.5994           0 -0.978253       1.30000    
     37435 TIP3     2246     SWM4     DOH2     DOH2     -1.71640      0.400000           0   0.00000       0.00000    
     37436 TIP3     2246     SWM4     OM       LPDW     -1.11466       0.00000          -1   0.00000       0.00000    
     37437 TIP3     2246     SWM4     H1       HDW      0.557330       1.00800           0   0.00000       0.00000    
     37438 TIP3     2246     SWM4     H2       HDW      0.557330       1.00800           0   0.00000       0.00000    
     37439 TIP3     2247     SWM4     OH2      ODW       1.71640       15.5994           0 -0.978253       1.30000    
     37440 TIP3     2247     SWM4     DOH2     DOH2     -1.71640      0.400000           0   0.00000       0.00000    
     37441 TIP3     2247     SWM4     OM       LPDW     -1.11466       0.00000          -1   0.00000       0.00000    
     37442 TIP3     2247     SWM4     H1       HDW      0.557330       1.00800           0   0.00000       0.00000    
     37443 TIP3     2247     SWM4     H2       HDW      0.557330       1.00800           0   0.00000       0.00000    
     37444 TIP3     2248     SWM4     OH2      ODW       1.71640       15.5994           0 -0.978253       1.30000    
     37445 TIP3     2248     SWM4     DOH2     DOH2     -1.71640      0.400000           0   0.00000       0.00000    
     37446 TIP3     2248     SWM4     OM       LPDW     -1.11466       0.00000          -1   0.00000       0.00000    
     37447 TIP3     2248     SWM4     H1       HDW      0.557330       1.00800           0   0.00000       0.00000    
     37448 TIP3     2248     SWM4     H2       HDW      0.557330       1.00800           0   0.00000       0.00000    
     37449 TIP3     2249     SWM4     OH2      ODW       1.71640       15.5994           0 -0.978253       1.30000    
     37450 TIP3     2249     SWM4     DOH2     DOH2     -1.71640      0.400000           0   0.00000       0.00000    
     37451 TIP3     2249     SWM4     OM       LPDW     -1.11466       0.00000          -1   0.00000       0.00000    
     37452 TIP3     2249     SWM4     H1       HDW      0.557330       1.00800           0   0.00000       0.00000    
     37453 TIP3     2249     SWM4     H2       HDW      0.557330       1.00800           0   0.00000       0.00000    
     37454 TIP3     2250     SWM4     OH2      ODW       1.71640       15.5994           0 -0.978253       1.30000    
     37455 TIP3     2250     SWM4     DOH2     DOH2     -1.71640      0.400000           0   0.00000       0.00000    
     37456 TIP3     2250     SWM4     OM       LPDW     -1.11466       0.00000          -1   0.00000       0.00000    
     37457 TIP3     2250     SWM4     H1       HDW      0.557330       1.00800           0   0.00000       0.00000    
     37458 TIP3     2250     SWM4     H2       HDW      0.557330       1.00800           0   0.00000       0.00000    
     37459 TIP3     2251     SWM4     OH2      ODW       1.71640       15.5994           0 -0.978253       1.30000    
     37460 TIP3     2251     SWM4     DOH2     DOH2     -1.71640      0.400000           0   0.00000       0.00000    
     37461 TIP3     2251     SWM4     OM       LPDW     -1.11466       0.00000          -1   0.00000       0.00000    
     37462 TIP3     2251     SWM4     H1       HDW      0.557330       1.00800           0   0.00000       0.00000    
     37463 TIP3     2251     SWM4     H2       HDW      0.557330       1.00800           0   0.00000       0.00000    
     37464 TIP3     2252     SWM4     OH2      ODW       1.71640       15.5994           0 -0.978253       1.30000    
     37465 TIP3     2252     SWM4     DOH2     DOH2     -1.71640      0.400000           0   0.00000       0.00000    
     37466 TIP3     2252     SWM4     OM       LPDW     -1.11466       0.00000          -1   0.00000       0.00000    
     37467 TIP3     2252     SWM4     H1       HDW      0.557330       1.00800           0   0.00000       0.00000    
     37468 TIP3     2252     SWM4     H2       HDW      0.557330       1.00800           0   0.00000       0.00000    
     37469 TIP3     2253     SWM4     OH2      ODW       1.71640       15.5994           0 -0.978253       1.30000    
     37470 TIP3     2253     SWM4     DOH2     DOH2     -1.71640      0.400000           0   0.00000       0.00000    
     37471 TIP3     2253     SWM4     OM       LPDW     -1.11466       0.00000          -1   0.00000       0.00000    
     37472 TIP3     2253     SWM4     H1       HDW      0.557330       1.00800           0   0.00000       0.00000    
     37473 TIP3     2253     SWM4     H2       HDW      0.557330       1.00800           0   0.00000       0.00000    
     37474 TIP3     2254     SWM4     OH2      ODW       1.71640       15.5994           0 -0.978253       1.30000    
     37475 TIP3     2254     SWM4     DOH2     DOH2     -1.71640      0.400000           0   0.00000       0.00000    
     37476 TIP3     2254     SWM4     OM       LPDW     -1.11466       0.00000          -1   0.00000       0.00000    
     37477 TIP3     2254     SWM4     H1       HDW      0.557330       1.00800           0   0.00000       0.00000    
     37478 TIP3     2254     SWM4     H2       HDW      0.557330       1.00800           0   0.00000       0.00000    
     37479 TIP3     2255     SWM4     OH2      ODW       1.71640       15.5994           0 -0.978253       1.30000    
     37480 TIP3     2255     SWM4     DOH2     DOH2     -1.71640      0.400000           0   0.00000       0.00000    
     37481 TIP3     2255     SWM4     OM       LPDW     -1.11466       0.00000          -1   0.00000       0.00000    
     37482 TIP3     2255     SWM4     H1       HDW      0.557330       1.00800           0   0.00000       0.00000    
     37483 TIP3     2255     SWM4     H2       HDW      0.557330       1.00800           0   0.00000       0.00000    
     37484 TIP3     2256     SWM4     OH2      ODW       1.71640       15.5994           0 -0.978253       1.30000    
     37485 TIP3     2256     SWM4     DOH2     DOH2     -1.71640      0.400000           0   0.00000       0.00000    
     37486 TIP3     2256     SWM4     OM       LPDW     -1.11466       0.00000          -1   0.00000       0.00000    
     37487 TIP3     2256     SWM4     H1       HDW      0.557330       1.00800           0   0.00000       0.00000    
     37488 TIP3     2256     SWM4     H2       HDW      0.557330       1.00800           0   0.00000       0.00000    
     37489 TIP3     2257     SWM4     OH2      ODW       1.71640       15.5994           0 -0.978253       1.30000    
     37490 TIP3     2257     SWM4     DOH2     DOH2     -1.71640      0.400000           0   0.00000       0.00000    
     37491 TIP3     2257     SWM4     OM       LPDW     -1.11466       0.00000          -1   0.00000       0.00000    
     37492 TIP3     2257     SWM4     H1       HDW      0.557330       1.00800           0   0.00000       0.00000    
     37493 TIP3     2257     SWM4     H2       HDW      0.557330       1.00800           0   0.00000       0.00000    
     37494 TIP3     2258     SWM4     OH2      ODW       1.71640       15.5994           0 -0.978253       1.30000    
     37495 TIP3     2258     SWM4     DOH2     DOH2     -1.71640      0.400000           0   0.00000       0.00000    
     37496 TIP3     2258     SWM4     OM       LPDW     -1.11466       0.00000          -1   0.00000       0.00000    
     37497 TIP3     2258     SWM4     H1       HDW      0.557330       1.00800           0   0.00000       0.00000    
     37498 TIP3     2258     SWM4     H2       HDW      0.557330       1.00800           0   0.00000       0.00000    
     37499 TIP3     2259     SWM4     OH2      ODW       1.71640       15.5994           0 -0.978253       1.30000    
     37500 TIP3     2259     SWM4     DOH2     DOH2     -1.71640      0.400000           0   0.00000       0.00000    
     37501 TIP3     2259     SWM4     OM       LPDW     -1.11466       0.00000          -1   0.00000       0.00000    
     37502 TIP3     2259     SWM4     H1       HDW      0.557330       1.00800           0   0.00000       0.00000    
     37503 TIP3     2259     SWM4     H2       HDW      0.557330       1.00800           0   0.00000       0.00000    
     37504 TIP3     2260     SWM4     OH2      ODW       1.71640       15.5994           0 -0.978253       1.30000    
     37505 TIP3     2260     SWM4     DOH2     DOH2     -1.71640      0.400000           0   0.00000       0.00000    
     37506 TIP3     2260     SWM4     OM       LPDW     -1.11466       0.00000          -1   0.00000       0.00000    
     37507 TIP3     2260     SWM4     H1       HDW      0.557330       1.00800           0   0.00000       0.00000    
     37508 TIP3     2260     SWM4     H2       HDW      0.557330       1.00800           0   0.00000       0.00000    
     37509 TIP3     2261     SWM4     OH2      ODW       1.71640       15.5994           0 -0.978253       1.30000    
     37510 TIP3     2261     SWM4     DOH2     DOH2     -1.71640      0.400000           0   0.00000       0.00000    
     37511 TIP3     2261     SWM4     OM       LPDW     -1.11466       0.00000          -1   0.00000       0.00000    
     37512 TIP3     2261     SWM4     H1       HDW      0.557330       1.00800           0   0.00000       0.00000    
     37513 TIP3     2261     SWM4     H2       HDW      0.557330       1.00800           0   0.00000       0.00000    
     37514 TIP3     2262     SWM4     OH2      ODW       1.71640       15.5994           0 -0.978253       1.30000    
     37515 TIP3     2262     SWM4     DOH2     DOH2     -1.71640      0.400000           0   0.00000       0.00000    
     37516 TIP3     2262     SWM4     OM       LPDW     -1.11466       0.00000          -1   0.00000       0.00000    
     37517 TIP3     2262     SWM4     H1       HDW      0.557330       1.00800           0   0.00000       0.00000    
     37518 TIP3     2262     SWM4     H2       HDW      0.557330       1.00800           0   0.00000       0.00000    
     37519 TIP3     2263     SWM4     OH2      ODW       1.71640       15.5994           0 -0.978253       1.30000    
     37520 TIP3     2263     SWM4     DOH2     DOH2     -1.71640      0.400000           0   0.00000       0.00000    
     37521 TIP3     2263     SWM4     OM       LPDW     -1.11466       0.00000          -1   0.00000       0.00000    
     37522 TIP3     2263     SWM4     H1       HDW      0.557330       1.00800           0   0.00000       0.00000    
     37523 TIP3     2263     SWM4     H2       HDW      0.557330       1.00800           0   0.00000       0.00000    
     37524 TIP3     2264     SWM4     OH2      ODW       1.71640       15.5994           0 -0.978253       1.30000    
     37525 TIP3     2264     SWM4     DOH2     DOH2     -1.71640      0.400000           0   0.00000       0.00000    
     37526 TIP3     2264     SWM4     OM       LPDW     -1.11466       0.00000          -1   0.00000       0.00000    
     37527 TIP3     2264     SWM4     H1       HDW      0.557330       1.00800           0   0.00000       0.00000    
     37528 TIP3     2264     SWM4     H2       HDW      0.557330       1.00800           0   0.00000       0.00000    
     37529 TIP3     2265     SWM4     OH2      ODW       1.71640       15.5994           0 -0.978253       1.30000    
     37530 TIP3     2265     SWM4     DOH2     DOH2     -1.71640      0.400000           0   0.00000       0.00000    
     37531 TIP3     2265     SWM4     OM       LPDW     -1.11466       0.00000          -1   0.00000       0.00000    
     37532 TIP3     2265     SWM4     H1       HDW      0.557330       1.00800           0   0.00000       0.00000    
     37533 TIP3     2265     SWM4     H2       HDW      0.557330       1.00800           0   0.00000       0.00000    
     37534 TIP3     2266     SWM4     OH2      ODW       1.71640       15.5994           0 -0.978253       1.30000    
     37535 TIP3     2266     SWM4     DOH2     DOH2     -1.71640      0.400000           0   0.00000       0.00000    
     37536 TIP3     2266     SWM4     OM       LPDW     -1.11466       0.00000          -1   0.00000       0.00000    
     37537 TIP3     2266     SWM4     H1       HDW      0.557330       1.00800           0   0.00000       0.00000    
     37538 TIP3     2266     SWM4     H2       HDW      0.557330       1.00800           0   0.00000       0.00000    
     37539 TIP3     2267     SWM4     OH2      ODW       1.71640       15.5994           0 -0.978253       1.30000    
     37540 TIP3     2267     SWM4     DOH2     DOH2     -1.71640      0.400000           0   0.00000       0.00000    
     37541 TIP3     2267     SWM4     OM       LPDW     -1.11466       0.00000          -1   0.00000       0.00000    
     37542 TIP3     2267     SWM4     H1       HDW      0.557330       1.00800           0   0.00000       0.00000    
     37543 TIP3     2267     SWM4     H2       HDW      0.557330       1.00800           0   0.00000       0.00000    
     37544 TIP3     2268     SWM4     OH2      ODW       1.71640       15.5994           0 -0.978253       1.30000    
     37545 TIP3     2268     SWM4     DOH2     DOH2     -1.71640      0.400000           0   0.00000       0.00000    
     37546 TIP3     2268     SWM4     OM       LPDW     -1.11466       0.00000          -1   0.00000       0.00000    
     37547 TIP3     2268     SWM4     H1       HDW      0.557330       1.00800           0   0.00000       0.00000    
     37548 TIP3     2268     SWM4     H2       HDW      0.557330       1.00800           0   0.00000       0.00000    
     37549 TIP3     2269     SWM4     OH2      ODW       1.71640       15.5994           0 -0.978253       1.30000    
     37550 TIP3     2269     SWM4     DOH2     DOH2     -1.71640      0.400000           0   0.00000       0.00000    
     37551 TIP3     2269     SWM4     OM       LPDW     -1.11466       0.00000          -1   0.00000       0.00000    
     37552 TIP3     2269     SWM4     H1       HDW      0.557330       1.00800           0   0.00000       0.00000    
     37553 TIP3     2269     SWM4     H2       HDW      0.557330       1.00800           0   0.00000       0.00000    
     37554 TIP3     2270     SWM4     OH2      ODW       1.71640       15.5994           0 -0.978253       1.30000    
     37555 TIP3     2270     SWM4     DOH2     DOH2     -1.71640      0.400000           0   0.00000       0.00000    
     37556 TIP3     2270     SWM4     OM       LPDW     -1.11466       0.00000          -1   0.00000       0.00000    
     37557 TIP3     2270     SWM4     H1       HDW      0.557330       1.00800           0   0.00000       0.00000    
     37558 TIP3     2270     SWM4     H2       HDW      0.557330       1.00800           0   0.00000       0.00000    
     37559 TIP3     2271     SWM4     OH2      ODW       1.71640       15.5994           0 -0.978253       1.30000    
     37560 TIP3     2271     SWM4     DOH2     DOH2     -1.71640      0.400000           0   0.00000       0.00000    
     37561 TIP3     2271     SWM4     OM       LPDW     -1.11466       0.00000          -1   0.00000       0.00000    
     37562 TIP3     2271     SWM4     H1       HDW      0.557330       1.00800           0   0.00000       0.00000    
     37563 TIP3     2271     SWM4     H2       HDW      0.557330       1.00800           0   0.00000       0.00000    
     37564 TIP3     2272     SWM4     OH2      ODW       1.71640       15.5994           0 -0.978253       1.30000    
     37565 TIP3     2272     SWM4     DOH2     DOH2     -1.71640      0.400000           0   0.00000       0.00000    
     37566 TIP3     2272     SWM4     OM       LPDW     -1.11466       0.00000          -1   0.00000       0.00000    
     37567 TIP3     2272     SWM4     H1       HDW      0.557330       1.00800           0   0.00000       0.00000    
     37568 TIP3     2272     SWM4     H2       HDW      0.557330       1.00800           0   0.00000       0.00000    
     37569 TIP3     2273     SWM4     OH2      ODW       1.71640       15.5994           0 -0.978253       1.30000    
     37570 TIP3     2273     SWM4     DOH2     DOH2     -1.71640      0.400000           0   0.00000       0.00000    
     37571 TIP3     2273     SWM4     OM       LPDW     -1.11466       0.00000          -1   0.00000       0.00000    
     37572 TIP3     2273     SWM4     H1       HDW      0.557330       1.00800           0   0.00000       0.00000    
     37573 TIP3     2273     SWM4     H2       HDW      0.557330       1.00800           0   0.00000       0.00000    
     37574 TIP3     2274     SWM4     OH2      ODW       1.71640       15.5994           0 -0.978253       1.30000    
     37575 TIP3     2274     SWM4     DOH2     DOH2     -1.71640      0.400000           0   0.00000       0.00000    
     37576 TIP3     2274     SWM4     OM       LPDW     -1.11466       0.00000          -1   0.00000       0.00000    
     37577 TIP3     2274     SWM4     H1       HDW      0.557330       1.00800           0   0.00000       0.00000    
     37578 TIP3     2274     SWM4     H2       HDW      0.557330       1.00800           0   0.00000       0.00000    
     37579 TIP3     2275     SWM4     OH2      ODW       1.71640       15.5994           0 -0.978253       1.30000    
     37580 TIP3     2275     SWM4     DOH2     DOH2     -1.71640      0.400000           0   0.00000       0.00000    
     37581 TIP3     2275     SWM4     OM       LPDW     -1.11466       0.00000          -1   0.00000       0.00000    
     37582 TIP3     2275     SWM4     H1       HDW      0.557330       1.00800           0   0.00000       0.00000    
     37583 TIP3     2275     SWM4     H2       HDW      0.557330       1.00800           0   0.00000       0.00000    
     37584 TIP3     2276     SWM4     OH2      ODW       1.71640       15.5994           0 -0.978253       1.30000    
     37585 TIP3     2276     SWM4     DOH2     DOH2     -1.71640      0.400000           0   0.00000       0.00000    
     37586 TIP3     2276     SWM4     OM       LPDW     -1.11466       0.00000          -1   0.00000       0.00000    
     37587 TIP3     2276     SWM4     H1       HDW      0.557330       1.00800           0   0.00000       0.00000    
     37588 TIP3     2276     SWM4     H2       HDW      0.557330       1.00800           0   0.00000       0.00000    
     37589 TIP3     2277     SWM4     OH2      ODW       1.71640       15.5994           0 -0.978253       1.30000    
     37590 TIP3     2277     SWM4     DOH2     DOH2     -1.71640      0.400000           0   0.00000       0.00000    
     37591 TIP3     2277     SWM4     OM       LPDW     -1.11466       0.00000          -1   0.00000       0.00000    
     37592 TIP3     2277     SWM4     H1       HDW      0.557330       1.00800           0   0.00000       0.00000    
     37593 TIP3     2277     SWM4     H2       HDW      0.557330       1.00800           0   0.00000       0.00000    
     37594 TIP3     2278     SWM4     OH2      ODW       1.71640       15.5994           0 -0.978253       1.30000    
     37595 TIP3     2278     SWM4     DOH2     DOH2     -1.71640      0.400000           0   0.00000       0.00000    
     37596 TIP3     2278     SWM4     OM       LPDW     -1.11466       0.00000          -1   0.00000       0.00000    
     37597 TIP3     2278     SWM4     H1       HDW      0.557330       1.00800           0   0.00000       0.00000    
     37598 TIP3     2278     SWM4     H2       HDW      0.557330       1.00800           0   0.00000       0.00000    
     37599 TIP3     2279     SWM4     OH2      ODW       1.71640       15.5994           0 -0.978253       1.30000    
     37600 TIP3     2279     SWM4     DOH2     DOH2     -1.71640      0.400000           0   0.00000       0.00000    
     37601 TIP3     2279     SWM4     OM       LPDW     -1.11466       0.00000          -1   0.00000       0.00000    
     37602 TIP3     2279     SWM4     H1       HDW      0.557330       1.00800           0   0.00000       0.00000    
     37603 TIP3     2279     SWM4     H2       HDW      0.557330       1.00800           0   0.00000       0.00000    
     37604 TIP3     2280     SWM4     OH2      ODW       1.71640       15.5994           0 -0.978253       1.30000    
     37605 TIP3     2280     SWM4     DOH2     DOH2     -1.71640      0.400000           0   0.00000       0.00000    
     37606 TIP3     2280     SWM4     OM       LPDW     -1.11466       0.00000          -1   0.00000       0.00000    
     37607 TIP3     2280     SWM4     H1       HDW      0.557330       1.00800           0   0.00000       0.00000    
     37608 TIP3     2280     SWM4     H2       HDW      0.557330       1.00800           0   0.00000       0.00000    
     37609 TIP3     2281     SWM4     OH2      ODW       1.71640       15.5994           0 -0.978253       1.30000    
     37610 TIP3     2281     SWM4     DOH2     DOH2     -1.71640      0.400000           0   0.00000       0.00000    
     37611 TIP3     2281     SWM4     OM       LPDW     -1.11466       0.00000          -1   0.00000       0.00000    
     37612 TIP3     2281     SWM4     H1       HDW      0.557330       1.00800           0   0.00000       0.00000    
     37613 TIP3     2281     SWM4     H2       HDW      0.557330       1.00800           0   0.00000       0.00000    
     37614 TIP3     2282     SWM4     OH2      ODW       1.71640       15.5994           0 -0.978253       1.30000    
     37615 TIP3     2282     SWM4     DOH2     DOH2     -1.71640      0.400000           0   0.00000       0.00000    
     37616 TIP3     2282     SWM4     OM       LPDW     -1.11466       0.00000          -1   0.00000       0.00000    
     37617 TIP3     2282     SWM4     H1       HDW      0.557330       1.00800           0   0.00000       0.00000    
     37618 TIP3     2282     SWM4     H2       HDW      0.557330       1.00800           0   0.00000       0.00000    
     37619 TIP3     2283     SWM4     OH2      ODW       1.71640       15.5994           0 -0.978253       1.30000    
     37620 TIP3     2283     SWM4     DOH2     DOH2     -1.71640      0.400000           0   0.00000       0.00000    
     37621 TIP3     2283     SWM4     OM       LPDW     -1.11466       0.00000          -1   0.00000       0.00000    
     37622 TIP3     2283     SWM4     H1       HDW      0.557330       1.00800           0   0.00000       0.00000    
     37623 TIP3     2283     SWM4     H2       HDW      0.557330       1.00800           0   0.00000       0.00000    
     37624 TIP3     2284     SWM4     OH2      ODW       1.71640       15.5994           0 -0.978253       1.30000    
     37625 TIP3     2284     SWM4     DOH2     DOH2     -1.71640      0.400000           0   0.00000       0.00000    
     37626 TIP3     2284     SWM4     OM       LPDW     -1.11466       0.00000          -1   0.00000       0.00000    
     37627 TIP3     2284     SWM4     H1       HDW      0.557330       1.00800           0   0.00000       0.00000    
     37628 TIP3     2284     SWM4     H2       HDW      0.557330       1.00800           0   0.00000       0.00000    
     37629 TIP3     2285     SWM4     OH2      ODW       1.71640       15.5994           0 -0.978253       1.30000    
     37630 TIP3     2285     SWM4     DOH2     DOH2     -1.71640      0.400000           0   0.00000       0.00000    
     37631 TIP3     2285     SWM4     OM       LPDW     -1.11466       0.00000          -1   0.00000       0.00000    
     37632 TIP3     2285     SWM4     H1       HDW      0.557330       1.00800           0   0.00000       0.00000    
     37633 TIP3     2285     SWM4     H2       HDW      0.557330       1.00800           0   0.00000       0.00000    
     37634 TIP3     2286     SWM4     OH2      ODW       1.71640       15.5994           0 -0.978253       1.30000    
     37635 TIP3     2286     SWM4     DOH2     DOH2     -1.71640      0.400000           0   0.00000       0.00000    
     37636 TIP3     2286     SWM4     OM       LPDW     -1.11466       0.00000          -1   0.00000       0.00000    
     37637 TIP3     2286     SWM4     H1       HDW      0.557330       1.00800           0   0.00000       0.00000    
     37638 TIP3     2286     SWM4     H2       HDW      0.557330       1.00800           0   0.00000       0.00000    
     37639 TIP3     2287     SWM4     OH2      ODW       1.71640       15.5994           0 -0.978253       1.30000    
     37640 TIP3     2287     SWM4     DOH2     DOH2     -1.71640      0.400000           0   0.00000       0.00000    
     37641 TIP3     2287     SWM4     OM       LPDW     -1.11466       0.00000          -1   0.00000       0.00000    
     37642 TIP3     2287     SWM4     H1       HDW      0.557330       1.00800           0   0.00000       0.00000    
     37643 TIP3     2287     SWM4     H2       HDW      0.557330       1.00800           0   0.00000       0.00000    
     37644 TIP3     2288     SWM4     OH2      ODW       1.71640       15.5994           0 -0.978253       1.30000    
     37645 TIP3     2288     SWM4     DOH2     DOH2     -1.71640      0.400000           0   0.00000       0.00000    
     37646 TIP3     2288     SWM4     OM       LPDW     -1.11466       0.00000          -1   0.00000       0.00000    
     37647 TIP3     2288     SWM4     H1       HDW      0.557330       1.00800           0   0.00000       0.00000    
     37648 TIP3     2288     SWM4     H2       HDW      0.557330       1.00800           0   0.00000       0.00000    
     37649 TIP3     2289     SWM4     OH2      ODW       1.71640       15.5994           0 -0.978253       1.30000    
     37650 TIP3     2289     SWM4     DOH2     DOH2     -1.71640      0.400000           0   0.00000       0.00000    
     37651 TIP3     2289     SWM4     OM       LPDW     -1.11466       0.00000          -1   0.00000       0.00000    
     37652 TIP3     2289     SWM4     H1       HDW      0.557330       1.00800           0   0.00000       0.00000    
     37653 TIP3     2289     SWM4     H2       HDW      0.557330       1.00800           0   0.00000       0.00000    
     37654 TIP3     2290     SWM4     OH2      ODW       1.71640       15.5994           0 -0.978253       1.30000    
     37655 TIP3     2290     SWM4     DOH2     DOH2     -1.71640      0.400000           0   0.00000       0.00000    
     37656 TIP3     2290     SWM4     OM       LPDW     -1.11466       0.00000          -1   0.00000       0.00000    
     37657 TIP3     2290     SWM4     H1       HDW      0.557330       1.00800           0   0.00000       0.00000    
     37658 TIP3     2290     SWM4     H2       HDW      0.557330       1.00800           0   0.00000       0.00000    
     37659 TIP3     2291     SWM4     OH2      ODW       1.71640       15.5994           0 -0.978253       1.30000    
     37660 TIP3     2291     SWM4     DOH2     DOH2     -1.71640      0.400000           0   0.00000       0.00000    
     37661 TIP3     2291     SWM4     OM       LPDW     -1.11466       0.00000          -1   0.00000       0.00000    
     37662 TIP3     2291     SWM4     H1       HDW      0.557330       1.00800           0   0.00000       0.00000    
     37663 TIP3     2291     SWM4     H2       HDW      0.557330       1.00800           0   0.00000       0.00000    
     37664 TIP3     2292     SWM4     OH2      ODW       1.71640       15.5994           0 -0.978253       1.30000    
     37665 TIP3     2292     SWM4     DOH2     DOH2     -1.71640      0.400000           0   0.00000       0.00000    
     37666 TIP3     2292     SWM4     OM       LPDW     -1.11466       0.00000          -1   0.00000       0.00000    
     37667 TIP3     2292     SWM4     H1       HDW      0.557330       1.00800           0   0.00000       0.00000    
     37668 TIP3     2292     SWM4     H2       HDW      0.557330       1.00800           0   0.00000       0.00000    
     37669 TIP3     2293     SWM4     OH2      ODW       1.71640       15.5994           0 -0.978253       1.30000    
     37670 TIP3     2293     SWM4     DOH2     DOH2     -1.71640      0.400000           0   0.00000       0.00000    
     37671 TIP3     2293     SWM4     OM       LPDW     -1.11466       0.00000          -1   0.00000       0.00000    
     37672 TIP3     2293     SWM4     H1       HDW      0.557330       1.00800           0   0.00000       0.00000    
     37673 TIP3     2293     SWM4     H2       HDW      0.557330       1.00800           0   0.00000       0.00000    
     37674 TIP3     2294     SWM4     OH2      ODW       1.71640       15.5994           0 -0.978253       1.30000    
     37675 TIP3     2294     SWM4     DOH2     DOH2     -1.71640      0.400000           0   0.00000       0.00000    
     37676 TIP3     2294     SWM4     OM       LPDW     -1.11466       0.00000          -1   0.00000       0.00000    
     37677 TIP3     2294     SWM4     H1       HDW      0.557330       1.00800           0   0.00000       0.00000    
     37678 TIP3     2294     SWM4     H2       HDW      0.557330       1.00800           0   0.00000       0.00000    
     37679 TIP3     2295     SWM4     OH2      ODW       1.71640       15.5994           0 -0.978253       1.30000    
     37680 TIP3     2295     SWM4     DOH2     DOH2     -1.71640      0.400000           0   0.00000       0.00000    
     37681 TIP3     2295     SWM4     OM       LPDW     -1.11466       0.00000          -1   0.00000       0.00000    
     37682 TIP3     2295     SWM4     H1       HDW      0.557330       1.00800           0   0.00000       0.00000    
     37683 TIP3     2295     SWM4     H2       HDW      0.557330       1.00800           0   0.00000       0.00000    
     37684 TIP3     2296     SWM4     OH2      ODW       1.71640       15.5994           0 -0.978253       1.30000    
     37685 TIP3     2296     SWM4     DOH2     DOH2     -1.71640      0.400000           0   0.00000       0.00000    
     37686 TIP3     2296     SWM4     OM       LPDW     -1.11466       0.00000          -1   0.00000       0.00000    
     37687 TIP3     2296     SWM4     H1       HDW      0.557330       1.00800           0   0.00000       0.00000    
     37688 TIP3     2296     SWM4     H2       HDW      0.557330       1.00800           0   0.00000       0.00000    
     37689 TIP3     2297     SWM4     OH2      ODW       1.71640       15.5994           0 -0.978253       1.30000    
     37690 TIP3     2297     SWM4     DOH2     DOH2     -1.71640      0.400000           0   0.00000       0.00000    
     37691 TIP3     2297     SWM4     OM       LPDW     -1.11466       0.00000          -1   0.00000       0.00000    
     37692 TIP3     2297     SWM4     H1       HDW      0.557330       1.00800           0   0.00000       0.00000    
     37693 TIP3     2297     SWM4     H2       HDW      0.557330       1.00800           0   0.00000       0.00000    
     37694 TIP3     2298     SWM4     OH2      ODW       1.71640       15.5994           0 -0.978253       1.30000    
     37695 TIP3     2298     SWM4     DOH2     DOH2     -1.71640      0.400000           0   0.00000       0.00000    
     37696 TIP3     2298     SWM4     OM       LPDW     -1.11466       0.00000          -1   0.00000       0.00000    
     37697 TIP3     2298     SWM4     H1       HDW      0.557330       1.00800           0   0.00000       0.00000    
     37698 TIP3     2298     SWM4     H2       HDW      0.557330       1.00800           0   0.00000       0.00000    
     37699 TIP3     2299     SWM4     OH2      ODW       1.71640       15.5994           0 -0.978253       1.30000    
     37700 TIP3     2299     SWM4     DOH2     DOH2     -1.71640      0.400000           0   0.00000       0.00000    
     37701 TIP3     2299     SWM4     OM       LPDW     -1.11466       0.00000          -1   0.00000       0.00000    
     37702 TIP3     2299     SWM4     H1       HDW      0.557330       1.00800           0   0.00000       0.00000    
     37703 TIP3     2299     SWM4     H2       HDW      0.557330       1.00800           0   0.00000       0.00000    
     37704 TIP3     2300     SWM4     OH2      ODW       1.71640       15.5994           0 -0.978253       1.30000    
     37705 TIP3     2300     SWM4     DOH2     DOH2     -1.71640      0.400000           0   0.00000       0.00000    
     37706 TIP3     2300     SWM4     OM       LPDW     -1.11466       0.00000          -1   0.00000       0.00000    
     37707 TIP3     2300     SWM4     H1       HDW      0.557330       1.00800           0   0.00000       0.00000    
     37708 TIP3     2300     SWM4     H2       HDW      0.557330       1.00800           0   0.00000       0.00000    
     37709 TIP3     2301     SWM4     OH2      ODW       1.71640       15.5994           0 -0.978253       1.30000    
     37710 TIP3     2301     SWM4     DOH2     DOH2     -1.71640      0.400000           0   0.00000       0.00000    
     37711 TIP3     2301     SWM4     OM       LPDW     -1.11466       0.00000          -1   0.00000       0.00000    
     37712 TIP3     2301     SWM4     H1       HDW      0.557330       1.00800           0   0.00000       0.00000    
     37713 TIP3     2301     SWM4     H2       HDW      0.557330       1.00800           0   0.00000       0.00000    
     37714 TIP3     2302     SWM4     OH2      ODW       1.71640       15.5994           0 -0.978253       1.30000    
     37715 TIP3     2302     SWM4     DOH2     DOH2     -1.71640      0.400000           0   0.00000       0.00000    
     37716 TIP3     2302     SWM4     OM       LPDW     -1.11466       0.00000          -1   0.00000       0.00000    
     37717 TIP3     2302     SWM4     H1       HDW      0.557330       1.00800           0   0.00000       0.00000    
     37718 TIP3     2302     SWM4     H2       HDW      0.557330       1.00800           0   0.00000       0.00000    
     37719 TIP3     2303     SWM4     OH2      ODW       1.71640       15.5994           0 -0.978253       1.30000    
     37720 TIP3     2303     SWM4     DOH2     DOH2     -1.71640      0.400000           0   0.00000       0.00000    
     37721 TIP3     2303     SWM4     OM       LPDW     -1.11466       0.00000          -1   0.00000       0.00000    
     37722 TIP3     2303     SWM4     H1       HDW      0.557330       1.00800           0   0.00000       0.00000    
     37723 TIP3     2303     SWM4     H2       HDW      0.557330       1.00800           0   0.00000       0.00000    
     37724 TIP3     2304     SWM4     OH2      ODW       1.71640       15.5994           0 -0.978253       1.30000    
     37725 TIP3     2304     SWM4     DOH2     DOH2     -1.71640      0.400000           0   0.00000       0.00000    
     37726 TIP3     2304     SWM4     OM       LPDW     -1.11466       0.00000          -1   0.00000       0.00000    
     37727 TIP3     2304     SWM4     H1       HDW      0.557330       1.00800           0   0.00000       0.00000    
     37728 TIP3     2304     SWM4     H2       HDW      0.557330       1.00800           0   0.00000       0.00000    
     37729 TIP3     2305     SWM4     OH2      ODW       1.71640       15.5994           0 -0.978253       1.30000    
     37730 TIP3     2305     SWM4     DOH2     DOH2     -1.71640      0.400000           0   0.00000       0.00000    
     37731 TIP3     2305     SWM4     OM       LPDW     -1.11466       0.00000          -1   0.00000       0.00000    
     37732 TIP3     2305     SWM4     H1       HDW      0.557330       1.00800           0   0.00000       0.00000    
     37733 TIP3     2305     SWM4     H2       HDW      0.557330       1.00800           0   0.00000       0.00000    
     37734 TIP3     2306     SWM4     OH2      ODW       1.71640       15.5994           0 -0.978253       1.30000    
     37735 TIP3     2306     SWM4     DOH2     DOH2     -1.71640      0.400000           0   0.00000       0.00000    
     37736 TIP3     2306     SWM4     OM       LPDW     -1.11466       0.00000          -1   0.00000       0.00000    
     37737 TIP3     2306     SWM4     H1       HDW      0.557330       1.00800           0   0.00000       0.00000    
     37738 TIP3     2306     SWM4     H2       HDW      0.557330       1.00800           0   0.00000       0.00000    
     37739 TIP3     2307     SWM4     OH2      ODW       1.71640       15.5994           0 -0.978253       1.30000    
     37740 TIP3     2307     SWM4     DOH2     DOH2     -1.71640      0.400000           0   0.00000       0.00000    
     37741 TIP3     2307     SWM4     OM       LPDW     -1.11466       0.00000          -1   0.00000       0.00000    
     37742 TIP3     2307     SWM4     H1       HDW      0.557330       1.00800           0   0.00000       0.00000    
     37743 TIP3     2307     SWM4     H2       HDW      0.557330       1.00800           0   0.00000       0.00000    
     37744 TIP3     2308     SWM4     OH2      ODW       1.71640       15.5994           0 -0.978253       1.30000    
     37745 TIP3     2308     SWM4     DOH2     DOH2     -1.71640      0.400000           0   0.00000       0.00000    
     37746 TIP3     2308     SWM4     OM       LPDW     -1.11466       0.00000          -1   0.00000       0.00000    
     37747 TIP3     2308     SWM4     H1       HDW      0.557330       1.00800           0   0.00000       0.00000    
     37748 TIP3     2308     SWM4     H2       HDW      0.557330       1.00800           0   0.00000       0.00000    
     37749 TIP3     2309     SWM4     OH2      ODW       1.71640       15.5994           0 -0.978253       1.30000    
     37750 TIP3     2309     SWM4     DOH2     DOH2     -1.71640      0.400000           0   0.00000       0.00000    
     37751 TIP3     2309     SWM4     OM       LPDW     -1.11466       0.00000          -1   0.00000       0.00000    
     37752 TIP3     2309     SWM4     H1       HDW      0.557330       1.00800           0   0.00000       0.00000    
     37753 TIP3     2309     SWM4     H2       HDW      0.557330       1.00800           0   0.00000       0.00000    
     37754 TIP3     2310     SWM4     OH2      ODW       1.71640       15.5994           0 -0.978253       1.30000    
     37755 TIP3     2310     SWM4     DOH2     DOH2     -1.71640      0.400000           0   0.00000       0.00000    
     37756 TIP3     2310     SWM4     OM       LPDW     -1.11466       0.00000          -1   0.00000       0.00000    
     37757 TIP3     2310     SWM4     H1       HDW      0.557330       1.00800           0   0.00000       0.00000    
     37758 TIP3     2310     SWM4     H2       HDW      0.557330       1.00800           0   0.00000       0.00000    
     37759 TIP3     2311     SWM4     OH2      ODW       1.71640       15.5994           0 -0.978253       1.30000    
     37760 TIP3     2311     SWM4     DOH2     DOH2     -1.71640      0.400000           0   0.00000       0.00000    
     37761 TIP3     2311     SWM4     OM       LPDW     -1.11466       0.00000          -1   0.00000       0.00000    
     37762 TIP3     2311     SWM4     H1       HDW      0.557330       1.00800           0   0.00000       0.00000    
     37763 TIP3     2311     SWM4     H2       HDW      0.557330       1.00800           0   0.00000       0.00000    
     37764 TIP3     2312     SWM4     OH2      ODW       1.71640       15.5994           0 -0.978253       1.30000    
     37765 TIP3     2312     SWM4     DOH2     DOH2     -1.71640      0.400000           0   0.00000       0.00000    
     37766 TIP3     2312     SWM4     OM       LPDW     -1.11466       0.00000          -1   0.00000       0.00000    
     37767 TIP3     2312     SWM4     H1       HDW      0.557330       1.00800           0   0.00000       0.00000    
     37768 TIP3     2312     SWM4     H2       HDW      0.557330       1.00800           0   0.00000       0.00000    
     37769 TIP3     2313     SWM4     OH2      ODW       1.71640       15.5994           0 -0.978253       1.30000    
     37770 TIP3     2313     SWM4     DOH2     DOH2     -1.71640      0.400000           0   0.00000       0.00000    
     37771 TIP3     2313     SWM4     OM       LPDW     -1.11466       0.00000          -1   0.00000       0.00000    
     37772 TIP3     2313     SWM4     H1       HDW      0.557330       1.00800           0   0.00000       0.00000    
     37773 TIP3     2313     SWM4     H2       HDW      0.557330       1.00800           0   0.00000       0.00000    
     37774 TIP3     2314     SWM4     OH2      ODW       1.71640       15.5994           0 -0.978253       1.30000    
     37775 TIP3     2314     SWM4     DOH2     DOH2     -1.71640      0.400000           0   0.00000       0.00000    
     37776 TIP3     2314     SWM4     OM       LPDW     -1.11466       0.00000          -1   0.00000       0.00000    
     37777 TIP3     2314     SWM4     H1       HDW      0.557330       1.00800           0   0.00000       0.00000    
     37778 TIP3     2314     SWM4     H2       HDW      0.557330       1.00800           0   0.00000       0.00000    
     37779 TIP3     2315     SWM4     OH2      ODW       1.71640       15.5994           0 -0.978253       1.30000    
     37780 TIP3     2315     SWM4     DOH2     DOH2     -1.71640      0.400000           0   0.00000       0.00000    
     37781 TIP3     2315     SWM4     OM       LPDW     -1.11466       0.00000          -1   0.00000       0.00000    
     37782 TIP3     2315     SWM4     H1       HDW      0.557330       1.00800           0   0.00000       0.00000    
     37783 TIP3     2315     SWM4     H2       HDW      0.557330       1.00800           0   0.00000       0.00000    
     37784 TIP3     2316     SWM4     OH2      ODW       1.71640       15.5994           0 -0.978253       1.30000    
     37785 TIP3     2316     SWM4     DOH2     DOH2     -1.71640      0.400000           0   0.00000       0.00000    
     37786 TIP3     2316     SWM4     OM       LPDW     -1.11466       0.00000          -1   0.00000       0.00000    
     37787 TIP3     2316     SWM4     H1       HDW      0.557330       1.00800           0   0.00000       0.00000    
     37788 TIP3     2316     SWM4     H2       HDW      0.557330       1.00800           0   0.00000       0.00000    
     37789 TIP3     2317     SWM4     OH2      ODW       1.71640       15.5994           0 -0.978253       1.30000    
     37790 TIP3     2317     SWM4     DOH2     DOH2     -1.71640      0.400000           0   0.00000       0.00000    
     37791 TIP3     2317     SWM4     OM       LPDW     -1.11466       0.00000          -1   0.00000       0.00000    
     37792 TIP3     2317     SWM4     H1       HDW      0.557330       1.00800           0   0.00000       0.00000    
     37793 TIP3     2317     SWM4     H2       HDW      0.557330       1.00800           0   0.00000       0.00000    
     37794 TIP3     2318     SWM4     OH2      ODW       1.71640       15.5994           0 -0.978253       1.30000    
     37795 TIP3     2318     SWM4     DOH2     DOH2     -1.71640      0.400000           0   0.00000       0.00000    
     37796 TIP3     2318     SWM4     OM       LPDW     -1.11466       0.00000          -1   0.00000       0.00000    
     37797 TIP3     2318     SWM4     H1       HDW      0.557330       1.00800           0   0.00000       0.00000    
     37798 TIP3     2318     SWM4     H2       HDW      0.557330       1.00800           0   0.00000       0.00000    
     37799 TIP3     2319     SWM4     OH2      ODW       1.71640       15.5994           0 -0.978253       1.30000    
     37800 TIP3     2319     SWM4     DOH2     DOH2     -1.71640      0.400000           0   0.00000       0.00000    
     37801 TIP3     2319     SWM4     OM       LPDW     -1.11466       0.00000          -1   0.00000       0.00000    
     37802 TIP3     2319     SWM4     H1       HDW      0.557330       1.00800           0   0.00000       0.00000    
     37803 TIP3     2319     SWM4     H2       HDW      0.557330       1.00800           0   0.00000       0.00000    
     37804 TIP3     2320     SWM4     OH2      ODW       1.71640       15.5994           0 -0.978253       1.30000    
     37805 TIP3     2320     SWM4     DOH2     DOH2     -1.71640      0.400000           0   0.00000       0.00000    
     37806 TIP3     2320     SWM4     OM       LPDW     -1.11466       0.00000          -1   0.00000       0.00000    
     37807 TIP3     2320     SWM4     H1       HDW      0.557330       1.00800           0   0.00000       0.00000    
     37808 TIP3     2320     SWM4     H2       HDW      0.557330       1.00800           0   0.00000       0.00000    
     37809 TIP3     2321     SWM4     OH2      ODW       1.71640       15.5994           0 -0.978253       1.30000    
     37810 TIP3     2321     SWM4     DOH2     DOH2     -1.71640      0.400000           0   0.00000       0.00000    
     37811 TIP3     2321     SWM4     OM       LPDW     -1.11466       0.00000          -1   0.00000       0.00000    
     37812 TIP3     2321     SWM4     H1       HDW      0.557330       1.00800           0   0.00000       0.00000    
     37813 TIP3     2321     SWM4     H2       HDW      0.557330       1.00800           0   0.00000       0.00000    
     37814 TIP3     2322     SWM4     OH2      ODW       1.71640       15.5994           0 -0.978253       1.30000    
     37815 TIP3     2322     SWM4     DOH2     DOH2     -1.71640      0.400000           0   0.00000       0.00000    
     37816 TIP3     2322     SWM4     OM       LPDW     -1.11466       0.00000          -1   0.00000       0.00000    
     37817 TIP3     2322     SWM4     H1       HDW      0.557330       1.00800           0   0.00000       0.00000    
     37818 TIP3     2322     SWM4     H2       HDW      0.557330       1.00800           0   0.00000       0.00000    
     37819 TIP3     2323     SWM4     OH2      ODW       1.71640       15.5994           0 -0.978253       1.30000    
     37820 TIP3     2323     SWM4     DOH2     DOH2     -1.71640      0.400000           0   0.00000       0.00000    
     37821 TIP3     2323     SWM4     OM       LPDW     -1.11466       0.00000          -1   0.00000       0.00000    
     37822 TIP3     2323     SWM4     H1       HDW      0.557330       1.00800           0   0.00000       0.00000    
     37823 TIP3     2323     SWM4     H2       HDW      0.557330       1.00800           0   0.00000       0.00000    
     37824 TIP3     2324     SWM4     OH2      ODW       1.71640       15.5994           0 -0.978253       1.30000    
     37825 TIP3     2324     SWM4     DOH2     DOH2     -1.71640      0.400000           0   0.00000       0.00000    
     37826 TIP3     2324     SWM4     OM       LPDW     -1.11466       0.00000          -1   0.00000       0.00000    
     37827 TIP3     2324     SWM4     H1       HDW      0.557330       1.00800           0   0.00000       0.00000    
     37828 TIP3     2324     SWM4     H2       HDW      0.557330       1.00800           0   0.00000       0.00000    
     37829 TIP3     2325     SWM4     OH2      ODW       1.71640       15.5994           0 -0.978253       1.30000    
     37830 TIP3     2325     SWM4     DOH2     DOH2     -1.71640      0.400000           0   0.00000       0.00000    
     37831 TIP3     2325     SWM4     OM       LPDW     -1.11466       0.00000          -1   0.00000       0.00000    
     37832 TIP3     2325     SWM4     H1       HDW      0.557330       1.00800           0   0.00000       0.00000    
     37833 TIP3     2325     SWM4     H2       HDW      0.557330       1.00800           0   0.00000       0.00000    
     37834 TIP3     2326     SWM4     OH2      ODW       1.71640       15.5994           0 -0.978253       1.30000    
     37835 TIP3     2326     SWM4     DOH2     DOH2     -1.71640      0.400000           0   0.00000       0.00000    
     37836 TIP3     2326     SWM4     OM       LPDW     -1.11466       0.00000          -1   0.00000       0.00000    
     37837 TIP3     2326     SWM4     H1       HDW      0.557330       1.00800           0   0.00000       0.00000    
     37838 TIP3     2326     SWM4     H2       HDW      0.557330       1.00800           0   0.00000       0.00000    
     37839 TIP3     2327     SWM4     OH2      ODW       1.71640       15.5994           0 -0.978253       1.30000    
     37840 TIP3     2327     SWM4     DOH2     DOH2     -1.71640      0.400000           0   0.00000       0.00000    
     37841 TIP3     2327     SWM4     OM       LPDW     -1.11466       0.00000          -1   0.00000       0.00000    
     37842 TIP3     2327     SWM4     H1       HDW      0.557330       1.00800           0   0.00000       0.00000    
     37843 TIP3     2327     SWM4     H2       HDW      0.557330       1.00800           0   0.00000       0.00000    
     37844 TIP3     2328     SWM4     OH2      ODW       1.71640       15.5994           0 -0.978253       1.30000    
     37845 TIP3     2328     SWM4     DOH2     DOH2     -1.71640      0.400000           0   0.00000       0.00000    
     37846 TIP3     2328     SWM4     OM       LPDW     -1.11466       0.00000          -1   0.00000       0.00000    
     37847 TIP3     2328     SWM4     H1       HDW      0.557330       1.00800           0   0.00000       0.00000    
     37848 TIP3     2328     SWM4     H2       HDW      0.557330       1.00800           0   0.00000       0.00000    
     37849 TIP3     2329     SWM4     OH2      ODW       1.71640       15.5994           0 -0.978253       1.30000    
     37850 TIP3     2329     SWM4     DOH2     DOH2     -1.71640      0.400000           0   0.00000       0.00000    
     37851 TIP3     2329     SWM4     OM       LPDW     -1.11466       0.00000          -1   0.00000       0.00000    
     37852 TIP3     2329     SWM4     H1       HDW      0.557330       1.00800           0   0.00000       0.00000    
     37853 TIP3     2329     SWM4     H2       HDW      0.557330       1.00800           0   0.00000       0.00000    
     37854 TIP3     2330     SWM4     OH2      ODW       1.71640       15.5994           0 -0.978253       1.30000    
     37855 TIP3     2330     SWM4     DOH2     DOH2     -1.71640      0.400000           0   0.00000       0.00000    
     37856 TIP3     2330     SWM4     OM       LPDW     -1.11466       0.00000          -1   0.00000       0.00000    
     37857 TIP3     2330     SWM4     H1       HDW      0.557330       1.00800           0   0.00000       0.00000    
     37858 TIP3     2330     SWM4     H2       HDW      0.557330       1.00800           0   0.00000       0.00000    
     37859 TIP3     2331     SWM4     OH2      ODW       1.71640       15.5994           0 -0.978253       1.30000    
     37860 TIP3     2331     SWM4     DOH2     DOH2     -1.71640      0.400000           0   0.00000       0.00000    
     37861 TIP3     2331     SWM4     OM       LPDW     -1.11466       0.00000          -1   0.00000       0.00000    
     37862 TIP3     2331     SWM4     H1       HDW      0.557330       1.00800           0   0.00000       0.00000    
     37863 TIP3     2331     SWM4     H2       HDW      0.557330       1.00800           0   0.00000       0.00000    
     37864 TIP3     2332     SWM4     OH2      ODW       1.71640       15.5994           0 -0.978253       1.30000    
     37865 TIP3     2332     SWM4     DOH2     DOH2     -1.71640      0.400000           0   0.00000       0.00000    
     37866 TIP3     2332     SWM4     OM       LPDW     -1.11466       0.00000          -1   0.00000       0.00000    
     37867 TIP3     2332     SWM4     H1       HDW      0.557330       1.00800           0   0.00000       0.00000    
     37868 TIP3     2332     SWM4     H2       HDW      0.557330       1.00800           0   0.00000       0.00000    
     37869 TIP3     2333     SWM4     OH2      ODW       1.71640       15.5994           0 -0.978253       1.30000    
     37870 TIP3     2333     SWM4     DOH2     DOH2     -1.71640      0.400000           0   0.00000       0.00000    
     37871 TIP3     2333     SWM4     OM       LPDW     -1.11466       0.00000          -1   0.00000       0.00000    
     37872 TIP3     2333     SWM4     H1       HDW      0.557330       1.00800           0   0.00000       0.00000    
     37873 TIP3     2333     SWM4     H2       HDW      0.557330       1.00800           0   0.00000       0.00000    
     37874 TIP3     2334     SWM4     OH2      ODW       1.71640       15.5994           0 -0.978253       1.30000    
     37875 TIP3     2334     SWM4     DOH2     DOH2     -1.71640      0.400000           0   0.00000       0.00000    
     37876 TIP3     2334     SWM4     OM       LPDW     -1.11466       0.00000          -1   0.00000       0.00000    
     37877 TIP3     2334     SWM4     H1       HDW      0.557330       1.00800           0   0.00000       0.00000    
     37878 TIP3     2334     SWM4     H2       HDW      0.557330       1.00800           0   0.00000       0.00000    
     37879 TIP3     2335     SWM4     OH2      ODW       1.71640       15.5994           0 -0.978253       1.30000    
     37880 TIP3     2335     SWM4     DOH2     DOH2     -1.71640      0.400000           0   0.00000       0.00000    
     37881 TIP3     2335     SWM4     OM       LPDW     -1.11466       0.00000          -1   0.00000       0.00000    
     37882 TIP3     2335     SWM4     H1       HDW      0.557330       1.00800           0   0.00000       0.00000    
     37883 TIP3     2335     SWM4     H2       HDW      0.557330       1.00800           0   0.00000       0.00000    
     37884 TIP3     2336     SWM4     OH2      ODW       1.71640       15.5994           0 -0.978253       1.30000    
     37885 TIP3     2336     SWM4     DOH2     DOH2     -1.71640      0.400000           0   0.00000       0.00000    
     37886 TIP3     2336     SWM4     OM       LPDW     -1.11466       0.00000          -1   0.00000       0.00000    
     37887 TIP3     2336     SWM4     H1       HDW      0.557330       1.00800           0   0.00000       0.00000    
     37888 TIP3     2336     SWM4     H2       HDW      0.557330       1.00800           0   0.00000       0.00000    
     37889 TIP3     2337     SWM4     OH2      ODW       1.71640       15.5994           0 -0.978253       1.30000    
     37890 TIP3     2337     SWM4     DOH2     DOH2     -1.71640      0.400000           0   0.00000       0.00000    
     37891 TIP3     2337     SWM4     OM       LPDW     -1.11466       0.00000          -1   0.00000       0.00000    
     37892 TIP3     2337     SWM4     H1       HDW      0.557330       1.00800           0   0.00000       0.00000    
     37893 TIP3     2337     SWM4     H2       HDW      0.557330       1.00800           0   0.00000       0.00000    
     37894 TIP3     2338     SWM4     OH2      ODW       1.71640       15.5994           0 -0.978253       1.30000    
     37895 TIP3     2338     SWM4     DOH2     DOH2     -1.71640      0.400000           0   0.00000       0.00000    
     37896 TIP3     2338     SWM4     OM       LPDW     -1.11466       0.00000          -1   0.00000       0.00000    
     37897 TIP3     2338     SWM4     H1       HDW      0.557330       1.00800           0   0.00000       0.00000    
     37898 TIP3     2338     SWM4     H2       HDW      0.557330       1.00800           0   0.00000       0.00000    
     37899 TIP3     2339     SWM4     OH2      ODW       1.71640       15.5994           0 -0.978253       1.30000    
     37900 TIP3     2339     SWM4     DOH2     DOH2     -1.71640      0.400000           0   0.00000       0.00000    
     37901 TIP3     2339     SWM4     OM       LPDW     -1.11466       0.00000          -1   0.00000       0.00000    
     37902 TIP3     2339     SWM4     H1       HDW      0.557330       1.00800           0   0.00000       0.00000    
     37903 TIP3     2339     SWM4     H2       HDW      0.557330       1.00800           0   0.00000       0.00000    
     37904 TIP3     2340     SWM4     OH2      ODW       1.71640       15.5994           0 -0.978253       1.30000    
     37905 TIP3     2340     SWM4     DOH2     DOH2     -1.71640      0.400000           0   0.00000       0.00000    
     37906 TIP3     2340     SWM4     OM       LPDW     -1.11466       0.00000          -1   0.00000       0.00000    
     37907 TIP3     2340     SWM4     H1       HDW      0.557330       1.00800           0   0.00000       0.00000    
     37908 TIP3     2340     SWM4     H2       HDW      0.557330       1.00800           0   0.00000       0.00000    
     37909 TIP3     2341     SWM4     OH2      ODW       1.71640       15.5994           0 -0.978253       1.30000    
     37910 TIP3     2341     SWM4     DOH2     DOH2     -1.71640      0.400000           0   0.00000       0.00000    
     37911 TIP3     2341     SWM4     OM       LPDW     -1.11466       0.00000          -1   0.00000       0.00000    
     37912 TIP3     2341     SWM4     H1       HDW      0.557330       1.00800           0   0.00000       0.00000    
     37913 TIP3     2341     SWM4     H2       HDW      0.557330       1.00800           0   0.00000       0.00000    
     37914 TIP3     2342     SWM4     OH2      ODW       1.71640       15.5994           0 -0.978253       1.30000    
     37915 TIP3     2342     SWM4     DOH2     DOH2     -1.71640      0.400000           0   0.00000       0.00000    
     37916 TIP3     2342     SWM4     OM       LPDW     -1.11466       0.00000          -1   0.00000       0.00000    
     37917 TIP3     2342     SWM4     H1       HDW      0.557330       1.00800           0   0.00000       0.00000    
     37918 TIP3     2342     SWM4     H2       HDW      0.557330       1.00800           0   0.00000       0.00000    
     37919 TIP3     2343     SWM4     OH2      ODW       1.71640       15.5994           0 -0.978253       1.30000    
     37920 TIP3     2343     SWM4     DOH2     DOH2     -1.71640      0.400000           0   0.00000       0.00000    
     37921 TIP3     2343     SWM4     OM       LPDW     -1.11466       0.00000          -1   0.00000       0.00000    
     37922 TIP3     2343     SWM4     H1       HDW      0.557330       1.00800           0   0.00000       0.00000    
     37923 TIP3     2343     SWM4     H2       HDW      0.557330       1.00800           0   0.00000       0.00000    
     37924 TIP3     2344     SWM4     OH2      ODW       1.71640       15.5994           0 -0.978253       1.30000    
     37925 TIP3     2344     SWM4     DOH2     DOH2     -1.71640      0.400000           0   0.00000       0.00000    
     37926 TIP3     2344     SWM4     OM       LPDW     -1.11466       0.00000          -1   0.00000       0.00000    
     37927 TIP3     2344     SWM4     H1       HDW      0.557330       1.00800           0   0.00000       0.00000    
     37928 TIP3     2344     SWM4     H2       HDW      0.557330       1.00800           0   0.00000       0.00000    
     37929 TIP3     2345     SWM4     OH2      ODW       1.71640       15.5994           0 -0.978253       1.30000    
     37930 TIP3     2345     SWM4     DOH2     DOH2     -1.71640      0.400000           0   0.00000       0.00000    
     37931 TIP3     2345     SWM4     OM       LPDW     -1.11466       0.00000          -1   0.00000       0.00000    
     37932 TIP3     2345     SWM4     H1       HDW      0.557330       1.00800           0   0.00000       0.00000    
     37933 TIP3     2345     SWM4     H2       HDW      0.557330       1.00800           0   0.00000       0.00000    
     37934 TIP3     2346     SWM4     OH2      ODW       1.71640       15.5994           0 -0.978253       1.30000    
     37935 TIP3     2346     SWM4     DOH2     DOH2     -1.71640      0.400000           0   0.00000       0.00000    
     37936 TIP3     2346     SWM4     OM       LPDW     -1.11466       0.00000          -1   0.00000       0.00000    
     37937 TIP3     2346     SWM4     H1       HDW      0.557330       1.00800           0   0.00000       0.00000    
     37938 TIP3     2346     SWM4     H2       HDW      0.557330       1.00800           0   0.00000       0.00000    
     37939 TIP3     2347     SWM4     OH2      ODW       1.71640       15.5994           0 -0.978253       1.30000    
     37940 TIP3     2347     SWM4     DOH2     DOH2     -1.71640      0.400000           0   0.00000       0.00000    
     37941 TIP3     2347     SWM4     OM       LPDW     -1.11466       0.00000          -1   0.00000       0.00000    
     37942 TIP3     2347     SWM4     H1       HDW      0.557330       1.00800           0   0.00000       0.00000    
     37943 TIP3     2347     SWM4     H2       HDW      0.557330       1.00800           0   0.00000       0.00000    
     37944 TIP3     2348     SWM4     OH2      ODW       1.71640       15.5994           0 -0.978253       1.30000    
     37945 TIP3     2348     SWM4     DOH2     DOH2     -1.71640      0.400000           0   0.00000       0.00000    
     37946 TIP3     2348     SWM4     OM       LPDW     -1.11466       0.00000          -1   0.00000       0.00000    
     37947 TIP3     2348     SWM4     H1       HDW      0.557330       1.00800           0   0.00000       0.00000    
     37948 TIP3     2348     SWM4     H2       HDW      0.557330       1.00800           0   0.00000       0.00000    
     37949 TIP3     2349     SWM4     OH2      ODW       1.71640       15.5994           0 -0.978253       1.30000    
     37950 TIP3     2349     SWM4     DOH2     DOH2     -1.71640      0.400000           0   0.00000       0.00000    
     37951 TIP3     2349     SWM4     OM       LPDW     -1.11466       0.00000          -1   0.00000       0.00000    
     37952 TIP3     2349     SWM4     H1       HDW      0.557330       1.00800           0   0.00000       0.00000    
     37953 TIP3     2349     SWM4     H2       HDW      0.557330       1.00800           0   0.00000       0.00000    
     37954 TIP3     2350     SWM4     OH2      ODW       1.71640       15.5994           0 -0.978253       1.30000    
     37955 TIP3     2350     SWM4     DOH2     DOH2     -1.71640      0.400000           0   0.00000       0.00000    
     37956 TIP3     2350     SWM4     OM       LPDW     -1.11466       0.00000          -1   0.00000       0.00000    
     37957 TIP3     2350     SWM4     H1       HDW      0.557330       1.00800           0   0.00000       0.00000    
     37958 TIP3     2350     SWM4     H2       HDW      0.557330       1.00800           0   0.00000       0.00000    
     37959 TIP3     2351     SWM4     OH2      ODW       1.71640       15.5994           0 -0.978253       1.30000    
     37960 TIP3     2351     SWM4     DOH2     DOH2     -1.71640      0.400000           0   0.00000       0.00000    
     37961 TIP3     2351     SWM4     OM       LPDW     -1.11466       0.00000          -1   0.00000       0.00000    
     37962 TIP3     2351     SWM4     H1       HDW      0.557330       1.00800           0   0.00000       0.00000    
     37963 TIP3     2351     SWM4     H2       HDW      0.557330       1.00800           0   0.00000       0.00000    
     37964 TIP3     2352     SWM4     OH2      ODW       1.71640       15.5994           0 -0.978253       1.30000    
     37965 TIP3     2352     SWM4     DOH2     DOH2     -1.71640      0.400000           0   0.00000       0.00000    
     37966 TIP3     2352     SWM4     OM       LPDW     -1.11466       0.00000          -1   0.00000       0.00000    
     37967 TIP3     2352     SWM4     H1       HDW      0.557330       1.00800           0   0.00000       0.00000    
     37968 TIP3     2352     SWM4     H2       HDW      0.557330       1.00800           0   0.00000       0.00000    
     37969 TIP3     2353     SWM4     OH2      ODW       1.71640       15.5994           0 -0.978253       1.30000    
     37970 TIP3     2353     SWM4     DOH2     DOH2     -1.71640      0.400000           0   0.00000       0.00000    
     37971 TIP3     2353     SWM4     OM       LPDW     -1.11466       0.00000          -1   0.00000       0.00000    
     37972 TIP3     2353     SWM4     H1       HDW      0.557330       1.00800           0   0.00000       0.00000    
     37973 TIP3     2353     SWM4     H2       HDW      0.557330       1.00800           0   0.00000       0.00000    
     37974 TIP3     2354     SWM4     OH2      ODW       1.71640       15.5994           0 -0.978253       1.30000    
     37975 TIP3     2354     SWM4     DOH2     DOH2     -1.71640      0.400000           0   0.00000       0.00000    
     37976 TIP3     2354     SWM4     OM       LPDW     -1.11466       0.00000          -1   0.00000       0.00000    
     37977 TIP3     2354     SWM4     H1       HDW      0.557330       1.00800           0   0.00000       0.00000    
     37978 TIP3     2354     SWM4     H2       HDW      0.557330       1.00800           0   0.00000       0.00000    
     37979 TIP3     2355     SWM4     OH2      ODW       1.71640       15.5994           0 -0.978253       1.30000    
     37980 TIP3     2355     SWM4     DOH2     DOH2     -1.71640      0.400000           0   0.00000       0.00000    
     37981 TIP3     2355     SWM4     OM       LPDW     -1.11466       0.00000          -1   0.00000       0.00000    
     37982 TIP3     2355     SWM4     H1       HDW      0.557330       1.00800           0   0.00000       0.00000    
     37983 TIP3     2355     SWM4     H2       HDW      0.557330       1.00800           0   0.00000       0.00000    
     37984 TIP3     2356     SWM4     OH2      ODW       1.71640       15.5994           0 -0.978253       1.30000    
     37985 TIP3     2356     SWM4     DOH2     DOH2     -1.71640      0.400000           0   0.00000       0.00000    
     37986 TIP3     2356     SWM4     OM       LPDW     -1.11466       0.00000          -1   0.00000       0.00000    
     37987 TIP3     2356     SWM4     H1       HDW      0.557330       1.00800           0   0.00000       0.00000    
     37988 TIP3     2356     SWM4     H2       HDW      0.557330       1.00800           0   0.00000       0.00000    
     37989 TIP3     2357     SWM4     OH2      ODW       1.71640       15.5994           0 -0.978253       1.30000    
     37990 TIP3     2357     SWM4     DOH2     DOH2     -1.71640      0.400000           0   0.00000       0.00000    
     37991 TIP3     2357     SWM4     OM       LPDW     -1.11466       0.00000          -1   0.00000       0.00000    
     37992 TIP3     2357     SWM4     H1       HDW      0.557330       1.00800           0   0.00000       0.00000    
     37993 TIP3     2357     SWM4     H2       HDW      0.557330       1.00800           0   0.00000       0.00000    
     37994 TIP3     2358     SWM4     OH2      ODW       1.71640       15.5994           0 -0.978253       1.30000    
     37995 TIP3     2358     SWM4     DOH2     DOH2     -1.71640      0.400000           0   0.00000       0.00000    
     37996 TIP3     2358     SWM4     OM       LPDW     -1.11466       0.00000          -1   0.00000       0.00000    
     37997 TIP3     2358     SWM4     H1       HDW      0.557330       1.00800           0   0.00000       0.00000    
     37998 TIP3     2358     SWM4     H2       HDW      0.557330       1.00800           0   0.00000       0.00000    
     37999 TIP3     2359     SWM4     OH2      ODW       1.71640       15.5994           0 -0.978253       1.30000    
     38000 TIP3     2359     SWM4     DOH2     DOH2     -1.71640      0.400000           0   0.00000       0.00000    
     38001 TIP3     2359     SWM4     OM       LPDW     -1.11466       0.00000          -1   0.00000       0.00000    
     38002 TIP3     2359     SWM4     H1       HDW      0.557330       1.00800           0   0.00000       0.00000    
     38003 TIP3     2359     SWM4     H2       HDW      0.557330       1.00800           0   0.00000       0.00000    
     38004 TIP3     2360     SWM4     OH2      ODW       1.71640       15.5994           0 -0.978253       1.30000    
     38005 TIP3     2360     SWM4     DOH2     DOH2     -1.71640      0.400000           0   0.00000       0.00000    
     38006 TIP3     2360     SWM4     OM       LPDW     -1.11466       0.00000          -1   0.00000       0.00000    
     38007 TIP3     2360     SWM4     H1       HDW      0.557330       1.00800           0   0.00000       0.00000    
     38008 TIP3     2360     SWM4     H2       HDW      0.557330       1.00800           0   0.00000       0.00000    
     38009 TIP3     2361     SWM4     OH2      ODW       1.71640       15.5994           0 -0.978253       1.30000    
     38010 TIP3     2361     SWM4     DOH2     DOH2     -1.71640      0.400000           0   0.00000       0.00000    
     38011 TIP3     2361     SWM4     OM       LPDW     -1.11466       0.00000          -1   0.00000       0.00000    
     38012 TIP3     2361     SWM4     H1       HDW      0.557330       1.00800           0   0.00000       0.00000    
     38013 TIP3     2361     SWM4     H2       HDW      0.557330       1.00800           0   0.00000       0.00000    
     38014 TIP3     2362     SWM4     OH2      ODW       1.71640       15.5994           0 -0.978253       1.30000    
     38015 TIP3     2362     SWM4     DOH2     DOH2     -1.71640      0.400000           0   0.00000       0.00000    
     38016 TIP3     2362     SWM4     OM       LPDW     -1.11466       0.00000          -1   0.00000       0.00000    
     38017 TIP3     2362     SWM4     H1       HDW      0.557330       1.00800           0   0.00000       0.00000    
     38018 TIP3     2362     SWM4     H2       HDW      0.557330       1.00800           0   0.00000       0.00000    
     38019 TIP3     2363     SWM4     OH2      ODW       1.71640       15.5994           0 -0.978253       1.30000    
     38020 TIP3     2363     SWM4     DOH2     DOH2     -1.71640      0.400000           0   0.00000       0.00000    
     38021 TIP3     2363     SWM4     OM       LPDW     -1.11466       0.00000          -1   0.00000       0.00000    
     38022 TIP3     2363     SWM4     H1       HDW      0.557330       1.00800           0   0.00000       0.00000    
     38023 TIP3     2363     SWM4     H2       HDW      0.557330       1.00800           0   0.00000       0.00000    
     38024 TIP3     2364     SWM4     OH2      ODW       1.71640       15.5994           0 -0.978253       1.30000    
     38025 TIP3     2364     SWM4     DOH2     DOH2     -1.71640      0.400000           0   0.00000       0.00000    
     38026 TIP3     2364     SWM4     OM       LPDW     -1.11466       0.00000          -1   0.00000       0.00000    
     38027 TIP3     2364     SWM4     H1       HDW      0.557330       1.00800           0   0.00000       0.00000    
     38028 TIP3     2364     SWM4     H2       HDW      0.557330       1.00800           0   0.00000       0.00000    
     38029 TIP3     2365     SWM4     OH2      ODW       1.71640       15.5994           0 -0.978253       1.30000    
     38030 TIP3     2365     SWM4     DOH2     DOH2     -1.71640      0.400000           0   0.00000       0.00000    
     38031 TIP3     2365     SWM4     OM       LPDW     -1.11466       0.00000          -1   0.00000       0.00000    
     38032 TIP3     2365     SWM4     H1       HDW      0.557330       1.00800           0   0.00000       0.00000    
     38033 TIP3     2365     SWM4     H2       HDW      0.557330       1.00800           0   0.00000       0.00000    
     38034 TIP3     2366     SWM4     OH2      ODW       1.71640       15.5994           0 -0.978253       1.30000    
     38035 TIP3     2366     SWM4     DOH2     DOH2     -1.71640      0.400000           0   0.00000       0.00000    
     38036 TIP3     2366     SWM4     OM       LPDW     -1.11466       0.00000          -1   0.00000       0.00000    
     38037 TIP3     2366     SWM4     H1       HDW      0.557330       1.00800           0   0.00000       0.00000    
     38038 TIP3     2366     SWM4     H2       HDW      0.557330       1.00800           0   0.00000       0.00000    
     38039 TIP3     2367     SWM4     OH2      ODW       1.71640       15.5994           0 -0.978253       1.30000    
     38040 TIP3     2367     SWM4     DOH2     DOH2     -1.71640      0.400000           0   0.00000       0.00000    
     38041 TIP3     2367     SWM4     OM       LPDW     -1.11466       0.00000          -1   0.00000       0.00000    
     38042 TIP3     2367     SWM4     H1       HDW      0.557330       1.00800           0   0.00000       0.00000    
     38043 TIP3     2367     SWM4     H2       HDW      0.557330       1.00800           0   0.00000       0.00000    
     38044 TIP3     2368     SWM4     OH2      ODW       1.71640       15.5994           0 -0.978253       1.30000    
     38045 TIP3     2368     SWM4     DOH2     DOH2     -1.71640      0.400000           0   0.00000       0.00000    
     38046 TIP3     2368     SWM4     OM       LPDW     -1.11466       0.00000          -1   0.00000       0.00000    
     38047 TIP3     2368     SWM4     H1       HDW      0.557330       1.00800           0   0.00000       0.00000    
     38048 TIP3     2368     SWM4     H2       HDW      0.557330       1.00800           0   0.00000       0.00000    
     38049 TIP3     2369     SWM4     OH2      ODW       1.71640       15.5994           0 -0.978253       1.30000    
     38050 TIP3     2369     SWM4     DOH2     DOH2     -1.71640      0.400000           0   0.00000       0.00000    
     38051 TIP3     2369     SWM4     OM       LPDW     -1.11466       0.00000          -1   0.00000       0.00000    
     38052 TIP3     2369     SWM4     H1       HDW      0.557330       1.00800           0   0.00000       0.00000    
     38053 TIP3     2369     SWM4     H2       HDW      0.557330       1.00800           0   0.00000       0.00000    
     38054 TIP3     2370     SWM4     OH2      ODW       1.71640       15.5994           0 -0.978253       1.30000    
     38055 TIP3     2370     SWM4     DOH2     DOH2     -1.71640      0.400000           0   0.00000       0.00000    
     38056 TIP3     2370     SWM4     OM       LPDW     -1.11466       0.00000          -1   0.00000       0.00000    
     38057 TIP3     2370     SWM4     H1       HDW      0.557330       1.00800           0   0.00000       0.00000    
     38058 TIP3     2370     SWM4     H2       HDW      0.557330       1.00800           0   0.00000       0.00000    
     38059 TIP3     2371     SWM4     OH2      ODW       1.71640       15.5994           0 -0.978253       1.30000    
     38060 TIP3     2371     SWM4     DOH2     DOH2     -1.71640      0.400000           0   0.00000       0.00000    
     38061 TIP3     2371     SWM4     OM       LPDW     -1.11466       0.00000          -1   0.00000       0.00000    
     38062 TIP3     2371     SWM4     H1       HDW      0.557330       1.00800           0   0.00000       0.00000    
     38063 TIP3     2371     SWM4     H2       HDW      0.557330       1.00800           0   0.00000       0.00000    
     38064 TIP3     2372     SWM4     OH2      ODW       1.71640       15.5994           0 -0.978253       1.30000    
     38065 TIP3     2372     SWM4     DOH2     DOH2     -1.71640      0.400000           0   0.00000       0.00000    
     38066 TIP3     2372     SWM4     OM       LPDW     -1.11466       0.00000          -1   0.00000       0.00000    
     38067 TIP3     2372     SWM4     H1       HDW      0.557330       1.00800           0   0.00000       0.00000    
     38068 TIP3     2372     SWM4     H2       HDW      0.557330       1.00800           0   0.00000       0.00000    
     38069 TIP3     2373     SWM4     OH2      ODW       1.71640       15.5994           0 -0.978253       1.30000    
     38070 TIP3     2373     SWM4     DOH2     DOH2     -1.71640      0.400000           0   0.00000       0.00000    
     38071 TIP3     2373     SWM4     OM       LPDW     -1.11466       0.00000          -1   0.00000       0.00000    
     38072 TIP3     2373     SWM4     H1       HDW      0.557330       1.00800           0   0.00000       0.00000    
     38073 TIP3     2373     SWM4     H2       HDW      0.557330       1.00800           0   0.00000       0.00000    
     38074 TIP3     2374     SWM4     OH2      ODW       1.71640       15.5994           0 -0.978253       1.30000    
     38075 TIP3     2374     SWM4     DOH2     DOH2     -1.71640      0.400000           0   0.00000       0.00000    
     38076 TIP3     2374     SWM4     OM       LPDW     -1.11466       0.00000          -1   0.00000       0.00000    
     38077 TIP3     2374     SWM4     H1       HDW      0.557330       1.00800           0   0.00000       0.00000    
     38078 TIP3     2374     SWM4     H2       HDW      0.557330       1.00800           0   0.00000       0.00000    
     38079 TIP3     2375     SWM4     OH2      ODW       1.71640       15.5994           0 -0.978253       1.30000    
     38080 TIP3     2375     SWM4     DOH2     DOH2     -1.71640      0.400000           0   0.00000       0.00000    
     38081 TIP3     2375     SWM4     OM       LPDW     -1.11466       0.00000          -1   0.00000       0.00000    
     38082 TIP3     2375     SWM4     H1       HDW      0.557330       1.00800           0   0.00000       0.00000    
     38083 TIP3     2375     SWM4     H2       HDW      0.557330       1.00800           0   0.00000       0.00000    
     38084 TIP3     2376     SWM4     OH2      ODW       1.71640       15.5994           0 -0.978253       1.30000    
     38085 TIP3     2376     SWM4     DOH2     DOH2     -1.71640      0.400000           0   0.00000       0.00000    
     38086 TIP3     2376     SWM4     OM       LPDW     -1.11466       0.00000          -1   0.00000       0.00000    
     38087 TIP3     2376     SWM4     H1       HDW      0.557330       1.00800           0   0.00000       0.00000    
     38088 TIP3     2376     SWM4     H2       HDW      0.557330       1.00800           0   0.00000       0.00000    
     38089 TIP3     2377     SWM4     OH2      ODW       1.71640       15.5994           0 -0.978253       1.30000    
     38090 TIP3     2377     SWM4     DOH2     DOH2     -1.71640      0.400000           0   0.00000       0.00000    
     38091 TIP3     2377     SWM4     OM       LPDW     -1.11466       0.00000          -1   0.00000       0.00000    
     38092 TIP3     2377     SWM4     H1       HDW      0.557330       1.00800           0   0.00000       0.00000    
     38093 TIP3     2377     SWM4     H2       HDW      0.557330       1.00800           0   0.00000       0.00000    
     38094 TIP3     2378     SWM4     OH2      ODW       1.71640       15.5994           0 -0.978253       1.30000    
     38095 TIP3     2378     SWM4     DOH2     DOH2     -1.71640      0.400000           0   0.00000       0.00000    
     38096 TIP3     2378     SWM4     OM       LPDW     -1.11466       0.00000          -1   0.00000       0.00000    
     38097 TIP3     2378     SWM4     H1       HDW      0.557330       1.00800           0   0.00000       0.00000    
     38098 TIP3     2378     SWM4     H2       HDW      0.557330       1.00800           0   0.00000       0.00000    
     38099 TIP3     2379     SWM4     OH2      ODW       1.71640       15.5994           0 -0.978253       1.30000    
     38100 TIP3     2379     SWM4     DOH2     DOH2     -1.71640      0.400000           0   0.00000       0.00000    
     38101 TIP3     2379     SWM4     OM       LPDW     -1.11466       0.00000          -1   0.00000       0.00000    
     38102 TIP3     2379     SWM4     H1       HDW      0.557330       1.00800           0   0.00000       0.00000    
     38103 TIP3     2379     SWM4     H2       HDW      0.557330       1.00800           0   0.00000       0.00000    
     38104 TIP3     2380     SWM4     OH2      ODW       1.71640       15.5994           0 -0.978253       1.30000    
     38105 TIP3     2380     SWM4     DOH2     DOH2     -1.71640      0.400000           0   0.00000       0.00000    
     38106 TIP3     2380     SWM4     OM       LPDW     -1.11466       0.00000          -1   0.00000       0.00000    
     38107 TIP3     2380     SWM4     H1       HDW      0.557330       1.00800           0   0.00000       0.00000    
     38108 TIP3     2380     SWM4     H2       HDW      0.557330       1.00800           0   0.00000       0.00000    
     38109 TIP3     2381     SWM4     OH2      ODW       1.71640       15.5994           0 -0.978253       1.30000    
     38110 TIP3     2381     SWM4     DOH2     DOH2     -1.71640      0.400000           0   0.00000       0.00000    
     38111 TIP3     2381     SWM4     OM       LPDW     -1.11466       0.00000          -1   0.00000       0.00000    
     38112 TIP3     2381     SWM4     H1       HDW      0.557330       1.00800           0   0.00000       0.00000    
     38113 TIP3     2381     SWM4     H2       HDW      0.557330       1.00800           0   0.00000       0.00000    
     38114 TIP3     2382     SWM4     OH2      ODW       1.71640       15.5994           0 -0.978253       1.30000    
     38115 TIP3     2382     SWM4     DOH2     DOH2     -1.71640      0.400000           0   0.00000       0.00000    
     38116 TIP3     2382     SWM4     OM       LPDW     -1.11466       0.00000          -1   0.00000       0.00000    
     38117 TIP3     2382     SWM4     H1       HDW      0.557330       1.00800           0   0.00000       0.00000    
     38118 TIP3     2382     SWM4     H2       HDW      0.557330       1.00800           0   0.00000       0.00000    
     38119 TIP3     2383     SWM4     OH2      ODW       1.71640       15.5994           0 -0.978253       1.30000    
     38120 TIP3     2383     SWM4     DOH2     DOH2     -1.71640      0.400000           0   0.00000       0.00000    
     38121 TIP3     2383     SWM4     OM       LPDW     -1.11466       0.00000          -1   0.00000       0.00000    
     38122 TIP3     2383     SWM4     H1       HDW      0.557330       1.00800           0   0.00000       0.00000    
     38123 TIP3     2383     SWM4     H2       HDW      0.557330       1.00800           0   0.00000       0.00000    
     38124 TIP3     2384     SWM4     OH2      ODW       1.71640       15.5994           0 -0.978253       1.30000    
     38125 TIP3     2384     SWM4     DOH2     DOH2     -1.71640      0.400000           0   0.00000       0.00000    
     38126 TIP3     2384     SWM4     OM       LPDW     -1.11466       0.00000          -1   0.00000       0.00000    
     38127 TIP3     2384     SWM4     H1       HDW      0.557330       1.00800           0   0.00000       0.00000    
     38128 TIP3     2384     SWM4     H2       HDW      0.557330       1.00800           0   0.00000       0.00000    
     38129 TIP3     2385     SWM4     OH2      ODW       1.71640       15.5994           0 -0.978253       1.30000    
     38130 TIP3     2385     SWM4     DOH2     DOH2     -1.71640      0.400000           0   0.00000       0.00000    
     38131 TIP3     2385     SWM4     OM       LPDW     -1.11466       0.00000          -1   0.00000       0.00000    
     38132 TIP3     2385     SWM4     H1       HDW      0.557330       1.00800           0   0.00000       0.00000    
     38133 TIP3     2385     SWM4     H2       HDW      0.557330       1.00800           0   0.00000       0.00000    
     38134 TIP3     2386     SWM4     OH2      ODW       1.71640       15.5994           0 -0.978253       1.30000    
     38135 TIP3     2386     SWM4     DOH2     DOH2     -1.71640      0.400000           0   0.00000       0.00000    
     38136 TIP3     2386     SWM4     OM       LPDW     -1.11466       0.00000          -1   0.00000       0.00000    
     38137 TIP3     2386     SWM4     H1       HDW      0.557330       1.00800           0   0.00000       0.00000    
     38138 TIP3     2386     SWM4     H2       HDW      0.557330       1.00800           0   0.00000       0.00000    
     38139 TIP3     2387     SWM4     OH2      ODW       1.71640       15.5994           0 -0.978253       1.30000    
     38140 TIP3     2387     SWM4     DOH2     DOH2     -1.71640      0.400000           0   0.00000       0.00000    
     38141 TIP3     2387     SWM4     OM       LPDW     -1.11466       0.00000          -1   0.00000       0.00000    
     38142 TIP3     2387     SWM4     H1       HDW      0.557330       1.00800           0   0.00000       0.00000    
     38143 TIP3     2387     SWM4     H2       HDW      0.557330       1.00800           0   0.00000       0.00000    
     38144 TIP3     2388     SWM4     OH2      ODW       1.71640       15.5994           0 -0.978253       1.30000    
     38145 TIP3     2388     SWM4     DOH2     DOH2     -1.71640      0.400000           0   0.00000       0.00000    
     38146 TIP3     2388     SWM4     OM       LPDW     -1.11466       0.00000          -1   0.00000       0.00000    
     38147 TIP3     2388     SWM4     H1       HDW      0.557330       1.00800           0   0.00000       0.00000    
     38148 TIP3     2388     SWM4     H2       HDW      0.557330       1.00800           0   0.00000       0.00000    
     38149 TIP3     2389     SWM4     OH2      ODW       1.71640       15.5994           0 -0.978253       1.30000    
     38150 TIP3     2389     SWM4     DOH2     DOH2     -1.71640      0.400000           0   0.00000       0.00000    
     38151 TIP3     2389     SWM4     OM       LPDW     -1.11466       0.00000          -1   0.00000       0.00000    
     38152 TIP3     2389     SWM4     H1       HDW      0.557330       1.00800           0   0.00000       0.00000    
     38153 TIP3     2389     SWM4     H2       HDW      0.557330       1.00800           0   0.00000       0.00000    
     38154 TIP3     2390     SWM4     OH2      ODW       1.71640       15.5994           0 -0.978253       1.30000    
     38155 TIP3     2390     SWM4     DOH2     DOH2     -1.71640      0.400000           0   0.00000       0.00000    
     38156 TIP3     2390     SWM4     OM       LPDW     -1.11466       0.00000          -1   0.00000       0.00000    
     38157 TIP3     2390     SWM4     H1       HDW      0.557330       1.00800           0   0.00000       0.00000    
     38158 TIP3     2390     SWM4     H2       HDW      0.557330       1.00800           0   0.00000       0.00000    
     38159 TIP3     2391     SWM4     OH2      ODW       1.71640       15.5994           0 -0.978253       1.30000    
     38160 TIP3     2391     SWM4     DOH2     DOH2     -1.71640      0.400000           0   0.00000       0.00000    
     38161 TIP3     2391     SWM4     OM       LPDW     -1.11466       0.00000          -1   0.00000       0.00000    
     38162 TIP3     2391     SWM4     H1       HDW      0.557330       1.00800           0   0.00000       0.00000    
     38163 TIP3     2391     SWM4     H2       HDW      0.557330       1.00800           0   0.00000       0.00000    
     38164 TIP3     2392     SWM4     OH2      ODW       1.71640       15.5994           0 -0.978253       1.30000    
     38165 TIP3     2392     SWM4     DOH2     DOH2     -1.71640      0.400000           0   0.00000       0.00000    
     38166 TIP3     2392     SWM4     OM       LPDW     -1.11466       0.00000          -1   0.00000       0.00000    
     38167 TIP3     2392     SWM4     H1       HDW      0.557330       1.00800           0   0.00000       0.00000    
     38168 TIP3     2392     SWM4     H2       HDW      0.557330       1.00800           0   0.00000       0.00000    
     38169 TIP3     2393     SWM4     OH2      ODW       1.71640       15.5994           0 -0.978253       1.30000    
     38170 TIP3     2393     SWM4     DOH2     DOH2     -1.71640      0.400000           0   0.00000       0.00000    
     38171 TIP3     2393     SWM4     OM       LPDW     -1.11466       0.00000          -1   0.00000       0.00000    
     38172 TIP3     2393     SWM4     H1       HDW      0.557330       1.00800           0   0.00000       0.00000    
     38173 TIP3     2393     SWM4     H2       HDW      0.557330       1.00800           0   0.00000       0.00000    
     38174 TIP3     2394     SWM4     OH2      ODW       1.71640       15.5994           0 -0.978253       1.30000    
     38175 TIP3     2394     SWM4     DOH2     DOH2     -1.71640      0.400000           0   0.00000       0.00000    
     38176 TIP3     2394     SWM4     OM       LPDW     -1.11466       0.00000          -1   0.00000       0.00000    
     38177 TIP3     2394     SWM4     H1       HDW      0.557330       1.00800           0   0.00000       0.00000    
     38178 TIP3     2394     SWM4     H2       HDW      0.557330       1.00800           0   0.00000       0.00000    
     38179 TIP3     2395     SWM4     OH2      ODW       1.71640       15.5994           0 -0.978253       1.30000    
     38180 TIP3     2395     SWM4     DOH2     DOH2     -1.71640      0.400000           0   0.00000       0.00000    
     38181 TIP3     2395     SWM4     OM       LPDW     -1.11466       0.00000          -1   0.00000       0.00000    
     38182 TIP3     2395     SWM4     H1       HDW      0.557330       1.00800           0   0.00000       0.00000    
     38183 TIP3     2395     SWM4     H2       HDW      0.557330       1.00800           0   0.00000       0.00000    
     38184 TIP3     2396     SWM4     OH2      ODW       1.71640       15.5994           0 -0.978253       1.30000    
     38185 TIP3     2396     SWM4     DOH2     DOH2     -1.71640      0.400000           0   0.00000       0.00000    
     38186 TIP3     2396     SWM4     OM       LPDW     -1.11466       0.00000          -1   0.00000       0.00000    
     38187 TIP3     2396     SWM4     H1       HDW      0.557330       1.00800           0   0.00000       0.00000    
     38188 TIP3     2396     SWM4     H2       HDW      0.557330       1.00800           0   0.00000       0.00000    
     38189 TIP3     2397     SWM4     OH2      ODW       1.71640       15.5994           0 -0.978253       1.30000    
     38190 TIP3     2397     SWM4     DOH2     DOH2     -1.71640      0.400000           0   0.00000       0.00000    
     38191 TIP3     2397     SWM4     OM       LPDW     -1.11466       0.00000          -1   0.00000       0.00000    
     38192 TIP3     2397     SWM4     H1       HDW      0.557330       1.00800           0   0.00000       0.00000    
     38193 TIP3     2397     SWM4     H2       HDW      0.557330       1.00800           0   0.00000       0.00000    
     38194 TIP3     2398     SWM4     OH2      ODW       1.71640       15.5994           0 -0.978253       1.30000    
     38195 TIP3     2398     SWM4     DOH2     DOH2     -1.71640      0.400000           0   0.00000       0.00000    
     38196 TIP3     2398     SWM4     OM       LPDW     -1.11466       0.00000          -1   0.00000       0.00000    
     38197 TIP3     2398     SWM4     H1       HDW      0.557330       1.00800           0   0.00000       0.00000    
     38198 TIP3     2398     SWM4     H2       HDW      0.557330       1.00800           0   0.00000       0.00000    
     38199 TIP3     2399     SWM4     OH2      ODW       1.71640       15.5994           0 -0.978253       1.30000    
     38200 TIP3     2399     SWM4     DOH2     DOH2     -1.71640      0.400000           0   0.00000       0.00000    
     38201 TIP3     2399     SWM4     OM       LPDW     -1.11466       0.00000          -1   0.00000       0.00000    
     38202 TIP3     2399     SWM4     H1       HDW      0.557330       1.00800           0   0.00000       0.00000    
     38203 TIP3     2399     SWM4     H2       HDW      0.557330       1.00800           0   0.00000       0.00000    
     38204 TIP3     2400     SWM4     OH2      ODW       1.71640       15.5994           0 -0.978253       1.30000    
     38205 TIP3     2400     SWM4     DOH2     DOH2     -1.71640      0.400000           0   0.00000       0.00000    
     38206 TIP3     2400     SWM4     OM       LPDW     -1.11466       0.00000          -1   0.00000       0.00000    
     38207 TIP3     2400     SWM4     H1       HDW      0.557330       1.00800           0   0.00000       0.00000    
     38208 TIP3     2400     SWM4     H2       HDW      0.557330       1.00800           0   0.00000       0.00000    
     38209 TIP3     2401     SWM4     OH2      ODW       1.71640       15.5994           0 -0.978253       1.30000    
     38210 TIP3     2401     SWM4     DOH2     DOH2     -1.71640      0.400000           0   0.00000       0.00000    
     38211 TIP3     2401     SWM4     OM       LPDW     -1.11466       0.00000          -1   0.00000       0.00000    
     38212 TIP3     2401     SWM4     H1       HDW      0.557330       1.00800           0   0.00000       0.00000    
     38213 TIP3     2401     SWM4     H2       HDW      0.557330       1.00800           0   0.00000       0.00000    
     38214 TIP3     2402     SWM4     OH2      ODW       1.71640       15.5994           0 -0.978253       1.30000    
     38215 TIP3     2402     SWM4     DOH2     DOH2     -1.71640      0.400000           0   0.00000       0.00000    
     38216 TIP3     2402     SWM4     OM       LPDW     -1.11466       0.00000          -1   0.00000       0.00000    
     38217 TIP3     2402     SWM4     H1       HDW      0.557330       1.00800           0   0.00000       0.00000    
     38218 TIP3     2402     SWM4     H2       HDW      0.557330       1.00800           0   0.00000       0.00000    
     38219 TIP3     2403     SWM4     OH2      ODW       1.71640       15.5994           0 -0.978253       1.30000    
     38220 TIP3     2403     SWM4     DOH2     DOH2     -1.71640      0.400000           0   0.00000       0.00000    
     38221 TIP3     2403     SWM4     OM       LPDW     -1.11466       0.00000          -1   0.00000       0.00000    
     38222 TIP3     2403     SWM4     H1       HDW      0.557330       1.00800           0   0.00000       0.00000    
     38223 TIP3     2403     SWM4     H2       HDW      0.557330       1.00800           0   0.00000       0.00000    
     38224 TIP3     2404     SWM4     OH2      ODW       1.71640       15.5994           0 -0.978253       1.30000    
     38225 TIP3     2404     SWM4     DOH2     DOH2     -1.71640      0.400000           0   0.00000       0.00000    
     38226 TIP3     2404     SWM4     OM       LPDW     -1.11466       0.00000          -1   0.00000       0.00000    
     38227 TIP3     2404     SWM4     H1       HDW      0.557330       1.00800           0   0.00000       0.00000    
     38228 TIP3     2404     SWM4     H2       HDW      0.557330       1.00800           0   0.00000       0.00000    
     38229 TIP3     2405     SWM4     OH2      ODW       1.71640       15.5994           0 -0.978253       1.30000    
     38230 TIP3     2405     SWM4     DOH2     DOH2     -1.71640      0.400000           0   0.00000       0.00000    
     38231 TIP3     2405     SWM4     OM       LPDW     -1.11466       0.00000          -1   0.00000       0.00000    
     38232 TIP3     2405     SWM4     H1       HDW      0.557330       1.00800           0   0.00000       0.00000    
     38233 TIP3     2405     SWM4     H2       HDW      0.557330       1.00800           0   0.00000       0.00000    
     38234 TIP3     2406     SWM4     OH2      ODW       1.71640       15.5994           0 -0.978253       1.30000    
     38235 TIP3     2406     SWM4     DOH2     DOH2     -1.71640      0.400000           0   0.00000       0.00000    
     38236 TIP3     2406     SWM4     OM       LPDW     -1.11466       0.00000          -1   0.00000       0.00000    
     38237 TIP3     2406     SWM4     H1       HDW      0.557330       1.00800           0   0.00000       0.00000    
     38238 TIP3     2406     SWM4     H2       HDW      0.557330       1.00800           0   0.00000       0.00000    
     38239 TIP3     2407     SWM4     OH2      ODW       1.71640       15.5994           0 -0.978253       1.30000    
     38240 TIP3     2407     SWM4     DOH2     DOH2     -1.71640      0.400000           0   0.00000       0.00000    
     38241 TIP3     2407     SWM4     OM       LPDW     -1.11466       0.00000          -1   0.00000       0.00000    
     38242 TIP3     2407     SWM4     H1       HDW      0.557330       1.00800           0   0.00000       0.00000    
     38243 TIP3     2407     SWM4     H2       HDW      0.557330       1.00800           0   0.00000       0.00000    
     38244 TIP3     2408     SWM4     OH2      ODW       1.71640       15.5994           0 -0.978253       1.30000    
     38245 TIP3     2408     SWM4     DOH2     DOH2     -1.71640      0.400000           0   0.00000       0.00000    
     38246 TIP3     2408     SWM4     OM       LPDW     -1.11466       0.00000          -1   0.00000       0.00000    
     38247 TIP3     2408     SWM4     H1       HDW      0.557330       1.00800           0   0.00000       0.00000    
     38248 TIP3     2408     SWM4     H2       HDW      0.557330       1.00800           0   0.00000       0.00000    
     38249 TIP3     2409     SWM4     OH2      ODW       1.71640       15.5994           0 -0.978253       1.30000    
     38250 TIP3     2409     SWM4     DOH2     DOH2     -1.71640      0.400000           0   0.00000       0.00000    
     38251 TIP3     2409     SWM4     OM       LPDW     -1.11466       0.00000          -1   0.00000       0.00000    
     38252 TIP3     2409     SWM4     H1       HDW      0.557330       1.00800           0   0.00000       0.00000    
     38253 TIP3     2409     SWM4     H2       HDW      0.557330       1.00800           0   0.00000       0.00000    
     38254 TIP3     2410     SWM4     OH2      ODW       1.71640       15.5994           0 -0.978253       1.30000    
     38255 TIP3     2410     SWM4     DOH2     DOH2     -1.71640      0.400000           0   0.00000       0.00000    
     38256 TIP3     2410     SWM4     OM       LPDW     -1.11466       0.00000          -1   0.00000       0.00000    
     38257 TIP3     2410     SWM4     H1       HDW      0.557330       1.00800           0   0.00000       0.00000    
     38258 TIP3     2410     SWM4     H2       HDW      0.557330       1.00800           0   0.00000       0.00000    
     38259 TIP3     2411     SWM4     OH2      ODW       1.71640       15.5994           0 -0.978253       1.30000    
     38260 TIP3     2411     SWM4     DOH2     DOH2     -1.71640      0.400000           0   0.00000       0.00000    
     38261 TIP3     2411     SWM4     OM       LPDW     -1.11466       0.00000          -1   0.00000       0.00000    
     38262 TIP3     2411     SWM4     H1       HDW      0.557330       1.00800           0   0.00000       0.00000    
     38263 TIP3     2411     SWM4     H2       HDW      0.557330       1.00800           0   0.00000       0.00000    
     38264 TIP3     2412     SWM4     OH2      ODW       1.71640       15.5994           0 -0.978253       1.30000    
     38265 TIP3     2412     SWM4     DOH2     DOH2     -1.71640      0.400000           0   0.00000       0.00000    
     38266 TIP3     2412     SWM4     OM       LPDW     -1.11466       0.00000          -1   0.00000       0.00000    
     38267 TIP3     2412     SWM4     H1       HDW      0.557330       1.00800           0   0.00000       0.00000    
     38268 TIP3     2412     SWM4     H2       HDW      0.557330       1.00800           0   0.00000       0.00000    
     38269 TIP3     2413     SWM4     OH2      ODW       1.71640       15.5994           0 -0.978253       1.30000    
     38270 TIP3     2413     SWM4     DOH2     DOH2     -1.71640      0.400000           0   0.00000       0.00000    
     38271 TIP3     2413     SWM4     OM       LPDW     -1.11466       0.00000          -1   0.00000       0.00000    
     38272 TIP3     2413     SWM4     H1       HDW      0.557330       1.00800           0   0.00000       0.00000    
     38273 TIP3     2413     SWM4     H2       HDW      0.557330       1.00800           0   0.00000       0.00000    
     38274 TIP3     2414     SWM4     OH2      ODW       1.71640       15.5994           0 -0.978253       1.30000    
     38275 TIP3     2414     SWM4     DOH2     DOH2     -1.71640      0.400000           0   0.00000       0.00000    
     38276 TIP3     2414     SWM4     OM       LPDW     -1.11466       0.00000          -1   0.00000       0.00000    
     38277 TIP3     2414     SWM4     H1       HDW      0.557330       1.00800           0   0.00000       0.00000    
     38278 TIP3     2414     SWM4     H2       HDW      0.557330       1.00800           0   0.00000       0.00000    
     38279 TIP3     2415     SWM4     OH2      ODW       1.71640       15.5994           0 -0.978253       1.30000    
     38280 TIP3     2415     SWM4     DOH2     DOH2     -1.71640      0.400000           0   0.00000       0.00000    
     38281 TIP3     2415     SWM4     OM       LPDW     -1.11466       0.00000          -1   0.00000       0.00000    
     38282 TIP3     2415     SWM4     H1       HDW      0.557330       1.00800           0   0.00000       0.00000    
     38283 TIP3     2415     SWM4     H2       HDW      0.557330       1.00800           0   0.00000       0.00000    
     38284 TIP3     2416     SWM4     OH2      ODW       1.71640       15.5994           0 -0.978253       1.30000    
     38285 TIP3     2416     SWM4     DOH2     DOH2     -1.71640      0.400000           0   0.00000       0.00000    
     38286 TIP3     2416     SWM4     OM       LPDW     -1.11466       0.00000          -1   0.00000       0.00000    
     38287 TIP3     2416     SWM4     H1       HDW      0.557330       1.00800           0   0.00000       0.00000    
     38288 TIP3     2416     SWM4     H2       HDW      0.557330       1.00800           0   0.00000       0.00000    
     38289 TIP3     2417     SWM4     OH2      ODW       1.71640       15.5994           0 -0.978253       1.30000    
     38290 TIP3     2417     SWM4     DOH2     DOH2     -1.71640      0.400000           0   0.00000       0.00000    
     38291 TIP3     2417     SWM4     OM       LPDW     -1.11466       0.00000          -1   0.00000       0.00000    
     38292 TIP3     2417     SWM4     H1       HDW      0.557330       1.00800           0   0.00000       0.00000    
     38293 TIP3     2417     SWM4     H2       HDW      0.557330       1.00800           0   0.00000       0.00000    
     38294 TIP3     2418     SWM4     OH2      ODW       1.71640       15.5994           0 -0.978253       1.30000    
     38295 TIP3     2418     SWM4     DOH2     DOH2     -1.71640      0.400000           0   0.00000       0.00000    
     38296 TIP3     2418     SWM4     OM       LPDW     -1.11466       0.00000          -1   0.00000       0.00000    
     38297 TIP3     2418     SWM4     H1       HDW      0.557330       1.00800           0   0.00000       0.00000    
     38298 TIP3     2418     SWM4     H2       HDW      0.557330       1.00800           0   0.00000       0.00000    
     38299 TIP3     2419     SWM4     OH2      ODW       1.71640       15.5994           0 -0.978253       1.30000    
     38300 TIP3     2419     SWM4     DOH2     DOH2     -1.71640      0.400000           0   0.00000       0.00000    
     38301 TIP3     2419     SWM4     OM       LPDW     -1.11466       0.00000          -1   0.00000       0.00000    
     38302 TIP3     2419     SWM4     H1       HDW      0.557330       1.00800           0   0.00000       0.00000    
     38303 TIP3     2419     SWM4     H2       HDW      0.557330       1.00800           0   0.00000       0.00000    
     38304 TIP3     2420     SWM4     OH2      ODW       1.71640       15.5994           0 -0.978253       1.30000    
     38305 TIP3     2420     SWM4     DOH2     DOH2     -1.71640      0.400000           0   0.00000       0.00000    
     38306 TIP3     2420     SWM4     OM       LPDW     -1.11466       0.00000          -1   0.00000       0.00000    
     38307 TIP3     2420     SWM4     H1       HDW      0.557330       1.00800           0   0.00000       0.00000    
     38308 TIP3     2420     SWM4     H2       HDW      0.557330       1.00800           0   0.00000       0.00000    
     38309 TIP3     2421     SWM4     OH2      ODW       1.71640       15.5994           0 -0.978253       1.30000    
     38310 TIP3     2421     SWM4     DOH2     DOH2     -1.71640      0.400000           0   0.00000       0.00000    
     38311 TIP3     2421     SWM4     OM       LPDW     -1.11466       0.00000          -1   0.00000       0.00000    
     38312 TIP3     2421     SWM4     H1       HDW      0.557330       1.00800           0   0.00000       0.00000    
     38313 TIP3     2421     SWM4     H2       HDW      0.557330       1.00800           0   0.00000       0.00000    
     38314 TIP3     2422     SWM4     OH2      ODW       1.71640       15.5994           0 -0.978253       1.30000    
     38315 TIP3     2422     SWM4     DOH2     DOH2     -1.71640      0.400000           0   0.00000       0.00000    
     38316 TIP3     2422     SWM4     OM       LPDW     -1.11466       0.00000          -1   0.00000       0.00000    
     38317 TIP3     2422     SWM4     H1       HDW      0.557330       1.00800           0   0.00000       0.00000    
     38318 TIP3     2422     SWM4     H2       HDW      0.557330       1.00800           0   0.00000       0.00000    
     38319 TIP3     2423     SWM4     OH2      ODW       1.71640       15.5994           0 -0.978253       1.30000    
     38320 TIP3     2423     SWM4     DOH2     DOH2     -1.71640      0.400000           0   0.00000       0.00000    
     38321 TIP3     2423     SWM4     OM       LPDW     -1.11466       0.00000          -1   0.00000       0.00000    
     38322 TIP3     2423     SWM4     H1       HDW      0.557330       1.00800           0   0.00000       0.00000    
     38323 TIP3     2423     SWM4     H2       HDW      0.557330       1.00800           0   0.00000       0.00000    
     38324 TIP3     2424     SWM4     OH2      ODW       1.71640       15.5994           0 -0.978253       1.30000    
     38325 TIP3     2424     SWM4     DOH2     DOH2     -1.71640      0.400000           0   0.00000       0.00000    
     38326 TIP3     2424     SWM4     OM       LPDW     -1.11466       0.00000          -1   0.00000       0.00000    
     38327 TIP3     2424     SWM4     H1       HDW      0.557330       1.00800           0   0.00000       0.00000    
     38328 TIP3     2424     SWM4     H2       HDW      0.557330       1.00800           0   0.00000       0.00000    
     38329 TIP3     2425     SWM4     OH2      ODW       1.71640       15.5994           0 -0.978253       1.30000    
     38330 TIP3     2425     SWM4     DOH2     DOH2     -1.71640      0.400000           0   0.00000       0.00000    
     38331 TIP3     2425     SWM4     OM       LPDW     -1.11466       0.00000          -1   0.00000       0.00000    
     38332 TIP3     2425     SWM4     H1       HDW      0.557330       1.00800           0   0.00000       0.00000    
     38333 TIP3     2425     SWM4     H2       HDW      0.557330       1.00800           0   0.00000       0.00000    
     38334 TIP3     2426     SWM4     OH2      ODW       1.71640       15.5994           0 -0.978253       1.30000    
     38335 TIP3     2426     SWM4     DOH2     DOH2     -1.71640      0.400000           0   0.00000       0.00000    
     38336 TIP3     2426     SWM4     OM       LPDW     -1.11466       0.00000          -1   0.00000       0.00000    
     38337 TIP3     2426     SWM4     H1       HDW      0.557330       1.00800           0   0.00000       0.00000    
     38338 TIP3     2426     SWM4     H2       HDW      0.557330       1.00800           0   0.00000       0.00000    
     38339 TIP3     2427     SWM4     OH2      ODW       1.71640       15.5994           0 -0.978253       1.30000    
     38340 TIP3     2427     SWM4     DOH2     DOH2     -1.71640      0.400000           0   0.00000       0.00000    
     38341 TIP3     2427     SWM4     OM       LPDW     -1.11466       0.00000          -1   0.00000       0.00000    
     38342 TIP3     2427     SWM4     H1       HDW      0.557330       1.00800           0   0.00000       0.00000    
     38343 TIP3     2427     SWM4     H2       HDW      0.557330       1.00800           0   0.00000       0.00000    
     38344 TIP3     2428     SWM4     OH2      ODW       1.71640       15.5994           0 -0.978253       1.30000    
     38345 TIP3     2428     SWM4     DOH2     DOH2     -1.71640      0.400000           0   0.00000       0.00000    
     38346 TIP3     2428     SWM4     OM       LPDW     -1.11466       0.00000          -1   0.00000       0.00000    
     38347 TIP3     2428     SWM4     H1       HDW      0.557330       1.00800           0   0.00000       0.00000    
     38348 TIP3     2428     SWM4     H2       HDW      0.557330       1.00800           0   0.00000       0.00000    
     38349 TIP3     2429     SWM4     OH2      ODW       1.71640       15.5994           0 -0.978253       1.30000    
     38350 TIP3     2429     SWM4     DOH2     DOH2     -1.71640      0.400000           0   0.00000       0.00000    
     38351 TIP3     2429     SWM4     OM       LPDW     -1.11466       0.00000          -1   0.00000       0.00000    
     38352 TIP3     2429     SWM4     H1       HDW      0.557330       1.00800           0   0.00000       0.00000    
     38353 TIP3     2429     SWM4     H2       HDW      0.557330       1.00800           0   0.00000       0.00000    
     38354 TIP3     2430     SWM4     OH2      ODW       1.71640       15.5994           0 -0.978253       1.30000    
     38355 TIP3     2430     SWM4     DOH2     DOH2     -1.71640      0.400000           0   0.00000       0.00000    
     38356 TIP3     2430     SWM4     OM       LPDW     -1.11466       0.00000          -1   0.00000       0.00000    
     38357 TIP3     2430     SWM4     H1       HDW      0.557330       1.00800           0   0.00000       0.00000    
     38358 TIP3     2430     SWM4     H2       HDW      0.557330       1.00800           0   0.00000       0.00000    
     38359 TIP3     2431     SWM4     OH2      ODW       1.71640       15.5994           0 -0.978253       1.30000    
     38360 TIP3     2431     SWM4     DOH2     DOH2     -1.71640      0.400000           0   0.00000       0.00000    
     38361 TIP3     2431     SWM4     OM       LPDW     -1.11466       0.00000          -1   0.00000       0.00000    
     38362 TIP3     2431     SWM4     H1       HDW      0.557330       1.00800           0   0.00000       0.00000    
     38363 TIP3     2431     SWM4     H2       HDW      0.557330       1.00800           0   0.00000       0.00000    
     38364 TIP3     2432     SWM4     OH2      ODW       1.71640       15.5994           0 -0.978253       1.30000    
     38365 TIP3     2432     SWM4     DOH2     DOH2     -1.71640      0.400000           0   0.00000       0.00000    
     38366 TIP3     2432     SWM4     OM       LPDW     -1.11466       0.00000          -1   0.00000       0.00000    
     38367 TIP3     2432     SWM4     H1       HDW      0.557330       1.00800           0   0.00000       0.00000    
     38368 TIP3     2432     SWM4     H2       HDW      0.557330       1.00800           0   0.00000       0.00000    
     38369 TIP3     2433     SWM4     OH2      ODW       1.71640       15.5994           0 -0.978253       1.30000    
     38370 TIP3     2433     SWM4     DOH2     DOH2     -1.71640      0.400000           0   0.00000       0.00000    
     38371 TIP3     2433     SWM4     OM       LPDW     -1.11466       0.00000          -1   0.00000       0.00000    
     38372 TIP3     2433     SWM4     H1       HDW      0.557330       1.00800           0   0.00000       0.00000    
     38373 TIP3     2433     SWM4     H2       HDW      0.557330       1.00800           0   0.00000       0.00000    
     38374 TIP3     2434     SWM4     OH2      ODW       1.71640       15.5994           0 -0.978253       1.30000    
     38375 TIP3     2434     SWM4     DOH2     DOH2     -1.71640      0.400000           0   0.00000       0.00000    
     38376 TIP3     2434     SWM4     OM       LPDW     -1.11466       0.00000          -1   0.00000       0.00000    
     38377 TIP3     2434     SWM4     H1       HDW      0.557330       1.00800           0   0.00000       0.00000    
     38378 TIP3     2434     SWM4     H2       HDW      0.557330       1.00800           0   0.00000       0.00000    
     38379 TIP3     2435     SWM4     OH2      ODW       1.71640       15.5994           0 -0.978253       1.30000    
     38380 TIP3     2435     SWM4     DOH2     DOH2     -1.71640      0.400000           0   0.00000       0.00000    
     38381 TIP3     2435     SWM4     OM       LPDW     -1.11466       0.00000          -1   0.00000       0.00000    
     38382 TIP3     2435     SWM4     H1       HDW      0.557330       1.00800           0   0.00000       0.00000    
     38383 TIP3     2435     SWM4     H2       HDW      0.557330       1.00800           0   0.00000       0.00000    
     38384 TIP3     2436     SWM4     OH2      ODW       1.71640       15.5994           0 -0.978253       1.30000    
     38385 TIP3     2436     SWM4     DOH2     DOH2     -1.71640      0.400000           0   0.00000       0.00000    
     38386 TIP3     2436     SWM4     OM       LPDW     -1.11466       0.00000          -1   0.00000       0.00000    
     38387 TIP3     2436     SWM4     H1       HDW      0.557330       1.00800           0   0.00000       0.00000    
     38388 TIP3     2436     SWM4     H2       HDW      0.557330       1.00800           0   0.00000       0.00000    
     38389 TIP3     2437     SWM4     OH2      ODW       1.71640       15.5994           0 -0.978253       1.30000    
     38390 TIP3     2437     SWM4     DOH2     DOH2     -1.71640      0.400000           0   0.00000       0.00000    
     38391 TIP3     2437     SWM4     OM       LPDW     -1.11466       0.00000          -1   0.00000       0.00000    
     38392 TIP3     2437     SWM4     H1       HDW      0.557330       1.00800           0   0.00000       0.00000    
     38393 TIP3     2437     SWM4     H2       HDW      0.557330       1.00800           0   0.00000       0.00000    
     38394 TIP3     2438     SWM4     OH2      ODW       1.71640       15.5994           0 -0.978253       1.30000    
     38395 TIP3     2438     SWM4     DOH2     DOH2     -1.71640      0.400000           0   0.00000       0.00000    
     38396 TIP3     2438     SWM4     OM       LPDW     -1.11466       0.00000          -1   0.00000       0.00000    
     38397 TIP3     2438     SWM4     H1       HDW      0.557330       1.00800           0   0.00000       0.00000    
     38398 TIP3     2438     SWM4     H2       HDW      0.557330       1.00800           0   0.00000       0.00000    
     38399 TIP3     2439     SWM4     OH2      ODW       1.71640       15.5994           0 -0.978253       1.30000    
     38400 TIP3     2439     SWM4     DOH2     DOH2     -1.71640      0.400000           0   0.00000       0.00000    
     38401 TIP3     2439     SWM4     OM       LPDW     -1.11466       0.00000          -1   0.00000       0.00000    
     38402 TIP3     2439     SWM4     H1       HDW      0.557330       1.00800           0   0.00000       0.00000    
     38403 TIP3     2439     SWM4     H2       HDW      0.557330       1.00800           0   0.00000       0.00000    
     38404 TIP3     2440     SWM4     OH2      ODW       1.71640       15.5994           0 -0.978253       1.30000    
     38405 TIP3     2440     SWM4     DOH2     DOH2     -1.71640      0.400000           0   0.00000       0.00000    
     38406 TIP3     2440     SWM4     OM       LPDW     -1.11466       0.00000          -1   0.00000       0.00000    
     38407 TIP3     2440     SWM4     H1       HDW      0.557330       1.00800           0   0.00000       0.00000    
     38408 TIP3     2440     SWM4     H2       HDW      0.557330       1.00800           0   0.00000       0.00000    
     38409 TIP3     2441     SWM4     OH2      ODW       1.71640       15.5994           0 -0.978253       1.30000    
     38410 TIP3     2441     SWM4     DOH2     DOH2     -1.71640      0.400000           0   0.00000       0.00000    
     38411 TIP3     2441     SWM4     OM       LPDW     -1.11466       0.00000          -1   0.00000       0.00000    
     38412 TIP3     2441     SWM4     H1       HDW      0.557330       1.00800           0   0.00000       0.00000    
     38413 TIP3     2441     SWM4     H2       HDW      0.557330       1.00800           0   0.00000       0.00000    
     38414 TIP3     2442     SWM4     OH2      ODW       1.71640       15.5994           0 -0.978253       1.30000    
     38415 TIP3     2442     SWM4     DOH2     DOH2     -1.71640      0.400000           0   0.00000       0.00000    
     38416 TIP3     2442     SWM4     OM       LPDW     -1.11466       0.00000          -1   0.00000       0.00000    
     38417 TIP3     2442     SWM4     H1       HDW      0.557330       1.00800           0   0.00000       0.00000    
     38418 TIP3     2442     SWM4     H2       HDW      0.557330       1.00800           0   0.00000       0.00000    
     38419 TIP3     2443     SWM4     OH2      ODW       1.71640       15.5994           0 -0.978253       1.30000    
     38420 TIP3     2443     SWM4     DOH2     DOH2     -1.71640      0.400000           0   0.00000       0.00000    
     38421 TIP3     2443     SWM4     OM       LPDW     -1.11466       0.00000          -1   0.00000       0.00000    
     38422 TIP3     2443     SWM4     H1       HDW      0.557330       1.00800           0   0.00000       0.00000    
     38423 TIP3     2443     SWM4     H2       HDW      0.557330       1.00800           0   0.00000       0.00000    
     38424 TIP3     2444     SWM4     OH2      ODW       1.71640       15.5994           0 -0.978253       1.30000    
     38425 TIP3     2444     SWM4     DOH2     DOH2     -1.71640      0.400000           0   0.00000       0.00000    
     38426 TIP3     2444     SWM4     OM       LPDW     -1.11466       0.00000          -1   0.00000       0.00000    
     38427 TIP3     2444     SWM4     H1       HDW      0.557330       1.00800           0   0.00000       0.00000    
     38428 TIP3     2444     SWM4     H2       HDW      0.557330       1.00800           0   0.00000       0.00000    
     38429 TIP3     2445     SWM4     OH2      ODW       1.71640       15.5994           0 -0.978253       1.30000    
     38430 TIP3     2445     SWM4     DOH2     DOH2     -1.71640      0.400000           0   0.00000       0.00000    
     38431 TIP3     2445     SWM4     OM       LPDW     -1.11466       0.00000          -1   0.00000       0.00000    
     38432 TIP3     2445     SWM4     H1       HDW      0.557330       1.00800           0   0.00000       0.00000    
     38433 TIP3     2445     SWM4     H2       HDW      0.557330       1.00800           0   0.00000       0.00000    
     38434 TIP3     2446     SWM4     OH2      ODW       1.71640       15.5994           0 -0.978253       1.30000    
     38435 TIP3     2446     SWM4     DOH2     DOH2     -1.71640      0.400000           0   0.00000       0.00000    
     38436 TIP3     2446     SWM4     OM       LPDW     -1.11466       0.00000          -1   0.00000       0.00000    
     38437 TIP3     2446     SWM4     H1       HDW      0.557330       1.00800           0   0.00000       0.00000    
     38438 TIP3     2446     SWM4     H2       HDW      0.557330       1.00800           0   0.00000       0.00000    
     38439 TIP3     2447     SWM4     OH2      ODW       1.71640       15.5994           0 -0.978253       1.30000    
     38440 TIP3     2447     SWM4     DOH2     DOH2     -1.71640      0.400000           0   0.00000       0.00000    
     38441 TIP3     2447     SWM4     OM       LPDW     -1.11466       0.00000          -1   0.00000       0.00000    
     38442 TIP3     2447     SWM4     H1       HDW      0.557330       1.00800           0   0.00000       0.00000    
     38443 TIP3     2447     SWM4     H2       HDW      0.557330       1.00800           0   0.00000       0.00000    
     38444 TIP3     2448     SWM4     OH2      ODW       1.71640       15.5994           0 -0.978253       1.30000    
     38445 TIP3     2448     SWM4     DOH2     DOH2     -1.71640      0.400000           0   0.00000       0.00000    
     38446 TIP3     2448     SWM4     OM       LPDW     -1.11466       0.00000          -1   0.00000       0.00000    
     38447 TIP3     2448     SWM4     H1       HDW      0.557330       1.00800           0   0.00000       0.00000    
     38448 TIP3     2448     SWM4     H2       HDW      0.557330       1.00800           0   0.00000       0.00000    
     38449 TIP3     2449     SWM4     OH2      ODW       1.71640       15.5994           0 -0.978253       1.30000    
     38450 TIP3     2449     SWM4     DOH2     DOH2     -1.71640      0.400000           0   0.00000       0.00000    
     38451 TIP3     2449     SWM4     OM       LPDW     -1.11466       0.00000          -1   0.00000       0.00000    
     38452 TIP3     2449     SWM4     H1       HDW      0.557330       1.00800           0   0.00000       0.00000    
     38453 TIP3     2449     SWM4     H2       HDW      0.557330       1.00800           0   0.00000       0.00000    
     38454 TIP3     2450     SWM4     OH2      ODW       1.71640       15.5994           0 -0.978253       1.30000    
     38455 TIP3     2450     SWM4     DOH2     DOH2     -1.71640      0.400000           0   0.00000       0.00000    
     38456 TIP3     2450     SWM4     OM       LPDW     -1.11466       0.00000          -1   0.00000       0.00000    
     38457 TIP3     2450     SWM4     H1       HDW      0.557330       1.00800           0   0.00000       0.00000    
     38458 TIP3     2450     SWM4     H2       HDW      0.557330       1.00800           0   0.00000       0.00000    
     38459 TIP3     2451     SWM4     OH2      ODW       1.71640       15.5994           0 -0.978253       1.30000    
     38460 TIP3     2451     SWM4     DOH2     DOH2     -1.71640      0.400000           0   0.00000       0.00000    
     38461 TIP3     2451     SWM4     OM       LPDW     -1.11466       0.00000          -1   0.00000       0.00000    
     38462 TIP3     2451     SWM4     H1       HDW      0.557330       1.00800           0   0.00000       0.00000    
     38463 TIP3     2451     SWM4     H2       HDW      0.557330       1.00800           0   0.00000       0.00000    
     38464 TIP3     2452     SWM4     OH2      ODW       1.71640       15.5994           0 -0.978253       1.30000    
     38465 TIP3     2452     SWM4     DOH2     DOH2     -1.71640      0.400000           0   0.00000       0.00000    
     38466 TIP3     2452     SWM4     OM       LPDW     -1.11466       0.00000          -1   0.00000       0.00000    
     38467 TIP3     2452     SWM4     H1       HDW      0.557330       1.00800           0   0.00000       0.00000    
     38468 TIP3     2452     SWM4     H2       HDW      0.557330       1.00800           0   0.00000       0.00000    
     38469 TIP3     2453     SWM4     OH2      ODW       1.71640       15.5994           0 -0.978253       1.30000    
     38470 TIP3     2453     SWM4     DOH2     DOH2     -1.71640      0.400000           0   0.00000       0.00000    
     38471 TIP3     2453     SWM4     OM       LPDW     -1.11466       0.00000          -1   0.00000       0.00000    
     38472 TIP3     2453     SWM4     H1       HDW      0.557330       1.00800           0   0.00000       0.00000    
     38473 TIP3     2453     SWM4     H2       HDW      0.557330       1.00800           0   0.00000       0.00000    
     38474 TIP3     2454     SWM4     OH2      ODW       1.71640       15.5994           0 -0.978253       1.30000    
     38475 TIP3     2454     SWM4     DOH2     DOH2     -1.71640      0.400000           0   0.00000       0.00000    
     38476 TIP3     2454     SWM4     OM       LPDW     -1.11466       0.00000          -1   0.00000       0.00000    
     38477 TIP3     2454     SWM4     H1       HDW      0.557330       1.00800           0   0.00000       0.00000    
     38478 TIP3     2454     SWM4     H2       HDW      0.557330       1.00800           0   0.00000       0.00000    
     38479 TIP3     2455     SWM4     OH2      ODW       1.71640       15.5994           0 -0.978253       1.30000    
     38480 TIP3     2455     SWM4     DOH2     DOH2     -1.71640      0.400000           0   0.00000       0.00000    
     38481 TIP3     2455     SWM4     OM       LPDW     -1.11466       0.00000          -1   0.00000       0.00000    
     38482 TIP3     2455     SWM4     H1       HDW      0.557330       1.00800           0   0.00000       0.00000    
     38483 TIP3     2455     SWM4     H2       HDW      0.557330       1.00800           0   0.00000       0.00000    
     38484 TIP3     2456     SWM4     OH2      ODW       1.71640       15.5994           0 -0.978253       1.30000    
     38485 TIP3     2456     SWM4     DOH2     DOH2     -1.71640      0.400000           0   0.00000       0.00000    
     38486 TIP3     2456     SWM4     OM       LPDW     -1.11466       0.00000          -1   0.00000       0.00000    
     38487 TIP3     2456     SWM4     H1       HDW      0.557330       1.00800           0   0.00000       0.00000    
     38488 TIP3     2456     SWM4     H2       HDW      0.557330       1.00800           0   0.00000       0.00000    
     38489 TIP3     2457     SWM4     OH2      ODW       1.71640       15.5994           0 -0.978253       1.30000    
     38490 TIP3     2457     SWM4     DOH2     DOH2     -1.71640      0.400000           0   0.00000       0.00000    
     38491 TIP3     2457     SWM4     OM       LPDW     -1.11466       0.00000          -1   0.00000       0.00000    
     38492 TIP3     2457     SWM4     H1       HDW      0.557330       1.00800           0   0.00000       0.00000    
     38493 TIP3     2457     SWM4     H2       HDW      0.557330       1.00800           0   0.00000       0.00000    
     38494 TIP3     2458     SWM4     OH2      ODW       1.71640       15.5994           0 -0.978253       1.30000    
     38495 TIP3     2458     SWM4     DOH2     DOH2     -1.71640      0.400000           0   0.00000       0.00000    
     38496 TIP3     2458     SWM4     OM       LPDW     -1.11466       0.00000          -1   0.00000       0.00000    
     38497 TIP3     2458     SWM4     H1       HDW      0.557330       1.00800           0   0.00000       0.00000    
     38498 TIP3     2458     SWM4     H2       HDW      0.557330       1.00800           0   0.00000       0.00000    
     38499 TIP3     2459     SWM4     OH2      ODW       1.71640       15.5994           0 -0.978253       1.30000    
     38500 TIP3     2459     SWM4     DOH2     DOH2     -1.71640      0.400000           0   0.00000       0.00000    
     38501 TIP3     2459     SWM4     OM       LPDW     -1.11466       0.00000          -1   0.00000       0.00000    
     38502 TIP3     2459     SWM4     H1       HDW      0.557330       1.00800           0   0.00000       0.00000    
     38503 TIP3     2459     SWM4     H2       HDW      0.557330       1.00800           0   0.00000       0.00000    
     38504 TIP3     2460     SWM4     OH2      ODW       1.71640       15.5994           0 -0.978253       1.30000    
     38505 TIP3     2460     SWM4     DOH2     DOH2     -1.71640      0.400000           0   0.00000       0.00000    
     38506 TIP3     2460     SWM4     OM       LPDW     -1.11466       0.00000          -1   0.00000       0.00000    
     38507 TIP3     2460     SWM4     H1       HDW      0.557330       1.00800           0   0.00000       0.00000    
     38508 TIP3     2460     SWM4     H2       HDW      0.557330       1.00800           0   0.00000       0.00000    
     38509 TIP3     2461     SWM4     OH2      ODW       1.71640       15.5994           0 -0.978253       1.30000    
     38510 TIP3     2461     SWM4     DOH2     DOH2     -1.71640      0.400000           0   0.00000       0.00000    
     38511 TIP3     2461     SWM4     OM       LPDW     -1.11466       0.00000          -1   0.00000       0.00000    
     38512 TIP3     2461     SWM4     H1       HDW      0.557330       1.00800           0   0.00000       0.00000    
     38513 TIP3     2461     SWM4     H2       HDW      0.557330       1.00800           0   0.00000       0.00000    
     38514 TIP3     2462     SWM4     OH2      ODW       1.71640       15.5994           0 -0.978253       1.30000    
     38515 TIP3     2462     SWM4     DOH2     DOH2     -1.71640      0.400000           0   0.00000       0.00000    
     38516 TIP3     2462     SWM4     OM       LPDW     -1.11466       0.00000          -1   0.00000       0.00000    
     38517 TIP3     2462     SWM4     H1       HDW      0.557330       1.00800           0   0.00000       0.00000    
     38518 TIP3     2462     SWM4     H2       HDW      0.557330       1.00800           0   0.00000       0.00000    
     38519 TIP3     2463     SWM4     OH2      ODW       1.71640       15.5994           0 -0.978253       1.30000    
     38520 TIP3     2463     SWM4     DOH2     DOH2     -1.71640      0.400000           0   0.00000       0.00000    
     38521 TIP3     2463     SWM4     OM       LPDW     -1.11466       0.00000          -1   0.00000       0.00000    
     38522 TIP3     2463     SWM4     H1       HDW      0.557330       1.00800           0   0.00000       0.00000    
     38523 TIP3     2463     SWM4     H2       HDW      0.557330       1.00800           0   0.00000       0.00000    
     38524 TIP3     2464     SWM4     OH2      ODW       1.71640       15.5994           0 -0.978253       1.30000    
     38525 TIP3     2464     SWM4     DOH2     DOH2     -1.71640      0.400000           0   0.00000       0.00000    
     38526 TIP3     2464     SWM4     OM       LPDW     -1.11466       0.00000          -1   0.00000       0.00000    
     38527 TIP3     2464     SWM4     H1       HDW      0.557330       1.00800           0   0.00000       0.00000    
     38528 TIP3     2464     SWM4     H2       HDW      0.557330       1.00800           0   0.00000       0.00000    
     38529 TIP3     2465     SWM4     OH2      ODW       1.71640       15.5994           0 -0.978253       1.30000    
     38530 TIP3     2465     SWM4     DOH2     DOH2     -1.71640      0.400000           0   0.00000       0.00000    
     38531 TIP3     2465     SWM4     OM       LPDW     -1.11466       0.00000          -1   0.00000       0.00000    
     38532 TIP3     2465     SWM4     H1       HDW      0.557330       1.00800           0   0.00000       0.00000    
     38533 TIP3     2465     SWM4     H2       HDW      0.557330       1.00800           0   0.00000       0.00000    
     38534 TIP3     2466     SWM4     OH2      ODW       1.71640       15.5994           0 -0.978253       1.30000    
     38535 TIP3     2466     SWM4     DOH2     DOH2     -1.71640      0.400000           0   0.00000       0.00000    
     38536 TIP3     2466     SWM4     OM       LPDW     -1.11466       0.00000          -1   0.00000       0.00000    
     38537 TIP3     2466     SWM4     H1       HDW      0.557330       1.00800           0   0.00000       0.00000    
     38538 TIP3     2466     SWM4     H2       HDW      0.557330       1.00800           0   0.00000       0.00000    
     38539 TIP3     2467     SWM4     OH2      ODW       1.71640       15.5994           0 -0.978253       1.30000    
     38540 TIP3     2467     SWM4     DOH2     DOH2     -1.71640      0.400000           0   0.00000       0.00000    
     38541 TIP3     2467     SWM4     OM       LPDW     -1.11466       0.00000          -1   0.00000       0.00000    
     38542 TIP3     2467     SWM4     H1       HDW      0.557330       1.00800           0   0.00000       0.00000    
     38543 TIP3     2467     SWM4     H2       HDW      0.557330       1.00800           0   0.00000       0.00000    
     38544 TIP3     2468     SWM4     OH2      ODW       1.71640       15.5994           0 -0.978253       1.30000    
     38545 TIP3     2468     SWM4     DOH2     DOH2     -1.71640      0.400000           0   0.00000       0.00000    
     38546 TIP3     2468     SWM4     OM       LPDW     -1.11466       0.00000          -1   0.00000       0.00000    
     38547 TIP3     2468     SWM4     H1       HDW      0.557330       1.00800           0   0.00000       0.00000    
     38548 TIP3     2468     SWM4     H2       HDW      0.557330       1.00800           0   0.00000       0.00000    
     38549 TIP3     2469     SWM4     OH2      ODW       1.71640       15.5994           0 -0.978253       1.30000    
     38550 TIP3     2469     SWM4     DOH2     DOH2     -1.71640      0.400000           0   0.00000       0.00000    
     38551 TIP3     2469     SWM4     OM       LPDW     -1.11466       0.00000          -1   0.00000       0.00000    
     38552 TIP3     2469     SWM4     H1       HDW      0.557330       1.00800           0   0.00000       0.00000    
     38553 TIP3     2469     SWM4     H2       HDW      0.557330       1.00800           0   0.00000       0.00000    
     38554 TIP3     2470     SWM4     OH2      ODW       1.71640       15.5994           0 -0.978253       1.30000    
     38555 TIP3     2470     SWM4     DOH2     DOH2     -1.71640      0.400000           0   0.00000       0.00000    
     38556 TIP3     2470     SWM4     OM       LPDW     -1.11466       0.00000          -1   0.00000       0.00000    
     38557 TIP3     2470     SWM4     H1       HDW      0.557330       1.00800           0   0.00000       0.00000    
     38558 TIP3     2470     SWM4     H2       HDW      0.557330       1.00800           0   0.00000       0.00000    
     38559 TIP3     2471     SWM4     OH2      ODW       1.71640       15.5994           0 -0.978253       1.30000    
     38560 TIP3     2471     SWM4     DOH2     DOH2     -1.71640      0.400000           0   0.00000       0.00000    
     38561 TIP3     2471     SWM4     OM       LPDW     -1.11466       0.00000          -1   0.00000       0.00000    
     38562 TIP3     2471     SWM4     H1       HDW      0.557330       1.00800           0   0.00000       0.00000    
     38563 TIP3     2471     SWM4     H2       HDW      0.557330       1.00800           0   0.00000       0.00000    
     38564 TIP3     2472     SWM4     OH2      ODW       1.71640       15.5994           0 -0.978253       1.30000    
     38565 TIP3     2472     SWM4     DOH2     DOH2     -1.71640      0.400000           0   0.00000       0.00000    
     38566 TIP3     2472     SWM4     OM       LPDW     -1.11466       0.00000          -1   0.00000       0.00000    
     38567 TIP3     2472     SWM4     H1       HDW      0.557330       1.00800           0   0.00000       0.00000    
     38568 TIP3     2472     SWM4     H2       HDW      0.557330       1.00800           0   0.00000       0.00000    
     38569 TIP3     2473     SWM4     OH2      ODW       1.71640       15.5994           0 -0.978253       1.30000    
     38570 TIP3     2473     SWM4     DOH2     DOH2     -1.71640      0.400000           0   0.00000       0.00000    
     38571 TIP3     2473     SWM4     OM       LPDW     -1.11466       0.00000          -1   0.00000       0.00000    
     38572 TIP3     2473     SWM4     H1       HDW      0.557330       1.00800           0   0.00000       0.00000    
     38573 TIP3     2473     SWM4     H2       HDW      0.557330       1.00800           0   0.00000       0.00000    
     38574 TIP3     2474     SWM4     OH2      ODW       1.71640       15.5994           0 -0.978253       1.30000    
     38575 TIP3     2474     SWM4     DOH2     DOH2     -1.71640      0.400000           0   0.00000       0.00000    
     38576 TIP3     2474     SWM4     OM       LPDW     -1.11466       0.00000          -1   0.00000       0.00000    
     38577 TIP3     2474     SWM4     H1       HDW      0.557330       1.00800           0   0.00000       0.00000    
     38578 TIP3     2474     SWM4     H2       HDW      0.557330       1.00800           0   0.00000       0.00000    
     38579 TIP3     2475     SWM4     OH2      ODW       1.71640       15.5994           0 -0.978253       1.30000    
     38580 TIP3     2475     SWM4     DOH2     DOH2     -1.71640      0.400000           0   0.00000       0.00000    
     38581 TIP3     2475     SWM4     OM       LPDW     -1.11466       0.00000          -1   0.00000       0.00000    
     38582 TIP3     2475     SWM4     H1       HDW      0.557330       1.00800           0   0.00000       0.00000    
     38583 TIP3     2475     SWM4     H2       HDW      0.557330       1.00800           0   0.00000       0.00000    
     38584 TIP3     2476     SWM4     OH2      ODW       1.71640       15.5994           0 -0.978253       1.30000    
     38585 TIP3     2476     SWM4     DOH2     DOH2     -1.71640      0.400000           0   0.00000       0.00000    
     38586 TIP3     2476     SWM4     OM       LPDW     -1.11466       0.00000          -1   0.00000       0.00000    
     38587 TIP3     2476     SWM4     H1       HDW      0.557330       1.00800           0   0.00000       0.00000    
     38588 TIP3     2476     SWM4     H2       HDW      0.557330       1.00800           0   0.00000       0.00000    
     38589 TIP3     2477     SWM4     OH2      ODW       1.71640       15.5994           0 -0.978253       1.30000    
     38590 TIP3     2477     SWM4     DOH2     DOH2     -1.71640      0.400000           0   0.00000       0.00000    
     38591 TIP3     2477     SWM4     OM       LPDW     -1.11466       0.00000          -1   0.00000       0.00000    
     38592 TIP3     2477     SWM4     H1       HDW      0.557330       1.00800           0   0.00000       0.00000    
     38593 TIP3     2477     SWM4     H2       HDW      0.557330       1.00800           0   0.00000       0.00000    
     38594 TIP3     2478     SWM4     OH2      ODW       1.71640       15.5994           0 -0.978253       1.30000    
     38595 TIP3     2478     SWM4     DOH2     DOH2     -1.71640      0.400000           0   0.00000       0.00000    
     38596 TIP3     2478     SWM4     OM       LPDW     -1.11466       0.00000          -1   0.00000       0.00000    
     38597 TIP3     2478     SWM4     H1       HDW      0.557330       1.00800           0   0.00000       0.00000    
     38598 TIP3     2478     SWM4     H2       HDW      0.557330       1.00800           0   0.00000       0.00000    
     38599 TIP3     2479     SWM4     OH2      ODW       1.71640       15.5994           0 -0.978253       1.30000    
     38600 TIP3     2479     SWM4     DOH2     DOH2     -1.71640      0.400000           0   0.00000       0.00000    
     38601 TIP3     2479     SWM4     OM       LPDW     -1.11466       0.00000          -1   0.00000       0.00000    
     38602 TIP3     2479     SWM4     H1       HDW      0.557330       1.00800           0   0.00000       0.00000    
     38603 TIP3     2479     SWM4     H2       HDW      0.557330       1.00800           0   0.00000       0.00000    
     38604 TIP3     2480     SWM4     OH2      ODW       1.71640       15.5994           0 -0.978253       1.30000    
     38605 TIP3     2480     SWM4     DOH2     DOH2     -1.71640      0.400000           0   0.00000       0.00000    
     38606 TIP3     2480     SWM4     OM       LPDW     -1.11466       0.00000          -1   0.00000       0.00000    
     38607 TIP3     2480     SWM4     H1       HDW      0.557330       1.00800           0   0.00000       0.00000    
     38608 TIP3     2480     SWM4     H2       HDW      0.557330       1.00800           0   0.00000       0.00000    
     38609 TIP3     2481     SWM4     OH2      ODW       1.71640       15.5994           0 -0.978253       1.30000    
     38610 TIP3     2481     SWM4     DOH2     DOH2     -1.71640      0.400000           0   0.00000       0.00000    
     38611 TIP3     2481     SWM4     OM       LPDW     -1.11466       0.00000          -1   0.00000       0.00000    
     38612 TIP3     2481     SWM4     H1       HDW      0.557330       1.00800           0   0.00000       0.00000    
     38613 TIP3     2481     SWM4     H2       HDW      0.557330       1.00800           0   0.00000       0.00000    
     38614 TIP3     2482     SWM4     OH2      ODW       1.71640       15.5994           0 -0.978253       1.30000    
     38615 TIP3     2482     SWM4     DOH2     DOH2     -1.71640      0.400000           0   0.00000       0.00000    
     38616 TIP3     2482     SWM4     OM       LPDW     -1.11466       0.00000          -1   0.00000       0.00000    
     38617 TIP3     2482     SWM4     H1       HDW      0.557330       1.00800           0   0.00000       0.00000    
     38618 TIP3     2482     SWM4     H2       HDW      0.557330       1.00800           0   0.00000       0.00000    
     38619 TIP3     2483     SWM4     OH2      ODW       1.71640       15.5994           0 -0.978253       1.30000    
     38620 TIP3     2483     SWM4     DOH2     DOH2     -1.71640      0.400000           0   0.00000       0.00000    
     38621 TIP3     2483     SWM4     OM       LPDW     -1.11466       0.00000          -1   0.00000       0.00000    
     38622 TIP3     2483     SWM4     H1       HDW      0.557330       1.00800           0   0.00000       0.00000    
     38623 TIP3     2483     SWM4     H2       HDW      0.557330       1.00800           0   0.00000       0.00000    
     38624 TIP3     2484     SWM4     OH2      ODW       1.71640       15.5994           0 -0.978253       1.30000    
     38625 TIP3     2484     SWM4     DOH2     DOH2     -1.71640      0.400000           0   0.00000       0.00000    
     38626 TIP3     2484     SWM4     OM       LPDW     -1.11466       0.00000          -1   0.00000       0.00000    
     38627 TIP3     2484     SWM4     H1       HDW      0.557330       1.00800           0   0.00000       0.00000    
     38628 TIP3     2484     SWM4     H2       HDW      0.557330       1.00800           0   0.00000       0.00000    
     38629 TIP3     2485     SWM4     OH2      ODW       1.71640       15.5994           0 -0.978253       1.30000    
     38630 TIP3     2485     SWM4     DOH2     DOH2     -1.71640      0.400000           0   0.00000       0.00000    
     38631 TIP3     2485     SWM4     OM       LPDW     -1.11466       0.00000          -1   0.00000       0.00000    
     38632 TIP3     2485     SWM4     H1       HDW      0.557330       1.00800           0   0.00000       0.00000    
     38633 TIP3     2485     SWM4     H2       HDW      0.557330       1.00800           0   0.00000       0.00000    
     38634 TIP3     2486     SWM4     OH2      ODW       1.71640       15.5994           0 -0.978253       1.30000    
     38635 TIP3     2486     SWM4     DOH2     DOH2     -1.71640      0.400000           0   0.00000       0.00000    
     38636 TIP3     2486     SWM4     OM       LPDW     -1.11466       0.00000          -1   0.00000       0.00000    
     38637 TIP3     2486     SWM4     H1       HDW      0.557330       1.00800           0   0.00000       0.00000    
     38638 TIP3     2486     SWM4     H2       HDW      0.557330       1.00800           0   0.00000       0.00000    
     38639 TIP3     2487     SWM4     OH2      ODW       1.71640       15.5994           0 -0.978253       1.30000    
     38640 TIP3     2487     SWM4     DOH2     DOH2     -1.71640      0.400000           0   0.00000       0.00000    
     38641 TIP3     2487     SWM4     OM       LPDW     -1.11466       0.00000          -1   0.00000       0.00000    
     38642 TIP3     2487     SWM4     H1       HDW      0.557330       1.00800           0   0.00000       0.00000    
     38643 TIP3     2487     SWM4     H2       HDW      0.557330       1.00800           0   0.00000       0.00000    
     38644 TIP3     2488     SWM4     OH2      ODW       1.71640       15.5994           0 -0.978253       1.30000    
     38645 TIP3     2488     SWM4     DOH2     DOH2     -1.71640      0.400000           0   0.00000       0.00000    
     38646 TIP3     2488     SWM4     OM       LPDW     -1.11466       0.00000          -1   0.00000       0.00000    
     38647 TIP3     2488     SWM4     H1       HDW      0.557330       1.00800           0   0.00000       0.00000    
     38648 TIP3     2488     SWM4     H2       HDW      0.557330       1.00800           0   0.00000       0.00000    
     38649 TIP3     2489     SWM4     OH2      ODW       1.71640       15.5994           0 -0.978253       1.30000    
     38650 TIP3     2489     SWM4     DOH2     DOH2     -1.71640      0.400000           0   0.00000       0.00000    
     38651 TIP3     2489     SWM4     OM       LPDW     -1.11466       0.00000          -1   0.00000       0.00000    
     38652 TIP3     2489     SWM4     H1       HDW      0.557330       1.00800           0   0.00000       0.00000    
     38653 TIP3     2489     SWM4     H2       HDW      0.557330       1.00800           0   0.00000       0.00000    
     38654 TIP3     2490     SWM4     OH2      ODW       1.71640       15.5994           0 -0.978253       1.30000    
     38655 TIP3     2490     SWM4     DOH2     DOH2     -1.71640      0.400000           0   0.00000       0.00000    
     38656 TIP3     2490     SWM4     OM       LPDW     -1.11466       0.00000          -1   0.00000       0.00000    
     38657 TIP3     2490     SWM4     H1       HDW      0.557330       1.00800           0   0.00000       0.00000    
     38658 TIP3     2490     SWM4     H2       HDW      0.557330       1.00800           0   0.00000       0.00000    
     38659 TIP3     2491     SWM4     OH2      ODW       1.71640       15.5994           0 -0.978253       1.30000    
     38660 TIP3     2491     SWM4     DOH2     DOH2     -1.71640      0.400000           0   0.00000       0.00000    
     38661 TIP3     2491     SWM4     OM       LPDW     -1.11466       0.00000          -1   0.00000       0.00000    
     38662 TIP3     2491     SWM4     H1       HDW      0.557330       1.00800           0   0.00000       0.00000    
     38663 TIP3     2491     SWM4     H2       HDW      0.557330       1.00800           0   0.00000       0.00000    
     38664 TIP3     2492     SWM4     OH2      ODW       1.71640       15.5994           0 -0.978253       1.30000    
     38665 TIP3     2492     SWM4     DOH2     DOH2     -1.71640      0.400000           0   0.00000       0.00000    
     38666 TIP3     2492     SWM4     OM       LPDW     -1.11466       0.00000          -1   0.00000       0.00000    
     38667 TIP3     2492     SWM4     H1       HDW      0.557330       1.00800           0   0.00000       0.00000    
     38668 TIP3     2492     SWM4     H2       HDW      0.557330       1.00800           0   0.00000       0.00000    
     38669 TIP3     2493     SWM4     OH2      ODW       1.71640       15.5994           0 -0.978253       1.30000    
     38670 TIP3     2493     SWM4     DOH2     DOH2     -1.71640      0.400000           0   0.00000       0.00000    
     38671 TIP3     2493     SWM4     OM       LPDW     -1.11466       0.00000          -1   0.00000       0.00000    
     38672 TIP3     2493     SWM4     H1       HDW      0.557330       1.00800           0   0.00000       0.00000    
     38673 TIP3     2493     SWM4     H2       HDW      0.557330       1.00800           0   0.00000       0.00000    
     38674 TIP3     2494     SWM4     OH2      ODW       1.71640       15.5994           0 -0.978253       1.30000    
     38675 TIP3     2494     SWM4     DOH2     DOH2     -1.71640      0.400000           0   0.00000       0.00000    
     38676 TIP3     2494     SWM4     OM       LPDW     -1.11466       0.00000          -1   0.00000       0.00000    
     38677 TIP3     2494     SWM4     H1       HDW      0.557330       1.00800           0   0.00000       0.00000    
     38678 TIP3     2494     SWM4     H2       HDW      0.557330       1.00800           0   0.00000       0.00000    
     38679 TIP3     2495     SWM4     OH2      ODW       1.71640       15.5994           0 -0.978253       1.30000    
     38680 TIP3     2495     SWM4     DOH2     DOH2     -1.71640      0.400000           0   0.00000       0.00000    
     38681 TIP3     2495     SWM4     OM       LPDW     -1.11466       0.00000          -1   0.00000       0.00000    
     38682 TIP3     2495     SWM4     H1       HDW      0.557330       1.00800           0   0.00000       0.00000    
     38683 TIP3     2495     SWM4     H2       HDW      0.557330       1.00800           0   0.00000       0.00000    
     38684 TIP3     2496     SWM4     OH2      ODW       1.71640       15.5994           0 -0.978253       1.30000    
     38685 TIP3     2496     SWM4     DOH2     DOH2     -1.71640      0.400000           0   0.00000       0.00000    
     38686 TIP3     2496     SWM4     OM       LPDW     -1.11466       0.00000          -1   0.00000       0.00000    
     38687 TIP3     2496     SWM4     H1       HDW      0.557330       1.00800           0   0.00000       0.00000    
     38688 TIP3     2496     SWM4     H2       HDW      0.557330       1.00800           0   0.00000       0.00000    
     38689 TIP3     2497     SWM4     OH2      ODW       1.71640       15.5994           0 -0.978253       1.30000    
     38690 TIP3     2497     SWM4     DOH2     DOH2     -1.71640      0.400000           0   0.00000       0.00000    
     38691 TIP3     2497     SWM4     OM       LPDW     -1.11466       0.00000          -1   0.00000       0.00000    
     38692 TIP3     2497     SWM4     H1       HDW      0.557330       1.00800           0   0.00000       0.00000    
     38693 TIP3     2497     SWM4     H2       HDW      0.557330       1.00800           0   0.00000       0.00000    
     38694 TIP3     2498     SWM4     OH2      ODW       1.71640       15.5994           0 -0.978253       1.30000    
     38695 TIP3     2498     SWM4     DOH2     DOH2     -1.71640      0.400000           0   0.00000       0.00000    
     38696 TIP3     2498     SWM4     OM       LPDW     -1.11466       0.00000          -1   0.00000       0.00000    
     38697 TIP3     2498     SWM4     H1       HDW      0.557330       1.00800           0   0.00000       0.00000    
     38698 TIP3     2498     SWM4     H2       HDW      0.557330       1.00800           0   0.00000       0.00000    
     38699 TIP3     2499     SWM4     OH2      ODW       1.71640       15.5994           0 -0.978253       1.30000    
     38700 TIP3     2499     SWM4     DOH2     DOH2     -1.71640      0.400000           0   0.00000       0.00000    
     38701 TIP3     2499     SWM4     OM       LPDW     -1.11466       0.00000          -1   0.00000       0.00000    
     38702 TIP3     2499     SWM4     H1       HDW      0.557330       1.00800           0   0.00000       0.00000    
     38703 TIP3     2499     SWM4     H2       HDW      0.557330       1.00800           0   0.00000       0.00000    
     38704 TIP3     2500     SWM4     OH2      ODW       1.71640       15.5994           0 -0.978253       1.30000    
     38705 TIP3     2500     SWM4     DOH2     DOH2     -1.71640      0.400000           0   0.00000       0.00000    
     38706 TIP3     2500     SWM4     OM       LPDW     -1.11466       0.00000          -1   0.00000       0.00000    
     38707 TIP3     2500     SWM4     H1       HDW      0.557330       1.00800           0   0.00000       0.00000    
     38708 TIP3     2500     SWM4     H2       HDW      0.557330       1.00800           0   0.00000       0.00000    
     38709 TIP3     2501     SWM4     OH2      ODW       1.71640       15.5994           0 -0.978253       1.30000    
     38710 TIP3     2501     SWM4     DOH2     DOH2     -1.71640      0.400000           0   0.00000       0.00000    
     38711 TIP3     2501     SWM4     OM       LPDW     -1.11466       0.00000          -1   0.00000       0.00000    
     38712 TIP3     2501     SWM4     H1       HDW      0.557330       1.00800           0   0.00000       0.00000    
     38713 TIP3     2501     SWM4     H2       HDW      0.557330       1.00800           0   0.00000       0.00000    
     38714 TIP3     2502     SWM4     OH2      ODW       1.71640       15.5994           0 -0.978253       1.30000    
     38715 TIP3     2502     SWM4     DOH2     DOH2     -1.71640      0.400000           0   0.00000       0.00000    
     38716 TIP3     2502     SWM4     OM       LPDW     -1.11466       0.00000          -1   0.00000       0.00000    
     38717 TIP3     2502     SWM4     H1       HDW      0.557330       1.00800           0   0.00000       0.00000    
     38718 TIP3     2502     SWM4     H2       HDW      0.557330       1.00800           0   0.00000       0.00000    
     38719 TIP3     2503     SWM4     OH2      ODW       1.71640       15.5994           0 -0.978253       1.30000    
     38720 TIP3     2503     SWM4     DOH2     DOH2     -1.71640      0.400000           0   0.00000       0.00000    
     38721 TIP3     2503     SWM4     OM       LPDW     -1.11466       0.00000          -1   0.00000       0.00000    
     38722 TIP3     2503     SWM4     H1       HDW      0.557330       1.00800           0   0.00000       0.00000    
     38723 TIP3     2503     SWM4     H2       HDW      0.557330       1.00800           0   0.00000       0.00000    
     38724 TIP3     2504     SWM4     OH2      ODW       1.71640       15.5994           0 -0.978253       1.30000    
     38725 TIP3     2504     SWM4     DOH2     DOH2     -1.71640      0.400000           0   0.00000       0.00000    
     38726 TIP3     2504     SWM4     OM       LPDW     -1.11466       0.00000          -1   0.00000       0.00000    
     38727 TIP3     2504     SWM4     H1       HDW      0.557330       1.00800           0   0.00000       0.00000    
     38728 TIP3     2504     SWM4     H2       HDW      0.557330       1.00800           0   0.00000       0.00000    
     38729 TIP3     2505     SWM4     OH2      ODW       1.71640       15.5994           0 -0.978253       1.30000    
     38730 TIP3     2505     SWM4     DOH2     DOH2     -1.71640      0.400000           0   0.00000       0.00000    
     38731 TIP3     2505     SWM4     OM       LPDW     -1.11466       0.00000          -1   0.00000       0.00000    
     38732 TIP3     2505     SWM4     H1       HDW      0.557330       1.00800           0   0.00000       0.00000    
     38733 TIP3     2505     SWM4     H2       HDW      0.557330       1.00800           0   0.00000       0.00000    
     38734 TIP3     2506     SWM4     OH2      ODW       1.71640       15.5994           0 -0.978253       1.30000    
     38735 TIP3     2506     SWM4     DOH2     DOH2     -1.71640      0.400000           0   0.00000       0.00000    
     38736 TIP3     2506     SWM4     OM       LPDW     -1.11466       0.00000          -1   0.00000       0.00000    
     38737 TIP3     2506     SWM4     H1       HDW      0.557330       1.00800           0   0.00000       0.00000    
     38738 TIP3     2506     SWM4     H2       HDW      0.557330       1.00800           0   0.00000       0.00000    
     38739 TIP3     2507     SWM4     OH2      ODW       1.71640       15.5994           0 -0.978253       1.30000    
     38740 TIP3     2507     SWM4     DOH2     DOH2     -1.71640      0.400000           0   0.00000       0.00000    
     38741 TIP3     2507     SWM4     OM       LPDW     -1.11466       0.00000          -1   0.00000       0.00000    
     38742 TIP3     2507     SWM4     H1       HDW      0.557330       1.00800           0   0.00000       0.00000    
     38743 TIP3     2507     SWM4     H2       HDW      0.557330       1.00800           0   0.00000       0.00000    
     38744 TIP3     2508     SWM4     OH2      ODW       1.71640       15.5994           0 -0.978253       1.30000    
     38745 TIP3     2508     SWM4     DOH2     DOH2     -1.71640      0.400000           0   0.00000       0.00000    
     38746 TIP3     2508     SWM4     OM       LPDW     -1.11466       0.00000          -1   0.00000       0.00000    
     38747 TIP3     2508     SWM4     H1       HDW      0.557330       1.00800           0   0.00000       0.00000    
     38748 TIP3     2508     SWM4     H2       HDW      0.557330       1.00800           0   0.00000       0.00000    
     38749 TIP3     2509     SWM4     OH2      ODW       1.71640       15.5994           0 -0.978253       1.30000    
     38750 TIP3     2509     SWM4     DOH2     DOH2     -1.71640      0.400000           0   0.00000       0.00000    
     38751 TIP3     2509     SWM4     OM       LPDW     -1.11466       0.00000          -1   0.00000       0.00000    
     38752 TIP3     2509     SWM4     H1       HDW      0.557330       1.00800           0   0.00000       0.00000    
     38753 TIP3     2509     SWM4     H2       HDW      0.557330       1.00800           0   0.00000       0.00000    
     38754 TIP3     2510     SWM4     OH2      ODW       1.71640       15.5994           0 -0.978253       1.30000    
     38755 TIP3     2510     SWM4     DOH2     DOH2     -1.71640      0.400000           0   0.00000       0.00000    
     38756 TIP3     2510     SWM4     OM       LPDW     -1.11466       0.00000          -1   0.00000       0.00000    
     38757 TIP3     2510     SWM4     H1       HDW      0.557330       1.00800           0   0.00000       0.00000    
     38758 TIP3     2510     SWM4     H2       HDW      0.557330       1.00800           0   0.00000       0.00000    
     38759 TIP3     2511     SWM4     OH2      ODW       1.71640       15.5994           0 -0.978253       1.30000    
     38760 TIP3     2511     SWM4     DOH2     DOH2     -1.71640      0.400000           0   0.00000       0.00000    
     38761 TIP3     2511     SWM4     OM       LPDW     -1.11466       0.00000          -1   0.00000       0.00000    
     38762 TIP3     2511     SWM4     H1       HDW      0.557330       1.00800           0   0.00000       0.00000    
     38763 TIP3     2511     SWM4     H2       HDW      0.557330       1.00800           0   0.00000       0.00000    
     38764 TIP3     2512     SWM4     OH2      ODW       1.71640       15.5994           0 -0.978253       1.30000    
     38765 TIP3     2512     SWM4     DOH2     DOH2     -1.71640      0.400000           0   0.00000       0.00000    
     38766 TIP3     2512     SWM4     OM       LPDW     -1.11466       0.00000          -1   0.00000       0.00000    
     38767 TIP3     2512     SWM4     H1       HDW      0.557330       1.00800           0   0.00000       0.00000    
     38768 TIP3     2512     SWM4     H2       HDW      0.557330       1.00800           0   0.00000       0.00000    
     38769 TIP3     2513     SWM4     OH2      ODW       1.71640       15.5994           0 -0.978253       1.30000    
     38770 TIP3     2513     SWM4     DOH2     DOH2     -1.71640      0.400000           0   0.00000       0.00000    
     38771 TIP3     2513     SWM4     OM       LPDW     -1.11466       0.00000          -1   0.00000       0.00000    
     38772 TIP3     2513     SWM4     H1       HDW      0.557330       1.00800           0   0.00000       0.00000    
     38773 TIP3     2513     SWM4     H2       HDW      0.557330       1.00800           0   0.00000       0.00000    
     38774 TIP3     2514     SWM4     OH2      ODW       1.71640       15.5994           0 -0.978253       1.30000    
     38775 TIP3     2514     SWM4     DOH2     DOH2     -1.71640      0.400000           0   0.00000       0.00000    
     38776 TIP3     2514     SWM4     OM       LPDW     -1.11466       0.00000          -1   0.00000       0.00000    
     38777 TIP3     2514     SWM4     H1       HDW      0.557330       1.00800           0   0.00000       0.00000    
     38778 TIP3     2514     SWM4     H2       HDW      0.557330       1.00800           0   0.00000       0.00000    
     38779 TIP3     2515     SWM4     OH2      ODW       1.71640       15.5994           0 -0.978253       1.30000    
     38780 TIP3     2515     SWM4     DOH2     DOH2     -1.71640      0.400000           0   0.00000       0.00000    
     38781 TIP3     2515     SWM4     OM       LPDW     -1.11466       0.00000          -1   0.00000       0.00000    
     38782 TIP3     2515     SWM4     H1       HDW      0.557330       1.00800           0   0.00000       0.00000    
     38783 TIP3     2515     SWM4     H2       HDW      0.557330       1.00800           0   0.00000       0.00000    
     38784 TIP3     2516     SWM4     OH2      ODW       1.71640       15.5994           0 -0.978253       1.30000    
     38785 TIP3     2516     SWM4     DOH2     DOH2     -1.71640      0.400000           0   0.00000       0.00000    
     38786 TIP3     2516     SWM4     OM       LPDW     -1.11466       0.00000          -1   0.00000       0.00000    
     38787 TIP3     2516     SWM4     H1       HDW      0.557330       1.00800           0   0.00000       0.00000    
     38788 TIP3     2516     SWM4     H2       HDW      0.557330       1.00800           0   0.00000       0.00000    
     38789 TIP3     2517     SWM4     OH2      ODW       1.71640       15.5994           0 -0.978253       1.30000    
     38790 TIP3     2517     SWM4     DOH2     DOH2     -1.71640      0.400000           0   0.00000       0.00000    
     38791 TIP3     2517     SWM4     OM       LPDW     -1.11466       0.00000          -1   0.00000       0.00000    
     38792 TIP3     2517     SWM4     H1       HDW      0.557330       1.00800           0   0.00000       0.00000    
     38793 TIP3     2517     SWM4     H2       HDW      0.557330       1.00800           0   0.00000       0.00000    
     38794 TIP3     2518     SWM4     OH2      ODW       1.71640       15.5994           0 -0.978253       1.30000    
     38795 TIP3     2518     SWM4     DOH2     DOH2     -1.71640      0.400000           0   0.00000       0.00000    
     38796 TIP3     2518     SWM4     OM       LPDW     -1.11466       0.00000          -1   0.00000       0.00000    
     38797 TIP3     2518     SWM4     H1       HDW      0.557330       1.00800           0   0.00000       0.00000    
     38798 TIP3     2518     SWM4     H2       HDW      0.557330       1.00800           0   0.00000       0.00000    
     38799 TIP3     2519     SWM4     OH2      ODW       1.71640       15.5994           0 -0.978253       1.30000    
     38800 TIP3     2519     SWM4     DOH2     DOH2     -1.71640      0.400000           0   0.00000       0.00000    
     38801 TIP3     2519     SWM4     OM       LPDW     -1.11466       0.00000          -1   0.00000       0.00000    
     38802 TIP3     2519     SWM4     H1       HDW      0.557330       1.00800           0   0.00000       0.00000    
     38803 TIP3     2519     SWM4     H2       HDW      0.557330       1.00800           0   0.00000       0.00000    
     38804 TIP3     2520     SWM4     OH2      ODW       1.71640       15.5994           0 -0.978253       1.30000    
     38805 TIP3     2520     SWM4     DOH2     DOH2     -1.71640      0.400000           0   0.00000       0.00000    
     38806 TIP3     2520     SWM4     OM       LPDW     -1.11466       0.00000          -1   0.00000       0.00000    
     38807 TIP3     2520     SWM4     H1       HDW      0.557330       1.00800           0   0.00000       0.00000    
     38808 TIP3     2520     SWM4     H2       HDW      0.557330       1.00800           0   0.00000       0.00000    
     38809 TIP3     2521     SWM4     OH2      ODW       1.71640       15.5994           0 -0.978253       1.30000    
     38810 TIP3     2521     SWM4     DOH2     DOH2     -1.71640      0.400000           0   0.00000       0.00000    
     38811 TIP3     2521     SWM4     OM       LPDW     -1.11466       0.00000          -1   0.00000       0.00000    
     38812 TIP3     2521     SWM4     H1       HDW      0.557330       1.00800           0   0.00000       0.00000    
     38813 TIP3     2521     SWM4     H2       HDW      0.557330       1.00800           0   0.00000       0.00000    
     38814 TIP3     2522     SWM4     OH2      ODW       1.71640       15.5994           0 -0.978253       1.30000    
     38815 TIP3     2522     SWM4     DOH2     DOH2     -1.71640      0.400000           0   0.00000       0.00000    
     38816 TIP3     2522     SWM4     OM       LPDW     -1.11466       0.00000          -1   0.00000       0.00000    
     38817 TIP3     2522     SWM4     H1       HDW      0.557330       1.00800           0   0.00000       0.00000    
     38818 TIP3     2522     SWM4     H2       HDW      0.557330       1.00800           0   0.00000       0.00000    
     38819 TIP3     2523     SWM4     OH2      ODW       1.71640       15.5994           0 -0.978253       1.30000    
     38820 TIP3     2523     SWM4     DOH2     DOH2     -1.71640      0.400000           0   0.00000       0.00000    
     38821 TIP3     2523     SWM4     OM       LPDW     -1.11466       0.00000          -1   0.00000       0.00000    
     38822 TIP3     2523     SWM4     H1       HDW      0.557330       1.00800           0   0.00000       0.00000    
     38823 TIP3     2523     SWM4     H2       HDW      0.557330       1.00800           0   0.00000       0.00000    
     38824 TIP3     2524     SWM4     OH2      ODW       1.71640       15.5994           0 -0.978253       1.30000    
     38825 TIP3     2524     SWM4     DOH2     DOH2     -1.71640      0.400000           0   0.00000       0.00000    
     38826 TIP3     2524     SWM4     OM       LPDW     -1.11466       0.00000          -1   0.00000       0.00000    
     38827 TIP3     2524     SWM4     H1       HDW      0.557330       1.00800           0   0.00000       0.00000    
     38828 TIP3     2524     SWM4     H2       HDW      0.557330       1.00800           0   0.00000       0.00000    
     38829 TIP3     2525     SWM4     OH2      ODW       1.71640       15.5994           0 -0.978253       1.30000    
     38830 TIP3     2525     SWM4     DOH2     DOH2     -1.71640      0.400000           0   0.00000       0.00000    
     38831 TIP3     2525     SWM4     OM       LPDW     -1.11466       0.00000          -1   0.00000       0.00000    
     38832 TIP3     2525     SWM4     H1       HDW      0.557330       1.00800           0   0.00000       0.00000    
     38833 TIP3     2525     SWM4     H2       HDW      0.557330       1.00800           0   0.00000       0.00000    
     38834 TIP3     2526     SWM4     OH2      ODW       1.71640       15.5994           0 -0.978253       1.30000    
     38835 TIP3     2526     SWM4     DOH2     DOH2     -1.71640      0.400000           0   0.00000       0.00000    
     38836 TIP3     2526     SWM4     OM       LPDW     -1.11466       0.00000          -1   0.00000       0.00000    
     38837 TIP3     2526     SWM4     H1       HDW      0.557330       1.00800           0   0.00000       0.00000    
     38838 TIP3     2526     SWM4     H2       HDW      0.557330       1.00800           0   0.00000       0.00000    
     38839 TIP3     2527     SWM4     OH2      ODW       1.71640       15.5994           0 -0.978253       1.30000    
     38840 TIP3     2527     SWM4     DOH2     DOH2     -1.71640      0.400000           0   0.00000       0.00000    
     38841 TIP3     2527     SWM4     OM       LPDW     -1.11466       0.00000          -1   0.00000       0.00000    
     38842 TIP3     2527     SWM4     H1       HDW      0.557330       1.00800           0   0.00000       0.00000    
     38843 TIP3     2527     SWM4     H2       HDW      0.557330       1.00800           0   0.00000       0.00000    
     38844 TIP3     2528     SWM4     OH2      ODW       1.71640       15.5994           0 -0.978253       1.30000    
     38845 TIP3     2528     SWM4     DOH2     DOH2     -1.71640      0.400000           0   0.00000       0.00000    
     38846 TIP3     2528     SWM4     OM       LPDW     -1.11466       0.00000          -1   0.00000       0.00000    
     38847 TIP3     2528     SWM4     H1       HDW      0.557330       1.00800           0   0.00000       0.00000    
     38848 TIP3     2528     SWM4     H2       HDW      0.557330       1.00800           0   0.00000       0.00000    
     38849 TIP3     2529     SWM4     OH2      ODW       1.71640       15.5994           0 -0.978253       1.30000    
     38850 TIP3     2529     SWM4     DOH2     DOH2     -1.71640      0.400000           0   0.00000       0.00000    
     38851 TIP3     2529     SWM4     OM       LPDW     -1.11466       0.00000          -1   0.00000       0.00000    
     38852 TIP3     2529     SWM4     H1       HDW      0.557330       1.00800           0   0.00000       0.00000    
     38853 TIP3     2529     SWM4     H2       HDW      0.557330       1.00800           0   0.00000       0.00000    
     38854 TIP3     2530     SWM4     OH2      ODW       1.71640       15.5994           0 -0.978253       1.30000    
     38855 TIP3     2530     SWM4     DOH2     DOH2     -1.71640      0.400000           0   0.00000       0.00000    
     38856 TIP3     2530     SWM4     OM       LPDW     -1.11466       0.00000          -1   0.00000       0.00000    
     38857 TIP3     2530     SWM4     H1       HDW      0.557330       1.00800           0   0.00000       0.00000    
     38858 TIP3     2530     SWM4     H2       HDW      0.557330       1.00800           0   0.00000       0.00000    
     38859 TIP3     2531     SWM4     OH2      ODW       1.71640       15.5994           0 -0.978253       1.30000    
     38860 TIP3     2531     SWM4     DOH2     DOH2     -1.71640      0.400000           0   0.00000       0.00000    
     38861 TIP3     2531     SWM4     OM       LPDW     -1.11466       0.00000          -1   0.00000       0.00000    
     38862 TIP3     2531     SWM4     H1       HDW      0.557330       1.00800           0   0.00000       0.00000    
     38863 TIP3     2531     SWM4     H2       HDW      0.557330       1.00800           0   0.00000       0.00000    
     38864 TIP3     2532     SWM4     OH2      ODW       1.71640       15.5994           0 -0.978253       1.30000    
     38865 TIP3     2532     SWM4     DOH2     DOH2     -1.71640      0.400000           0   0.00000       0.00000    
     38866 TIP3     2532     SWM4     OM       LPDW     -1.11466       0.00000          -1   0.00000       0.00000    
     38867 TIP3     2532     SWM4     H1       HDW      0.557330       1.00800           0   0.00000       0.00000    
     38868 TIP3     2532     SWM4     H2       HDW      0.557330       1.00800           0   0.00000       0.00000    
     38869 TIP3     2533     SWM4     OH2      ODW       1.71640       15.5994           0 -0.978253       1.30000    
     38870 TIP3     2533     SWM4     DOH2     DOH2     -1.71640      0.400000           0   0.00000       0.00000    
     38871 TIP3     2533     SWM4     OM       LPDW     -1.11466       0.00000          -1   0.00000       0.00000    
     38872 TIP3     2533     SWM4     H1       HDW      0.557330       1.00800           0   0.00000       0.00000    
     38873 TIP3     2533     SWM4     H2       HDW      0.557330       1.00800           0   0.00000       0.00000    
     38874 TIP3     2534     SWM4     OH2      ODW       1.71640       15.5994           0 -0.978253       1.30000    
     38875 TIP3     2534     SWM4     DOH2     DOH2     -1.71640      0.400000           0   0.00000       0.00000    
     38876 TIP3     2534     SWM4     OM       LPDW     -1.11466       0.00000          -1   0.00000       0.00000    
     38877 TIP3     2534     SWM4     H1       HDW      0.557330       1.00800           0   0.00000       0.00000    
     38878 TIP3     2534     SWM4     H2       HDW      0.557330       1.00800           0   0.00000       0.00000    
     38879 TIP3     2535     SWM4     OH2      ODW       1.71640       15.5994           0 -0.978253       1.30000    
     38880 TIP3     2535     SWM4     DOH2     DOH2     -1.71640      0.400000           0   0.00000       0.00000    
     38881 TIP3     2535     SWM4     OM       LPDW     -1.11466       0.00000          -1   0.00000       0.00000    
     38882 TIP3     2535     SWM4     H1       HDW      0.557330       1.00800           0   0.00000       0.00000    
     38883 TIP3     2535     SWM4     H2       HDW      0.557330       1.00800           0   0.00000       0.00000    
     38884 TIP3     2536     SWM4     OH2      ODW       1.71640       15.5994           0 -0.978253       1.30000    
     38885 TIP3     2536     SWM4     DOH2     DOH2     -1.71640      0.400000           0   0.00000       0.00000    
     38886 TIP3     2536     SWM4     OM       LPDW     -1.11466       0.00000          -1   0.00000       0.00000    
     38887 TIP3     2536     SWM4     H1       HDW      0.557330       1.00800           0   0.00000       0.00000    
     38888 TIP3     2536     SWM4     H2       HDW      0.557330       1.00800           0   0.00000       0.00000    
     38889 TIP3     2537     SWM4     OH2      ODW       1.71640       15.5994           0 -0.978253       1.30000    
     38890 TIP3     2537     SWM4     DOH2     DOH2     -1.71640      0.400000           0   0.00000       0.00000    
     38891 TIP3     2537     SWM4     OM       LPDW     -1.11466       0.00000          -1   0.00000       0.00000    
     38892 TIP3     2537     SWM4     H1       HDW      0.557330       1.00800           0   0.00000       0.00000    
     38893 TIP3     2537     SWM4     H2       HDW      0.557330       1.00800           0   0.00000       0.00000    
     38894 TIP3     2538     SWM4     OH2      ODW       1.71640       15.5994           0 -0.978253       1.30000    
     38895 TIP3     2538     SWM4     DOH2     DOH2     -1.71640      0.400000           0   0.00000       0.00000    
     38896 TIP3     2538     SWM4     OM       LPDW     -1.11466       0.00000          -1   0.00000       0.00000    
     38897 TIP3     2538     SWM4     H1       HDW      0.557330       1.00800           0   0.00000       0.00000    
     38898 TIP3     2538     SWM4     H2       HDW      0.557330       1.00800           0   0.00000       0.00000    
     38899 TIP3     2539     SWM4     OH2      ODW       1.71640       15.5994           0 -0.978253       1.30000    
     38900 TIP3     2539     SWM4     DOH2     DOH2     -1.71640      0.400000           0   0.00000       0.00000    
     38901 TIP3     2539     SWM4     OM       LPDW     -1.11466       0.00000          -1   0.00000       0.00000    
     38902 TIP3     2539     SWM4     H1       HDW      0.557330       1.00800           0   0.00000       0.00000    
     38903 TIP3     2539     SWM4     H2       HDW      0.557330       1.00800           0   0.00000       0.00000    
     38904 TIP3     2540     SWM4     OH2      ODW       1.71640       15.5994           0 -0.978253       1.30000    
     38905 TIP3     2540     SWM4     DOH2     DOH2     -1.71640      0.400000           0   0.00000       0.00000    
     38906 TIP3     2540     SWM4     OM       LPDW     -1.11466       0.00000          -1   0.00000       0.00000    
     38907 TIP3     2540     SWM4     H1       HDW      0.557330       1.00800           0   0.00000       0.00000    
     38908 TIP3     2540     SWM4     H2       HDW      0.557330       1.00800           0   0.00000       0.00000    
     38909 TIP3     2541     SWM4     OH2      ODW       1.71640       15.5994           0 -0.978253       1.30000    
     38910 TIP3     2541     SWM4     DOH2     DOH2     -1.71640      0.400000           0   0.00000       0.00000    
     38911 TIP3     2541     SWM4     OM       LPDW     -1.11466       0.00000          -1   0.00000       0.00000    
     38912 TIP3     2541     SWM4     H1       HDW      0.557330       1.00800           0   0.00000       0.00000    
     38913 TIP3     2541     SWM4     H2       HDW      0.557330       1.00800           0   0.00000       0.00000    
     38914 TIP3     2542     SWM4     OH2      ODW       1.71640       15.5994           0 -0.978253       1.30000    
     38915 TIP3     2542     SWM4     DOH2     DOH2     -1.71640      0.400000           0   0.00000       0.00000    
     38916 TIP3     2542     SWM4     OM       LPDW     -1.11466       0.00000          -1   0.00000       0.00000    
     38917 TIP3     2542     SWM4     H1       HDW      0.557330       1.00800           0   0.00000       0.00000    
     38918 TIP3     2542     SWM4     H2       HDW      0.557330       1.00800           0   0.00000       0.00000    
     38919 TIP3     2543     SWM4     OH2      ODW       1.71640       15.5994           0 -0.978253       1.30000    
     38920 TIP3     2543     SWM4     DOH2     DOH2     -1.71640      0.400000           0   0.00000       0.00000    
     38921 TIP3     2543     SWM4     OM       LPDW     -1.11466       0.00000          -1   0.00000       0.00000    
     38922 TIP3     2543     SWM4     H1       HDW      0.557330       1.00800           0   0.00000       0.00000    
     38923 TIP3     2543     SWM4     H2       HDW      0.557330       1.00800           0   0.00000       0.00000    
     38924 TIP3     2544     SWM4     OH2      ODW       1.71640       15.5994           0 -0.978253       1.30000    
     38925 TIP3     2544     SWM4     DOH2     DOH2     -1.71640      0.400000           0   0.00000       0.00000    
     38926 TIP3     2544     SWM4     OM       LPDW     -1.11466       0.00000          -1   0.00000       0.00000    
     38927 TIP3     2544     SWM4     H1       HDW      0.557330       1.00800           0   0.00000       0.00000    
     38928 TIP3     2544     SWM4     H2       HDW      0.557330       1.00800           0   0.00000       0.00000    
     38929 TIP3     2545     SWM4     OH2      ODW       1.71640       15.5994           0 -0.978253       1.30000    
     38930 TIP3     2545     SWM4     DOH2     DOH2     -1.71640      0.400000           0   0.00000       0.00000    
     38931 TIP3     2545     SWM4     OM       LPDW     -1.11466       0.00000          -1   0.00000       0.00000    
     38932 TIP3     2545     SWM4     H1       HDW      0.557330       1.00800           0   0.00000       0.00000    
     38933 TIP3     2545     SWM4     H2       HDW      0.557330       1.00800           0   0.00000       0.00000    
     38934 TIP3     2546     SWM4     OH2      ODW       1.71640       15.5994           0 -0.978253       1.30000    
     38935 TIP3     2546     SWM4     DOH2     DOH2     -1.71640      0.400000           0   0.00000       0.00000    
     38936 TIP3     2546     SWM4     OM       LPDW     -1.11466       0.00000          -1   0.00000       0.00000    
     38937 TIP3     2546     SWM4     H1       HDW      0.557330       1.00800           0   0.00000       0.00000    
     38938 TIP3     2546     SWM4     H2       HDW      0.557330       1.00800           0   0.00000       0.00000    
     38939 TIP3     2547     SWM4     OH2      ODW       1.71640       15.5994           0 -0.978253       1.30000    
     38940 TIP3     2547     SWM4     DOH2     DOH2     -1.71640      0.400000           0   0.00000       0.00000    
     38941 TIP3     2547     SWM4     OM       LPDW     -1.11466       0.00000          -1   0.00000       0.00000    
     38942 TIP3     2547     SWM4     H1       HDW      0.557330       1.00800           0   0.00000       0.00000    
     38943 TIP3     2547     SWM4     H2       HDW      0.557330       1.00800           0   0.00000       0.00000    
     38944 TIP3     2548     SWM4     OH2      ODW       1.71640       15.5994           0 -0.978253       1.30000    
     38945 TIP3     2548     SWM4     DOH2     DOH2     -1.71640      0.400000           0   0.00000       0.00000    
     38946 TIP3     2548     SWM4     OM       LPDW     -1.11466       0.00000          -1   0.00000       0.00000    
     38947 TIP3     2548     SWM4     H1       HDW      0.557330       1.00800           0   0.00000       0.00000    
     38948 TIP3     2548     SWM4     H2       HDW      0.557330       1.00800           0   0.00000       0.00000    
     38949 TIP3     2549     SWM4     OH2      ODW       1.71640       15.5994           0 -0.978253       1.30000    
     38950 TIP3     2549     SWM4     DOH2     DOH2     -1.71640      0.400000           0   0.00000       0.00000    
     38951 TIP3     2549     SWM4     OM       LPDW     -1.11466       0.00000          -1   0.00000       0.00000    
     38952 TIP3     2549     SWM4     H1       HDW      0.557330       1.00800           0   0.00000       0.00000    
     38953 TIP3     2549     SWM4     H2       HDW      0.557330       1.00800           0   0.00000       0.00000    
     38954 TIP3     2550     SWM4     OH2      ODW       1.71640       15.5994           0 -0.978253       1.30000    
     38955 TIP3     2550     SWM4     DOH2     DOH2     -1.71640      0.400000           0   0.00000       0.00000    
     38956 TIP3     2550     SWM4     OM       LPDW     -1.11466       0.00000          -1   0.00000       0.00000    
     38957 TIP3     2550     SWM4     H1       HDW      0.557330       1.00800           0   0.00000       0.00000    
     38958 TIP3     2550     SWM4     H2       HDW      0.557330       1.00800           0   0.00000       0.00000    
     38959 TIP3     2551     SWM4     OH2      ODW       1.71640       15.5994           0 -0.978253       1.30000    
     38960 TIP3     2551     SWM4     DOH2     DOH2     -1.71640      0.400000           0   0.00000       0.00000    
     38961 TIP3     2551     SWM4     OM       LPDW     -1.11466       0.00000          -1   0.00000       0.00000    
     38962 TIP3     2551     SWM4     H1       HDW      0.557330       1.00800           0   0.00000       0.00000    
     38963 TIP3     2551     SWM4     H2       HDW      0.557330       1.00800           0   0.00000       0.00000    
     38964 TIP3     2552     SWM4     OH2      ODW       1.71640       15.5994           0 -0.978253       1.30000    
     38965 TIP3     2552     SWM4     DOH2     DOH2     -1.71640      0.400000           0   0.00000       0.00000    
     38966 TIP3     2552     SWM4     OM       LPDW     -1.11466       0.00000          -1   0.00000       0.00000    
     38967 TIP3     2552     SWM4     H1       HDW      0.557330       1.00800           0   0.00000       0.00000    
     38968 TIP3     2552     SWM4     H2       HDW      0.557330       1.00800           0   0.00000       0.00000    
     38969 TIP3     2553     SWM4     OH2      ODW       1.71640       15.5994           0 -0.978253       1.30000    
     38970 TIP3     2553     SWM4     DOH2     DOH2     -1.71640      0.400000           0   0.00000       0.00000    
     38971 TIP3     2553     SWM4     OM       LPDW     -1.11466       0.00000          -1   0.00000       0.00000    
     38972 TIP3     2553     SWM4     H1       HDW      0.557330       1.00800           0   0.00000       0.00000    
     38973 TIP3     2553     SWM4     H2       HDW      0.557330       1.00800           0   0.00000       0.00000    
     38974 TIP3     2554     SWM4     OH2      ODW       1.71640       15.5994           0 -0.978253       1.30000    
     38975 TIP3     2554     SWM4     DOH2     DOH2     -1.71640      0.400000           0   0.00000       0.00000    
     38976 TIP3     2554     SWM4     OM       LPDW     -1.11466       0.00000          -1   0.00000       0.00000    
     38977 TIP3     2554     SWM4     H1       HDW      0.557330       1.00800           0   0.00000       0.00000    
     38978 TIP3     2554     SWM4     H2       HDW      0.557330       1.00800           0   0.00000       0.00000    
     38979 TIP3     2555     SWM4     OH2      ODW       1.71640       15.5994           0 -0.978253       1.30000    
     38980 TIP3     2555     SWM4     DOH2     DOH2     -1.71640      0.400000           0   0.00000       0.00000    
     38981 TIP3     2555     SWM4     OM       LPDW     -1.11466       0.00000          -1   0.00000       0.00000    
     38982 TIP3     2555     SWM4     H1       HDW      0.557330       1.00800           0   0.00000       0.00000    
     38983 TIP3     2555     SWM4     H2       HDW      0.557330       1.00800           0   0.00000       0.00000    
     38984 TIP3     2556     SWM4     OH2      ODW       1.71640       15.5994           0 -0.978253       1.30000    
     38985 TIP3     2556     SWM4     DOH2     DOH2     -1.71640      0.400000           0   0.00000       0.00000    
     38986 TIP3     2556     SWM4     OM       LPDW     -1.11466       0.00000          -1   0.00000       0.00000    
     38987 TIP3     2556     SWM4     H1       HDW      0.557330       1.00800           0   0.00000       0.00000    
     38988 TIP3     2556     SWM4     H2       HDW      0.557330       1.00800           0   0.00000       0.00000    
     38989 TIP3     2557     SWM4     OH2      ODW       1.71640       15.5994           0 -0.978253       1.30000    
     38990 TIP3     2557     SWM4     DOH2     DOH2     -1.71640      0.400000           0   0.00000       0.00000    
     38991 TIP3     2557     SWM4     OM       LPDW     -1.11466       0.00000          -1   0.00000       0.00000    
     38992 TIP3     2557     SWM4     H1       HDW      0.557330       1.00800           0   0.00000       0.00000    
     38993 TIP3     2557     SWM4     H2       HDW      0.557330       1.00800           0   0.00000       0.00000    
     38994 TIP3     2558     SWM4     OH2      ODW       1.71640       15.5994           0 -0.978253       1.30000    
     38995 TIP3     2558     SWM4     DOH2     DOH2     -1.71640      0.400000           0   0.00000       0.00000    
     38996 TIP3     2558     SWM4     OM       LPDW     -1.11466       0.00000          -1   0.00000       0.00000    
     38997 TIP3     2558     SWM4     H1       HDW      0.557330       1.00800           0   0.00000       0.00000    
     38998 TIP3     2558     SWM4     H2       HDW      0.557330       1.00800           0   0.00000       0.00000    
     38999 TIP3     2559     SWM4     OH2      ODW       1.71640       15.5994           0 -0.978253       1.30000    
     39000 TIP3     2559     SWM4     DOH2     DOH2     -1.71640      0.400000           0   0.00000       0.00000    
     39001 TIP3     2559     SWM4     OM       LPDW     -1.11466       0.00000          -1   0.00000       0.00000    
     39002 TIP3     2559     SWM4     H1       HDW      0.557330       1.00800           0   0.00000       0.00000    
     39003 TIP3     2559     SWM4     H2       HDW      0.557330       1.00800           0   0.00000       0.00000    
     39004 TIP3     2560     SWM4     OH2      ODW       1.71640       15.5994           0 -0.978253       1.30000    
     39005 TIP3     2560     SWM4     DOH2     DOH2     -1.71640      0.400000           0   0.00000       0.00000    
     39006 TIP3     2560     SWM4     OM       LPDW     -1.11466       0.00000          -1   0.00000       0.00000    
     39007 TIP3     2560     SWM4     H1       HDW      0.557330       1.00800           0   0.00000       0.00000    
     39008 TIP3     2560     SWM4     H2       HDW      0.557330       1.00800           0   0.00000       0.00000    
     39009 TIP3     2561     SWM4     OH2      ODW       1.71640       15.5994           0 -0.978253       1.30000    
     39010 TIP3     2561     SWM4     DOH2     DOH2     -1.71640      0.400000           0   0.00000       0.00000    
     39011 TIP3     2561     SWM4     OM       LPDW     -1.11466       0.00000          -1   0.00000       0.00000    
     39012 TIP3     2561     SWM4     H1       HDW      0.557330       1.00800           0   0.00000       0.00000    
     39013 TIP3     2561     SWM4     H2       HDW      0.557330       1.00800           0   0.00000       0.00000    
     39014 TIP3     2562     SWM4     OH2      ODW       1.71640       15.5994           0 -0.978253       1.30000    
     39015 TIP3     2562     SWM4     DOH2     DOH2     -1.71640      0.400000           0   0.00000       0.00000    
     39016 TIP3     2562     SWM4     OM       LPDW     -1.11466       0.00000          -1   0.00000       0.00000    
     39017 TIP3     2562     SWM4     H1       HDW      0.557330       1.00800           0   0.00000       0.00000    
     39018 TIP3     2562     SWM4     H2       HDW      0.557330       1.00800           0   0.00000       0.00000    
     39019 TIP3     2563     SWM4     OH2      ODW       1.71640       15.5994           0 -0.978253       1.30000    
     39020 TIP3     2563     SWM4     DOH2     DOH2     -1.71640      0.400000           0   0.00000       0.00000    
     39021 TIP3     2563     SWM4     OM       LPDW     -1.11466       0.00000          -1   0.00000       0.00000    
     39022 TIP3     2563     SWM4     H1       HDW      0.557330       1.00800           0   0.00000       0.00000    
     39023 TIP3     2563     SWM4     H2       HDW      0.557330       1.00800           0   0.00000       0.00000    
     39024 TIP3     2564     SWM4     OH2      ODW       1.71640       15.5994           0 -0.978253       1.30000    
     39025 TIP3     2564     SWM4     DOH2     DOH2     -1.71640      0.400000           0   0.00000       0.00000    
     39026 TIP3     2564     SWM4     OM       LPDW     -1.11466       0.00000          -1   0.00000       0.00000    
     39027 TIP3     2564     SWM4     H1       HDW      0.557330       1.00800           0   0.00000       0.00000    
     39028 TIP3     2564     SWM4     H2       HDW      0.557330       1.00800           0   0.00000       0.00000    
     39029 TIP3     2565     SWM4     OH2      ODW       1.71640       15.5994           0 -0.978253       1.30000    
     39030 TIP3     2565     SWM4     DOH2     DOH2     -1.71640      0.400000           0   0.00000       0.00000    
     39031 TIP3     2565     SWM4     OM       LPDW     -1.11466       0.00000          -1   0.00000       0.00000    
     39032 TIP3     2565     SWM4     H1       HDW      0.557330       1.00800           0   0.00000       0.00000    
     39033 TIP3     2565     SWM4     H2       HDW      0.557330       1.00800           0   0.00000       0.00000    
     39034 TIP3     2566     SWM4     OH2      ODW       1.71640       15.5994           0 -0.978253       1.30000    
     39035 TIP3     2566     SWM4     DOH2     DOH2     -1.71640      0.400000           0   0.00000       0.00000    
     39036 TIP3     2566     SWM4     OM       LPDW     -1.11466       0.00000          -1   0.00000       0.00000    
     39037 TIP3     2566     SWM4     H1       HDW      0.557330       1.00800           0   0.00000       0.00000    
     39038 TIP3     2566     SWM4     H2       HDW      0.557330       1.00800           0   0.00000       0.00000    
     39039 TIP3     2567     SWM4     OH2      ODW       1.71640       15.5994           0 -0.978253       1.30000    
     39040 TIP3     2567     SWM4     DOH2     DOH2     -1.71640      0.400000           0   0.00000       0.00000    
     39041 TIP3     2567     SWM4     OM       LPDW     -1.11466       0.00000          -1   0.00000       0.00000    
     39042 TIP3     2567     SWM4     H1       HDW      0.557330       1.00800           0   0.00000       0.00000    
     39043 TIP3     2567     SWM4     H2       HDW      0.557330       1.00800           0   0.00000       0.00000    
     39044 TIP3     2568     SWM4     OH2      ODW       1.71640       15.5994           0 -0.978253       1.30000    
     39045 TIP3     2568     SWM4     DOH2     DOH2     -1.71640      0.400000           0   0.00000       0.00000    
     39046 TIP3     2568     SWM4     OM       LPDW     -1.11466       0.00000          -1   0.00000       0.00000    
     39047 TIP3     2568     SWM4     H1       HDW      0.557330       1.00800           0   0.00000       0.00000    
     39048 TIP3     2568     SWM4     H2       HDW      0.557330       1.00800           0   0.00000       0.00000    
     39049 TIP3     2569     SWM4     OH2      ODW       1.71640       15.5994           0 -0.978253       1.30000    
     39050 TIP3     2569     SWM4     DOH2     DOH2     -1.71640      0.400000           0   0.00000       0.00000    
     39051 TIP3     2569     SWM4     OM       LPDW     -1.11466       0.00000          -1   0.00000       0.00000    
     39052 TIP3     2569     SWM4     H1       HDW      0.557330       1.00800           0   0.00000       0.00000    
     39053 TIP3     2569     SWM4     H2       HDW      0.557330       1.00800           0   0.00000       0.00000    
     39054 TIP3     2570     SWM4     OH2      ODW       1.71640       15.5994           0 -0.978253       1.30000    
     39055 TIP3     2570     SWM4     DOH2     DOH2     -1.71640      0.400000           0   0.00000       0.00000    
     39056 TIP3     2570     SWM4     OM       LPDW     -1.11466       0.00000          -1   0.00000       0.00000    
     39057 TIP3     2570     SWM4     H1       HDW      0.557330       1.00800           0   0.00000       0.00000    
     39058 TIP3     2570     SWM4     H2       HDW      0.557330       1.00800           0   0.00000       0.00000    
     39059 TIP3     2571     SWM4     OH2      ODW       1.71640       15.5994           0 -0.978253       1.30000    
     39060 TIP3     2571     SWM4     DOH2     DOH2     -1.71640      0.400000           0   0.00000       0.00000    
     39061 TIP3     2571     SWM4     OM       LPDW     -1.11466       0.00000          -1   0.00000       0.00000    
     39062 TIP3     2571     SWM4     H1       HDW      0.557330       1.00800           0   0.00000       0.00000    
     39063 TIP3     2571     SWM4     H2       HDW      0.557330       1.00800           0   0.00000       0.00000    
     39064 TIP3     2572     SWM4     OH2      ODW       1.71640       15.5994           0 -0.978253       1.30000    
     39065 TIP3     2572     SWM4     DOH2     DOH2     -1.71640      0.400000           0   0.00000       0.00000    
     39066 TIP3     2572     SWM4     OM       LPDW     -1.11466       0.00000          -1   0.00000       0.00000    
     39067 TIP3     2572     SWM4     H1       HDW      0.557330       1.00800           0   0.00000       0.00000    
     39068 TIP3     2572     SWM4     H2       HDW      0.557330       1.00800           0   0.00000       0.00000    
     39069 TIP3     2573     SWM4     OH2      ODW       1.71640       15.5994           0 -0.978253       1.30000    
     39070 TIP3     2573     SWM4     DOH2     DOH2     -1.71640      0.400000           0   0.00000       0.00000    
     39071 TIP3     2573     SWM4     OM       LPDW     -1.11466       0.00000          -1   0.00000       0.00000    
     39072 TIP3     2573     SWM4     H1       HDW      0.557330       1.00800           0   0.00000       0.00000    
     39073 TIP3     2573     SWM4     H2       HDW      0.557330       1.00800           0   0.00000       0.00000    
     39074 TIP3     2574     SWM4     OH2      ODW       1.71640       15.5994           0 -0.978253       1.30000    
     39075 TIP3     2574     SWM4     DOH2     DOH2     -1.71640      0.400000           0   0.00000       0.00000    
     39076 TIP3     2574     SWM4     OM       LPDW     -1.11466       0.00000          -1   0.00000       0.00000    
     39077 TIP3     2574     SWM4     H1       HDW      0.557330       1.00800           0   0.00000       0.00000    
     39078 TIP3     2574     SWM4     H2       HDW      0.557330       1.00800           0   0.00000       0.00000    
     39079 TIP3     2575     SWM4     OH2      ODW       1.71640       15.5994           0 -0.978253       1.30000    
     39080 TIP3     2575     SWM4     DOH2     DOH2     -1.71640      0.400000           0   0.00000       0.00000    
     39081 TIP3     2575     SWM4     OM       LPDW     -1.11466       0.00000          -1   0.00000       0.00000    
     39082 TIP3     2575     SWM4     H1       HDW      0.557330       1.00800           0   0.00000       0.00000    
     39083 TIP3     2575     SWM4     H2       HDW      0.557330       1.00800           0   0.00000       0.00000    
     39084 TIP3     2576     SWM4     OH2      ODW       1.71640       15.5994           0 -0.978253       1.30000    
     39085 TIP3     2576     SWM4     DOH2     DOH2     -1.71640      0.400000           0   0.00000       0.00000    
     39086 TIP3     2576     SWM4     OM       LPDW     -1.11466       0.00000          -1   0.00000       0.00000    
     39087 TIP3     2576     SWM4     H1       HDW      0.557330       1.00800           0   0.00000       0.00000    
     39088 TIP3     2576     SWM4     H2       HDW      0.557330       1.00800           0   0.00000       0.00000    
     39089 TIP3     2577     SWM4     OH2      ODW       1.71640       15.5994           0 -0.978253       1.30000    
     39090 TIP3     2577     SWM4     DOH2     DOH2     -1.71640      0.400000           0   0.00000       0.00000    
     39091 TIP3     2577     SWM4     OM       LPDW     -1.11466       0.00000          -1   0.00000       0.00000    
     39092 TIP3     2577     SWM4     H1       HDW      0.557330       1.00800           0   0.00000       0.00000    
     39093 TIP3     2577     SWM4     H2       HDW      0.557330       1.00800           0   0.00000       0.00000    
     39094 TIP3     2578     SWM4     OH2      ODW       1.71640       15.5994           0 -0.978253       1.30000    
     39095 TIP3     2578     SWM4     DOH2     DOH2     -1.71640      0.400000           0   0.00000       0.00000    
     39096 TIP3     2578     SWM4     OM       LPDW     -1.11466       0.00000          -1   0.00000       0.00000    
     39097 TIP3     2578     SWM4     H1       HDW      0.557330       1.00800           0   0.00000       0.00000    
     39098 TIP3     2578     SWM4     H2       HDW      0.557330       1.00800           0   0.00000       0.00000    
     39099 TIP3     2579     SWM4     OH2      ODW       1.71640       15.5994           0 -0.978253       1.30000    
     39100 TIP3     2579     SWM4     DOH2     DOH2     -1.71640      0.400000           0   0.00000       0.00000    
     39101 TIP3     2579     SWM4     OM       LPDW     -1.11466       0.00000          -1   0.00000       0.00000    
     39102 TIP3     2579     SWM4     H1       HDW      0.557330       1.00800           0   0.00000       0.00000    
     39103 TIP3     2579     SWM4     H2       HDW      0.557330       1.00800           0   0.00000       0.00000    
     39104 TIP3     2580     SWM4     OH2      ODW       1.71640       15.5994           0 -0.978253       1.30000    
     39105 TIP3     2580     SWM4     DOH2     DOH2     -1.71640      0.400000           0   0.00000       0.00000    
     39106 TIP3     2580     SWM4     OM       LPDW     -1.11466       0.00000          -1   0.00000       0.00000    
     39107 TIP3     2580     SWM4     H1       HDW      0.557330       1.00800           0   0.00000       0.00000    
     39108 TIP3     2580     SWM4     H2       HDW      0.557330       1.00800           0   0.00000       0.00000    
     39109 TIP3     2581     SWM4     OH2      ODW       1.71640       15.5994           0 -0.978253       1.30000    
     39110 TIP3     2581     SWM4     DOH2     DOH2     -1.71640      0.400000           0   0.00000       0.00000    
     39111 TIP3     2581     SWM4     OM       LPDW     -1.11466       0.00000          -1   0.00000       0.00000    
     39112 TIP3     2581     SWM4     H1       HDW      0.557330       1.00800           0   0.00000       0.00000    
     39113 TIP3     2581     SWM4     H2       HDW      0.557330       1.00800           0   0.00000       0.00000    
     39114 TIP3     2582     SWM4     OH2      ODW       1.71640       15.5994           0 -0.978253       1.30000    
     39115 TIP3     2582     SWM4     DOH2     DOH2     -1.71640      0.400000           0   0.00000       0.00000    
     39116 TIP3     2582     SWM4     OM       LPDW     -1.11466       0.00000          -1   0.00000       0.00000    
     39117 TIP3     2582     SWM4     H1       HDW      0.557330       1.00800           0   0.00000       0.00000    
     39118 TIP3     2582     SWM4     H2       HDW      0.557330       1.00800           0   0.00000       0.00000    
     39119 TIP3     2583     SWM4     OH2      ODW       1.71640       15.5994           0 -0.978253       1.30000    
     39120 TIP3     2583     SWM4     DOH2     DOH2     -1.71640      0.400000           0   0.00000       0.00000    
     39121 TIP3     2583     SWM4     OM       LPDW     -1.11466       0.00000          -1   0.00000       0.00000    
     39122 TIP3     2583     SWM4     H1       HDW      0.557330       1.00800           0   0.00000       0.00000    
     39123 TIP3     2583     SWM4     H2       HDW      0.557330       1.00800           0   0.00000       0.00000    
     39124 TIP3     2584     SWM4     OH2      ODW       1.71640       15.5994           0 -0.978253       1.30000    
     39125 TIP3     2584     SWM4     DOH2     DOH2     -1.71640      0.400000           0   0.00000       0.00000    
     39126 TIP3     2584     SWM4     OM       LPDW     -1.11466       0.00000          -1   0.00000       0.00000    
     39127 TIP3     2584     SWM4     H1       HDW      0.557330       1.00800           0   0.00000       0.00000    
     39128 TIP3     2584     SWM4     H2       HDW      0.557330       1.00800           0   0.00000       0.00000    
     39129 TIP3     2585     SWM4     OH2      ODW       1.71640       15.5994           0 -0.978253       1.30000    
     39130 TIP3     2585     SWM4     DOH2     DOH2     -1.71640      0.400000           0   0.00000       0.00000    
     39131 TIP3     2585     SWM4     OM       LPDW     -1.11466       0.00000          -1   0.00000       0.00000    
     39132 TIP3     2585     SWM4     H1       HDW      0.557330       1.00800           0   0.00000       0.00000    
     39133 TIP3     2585     SWM4     H2       HDW      0.557330       1.00800           0   0.00000       0.00000    
     39134 TIP3     2586     SWM4     OH2      ODW       1.71640       15.5994           0 -0.978253       1.30000    
     39135 TIP3     2586     SWM4     DOH2     DOH2     -1.71640      0.400000           0   0.00000       0.00000    
     39136 TIP3     2586     SWM4     OM       LPDW     -1.11466       0.00000          -1   0.00000       0.00000    
     39137 TIP3     2586     SWM4     H1       HDW      0.557330       1.00800           0   0.00000       0.00000    
     39138 TIP3     2586     SWM4     H2       HDW      0.557330       1.00800           0   0.00000       0.00000    
     39139 TIP3     2587     SWM4     OH2      ODW       1.71640       15.5994           0 -0.978253       1.30000    
     39140 TIP3     2587     SWM4     DOH2     DOH2     -1.71640      0.400000           0   0.00000       0.00000    
     39141 TIP3     2587     SWM4     OM       LPDW     -1.11466       0.00000          -1   0.00000       0.00000    
     39142 TIP3     2587     SWM4     H1       HDW      0.557330       1.00800           0   0.00000       0.00000    
     39143 TIP3     2587     SWM4     H2       HDW      0.557330       1.00800           0   0.00000       0.00000    
     39144 TIP3     2588     SWM4     OH2      ODW       1.71640       15.5994           0 -0.978253       1.30000    
     39145 TIP3     2588     SWM4     DOH2     DOH2     -1.71640      0.400000           0   0.00000       0.00000    
     39146 TIP3     2588     SWM4     OM       LPDW     -1.11466       0.00000          -1   0.00000       0.00000    
     39147 TIP3     2588     SWM4     H1       HDW      0.557330       1.00800           0   0.00000       0.00000    
     39148 TIP3     2588     SWM4     H2       HDW      0.557330       1.00800           0   0.00000       0.00000    
     39149 TIP3     2589     SWM4     OH2      ODW       1.71640       15.5994           0 -0.978253       1.30000    
     39150 TIP3     2589     SWM4     DOH2     DOH2     -1.71640      0.400000           0   0.00000       0.00000    
     39151 TIP3     2589     SWM4     OM       LPDW     -1.11466       0.00000          -1   0.00000       0.00000    
     39152 TIP3     2589     SWM4     H1       HDW      0.557330       1.00800           0   0.00000       0.00000    
     39153 TIP3     2589     SWM4     H2       HDW      0.557330       1.00800           0   0.00000       0.00000    
     39154 TIP3     2590     SWM4     OH2      ODW       1.71640       15.5994           0 -0.978253       1.30000    
     39155 TIP3     2590     SWM4     DOH2     DOH2     -1.71640      0.400000           0   0.00000       0.00000    
     39156 TIP3     2590     SWM4     OM       LPDW     -1.11466       0.00000          -1   0.00000       0.00000    
     39157 TIP3     2590     SWM4     H1       HDW      0.557330       1.00800           0   0.00000       0.00000    
     39158 TIP3     2590     SWM4     H2       HDW      0.557330       1.00800           0   0.00000       0.00000    
     39159 TIP3     2591     SWM4     OH2      ODW       1.71640       15.5994           0 -0.978253       1.30000    
     39160 TIP3     2591     SWM4     DOH2     DOH2     -1.71640      0.400000           0   0.00000       0.00000    
     39161 TIP3     2591     SWM4     OM       LPDW     -1.11466       0.00000          -1   0.00000       0.00000    
     39162 TIP3     2591     SWM4     H1       HDW      0.557330       1.00800           0   0.00000       0.00000    
     39163 TIP3     2591     SWM4     H2       HDW      0.557330       1.00800           0   0.00000       0.00000    
     39164 TIP3     2592     SWM4     OH2      ODW       1.71640       15.5994           0 -0.978253       1.30000    
     39165 TIP3     2592     SWM4     DOH2     DOH2     -1.71640      0.400000           0   0.00000       0.00000    
     39166 TIP3     2592     SWM4     OM       LPDW     -1.11466       0.00000          -1   0.00000       0.00000    
     39167 TIP3     2592     SWM4     H1       HDW      0.557330       1.00800           0   0.00000       0.00000    
     39168 TIP3     2592     SWM4     H2       HDW      0.557330       1.00800           0   0.00000       0.00000    
     39169 TIP3     2593     SWM4     OH2      ODW       1.71640       15.5994           0 -0.978253       1.30000    
     39170 TIP3     2593     SWM4     DOH2     DOH2     -1.71640      0.400000           0   0.00000       0.00000    
     39171 TIP3     2593     SWM4     OM       LPDW     -1.11466       0.00000          -1   0.00000       0.00000    
     39172 TIP3     2593     SWM4     H1       HDW      0.557330       1.00800           0   0.00000       0.00000    
     39173 TIP3     2593     SWM4     H2       HDW      0.557330       1.00800           0   0.00000       0.00000    
     39174 TIP3     2594     SWM4     OH2      ODW       1.71640       15.5994           0 -0.978253       1.30000    
     39175 TIP3     2594     SWM4     DOH2     DOH2     -1.71640      0.400000           0   0.00000       0.00000    
     39176 TIP3     2594     SWM4     OM       LPDW     -1.11466       0.00000          -1   0.00000       0.00000    
     39177 TIP3     2594     SWM4     H1       HDW      0.557330       1.00800           0   0.00000       0.00000    
     39178 TIP3     2594     SWM4     H2       HDW      0.557330       1.00800           0   0.00000       0.00000    
     39179 TIP3     2595     SWM4     OH2      ODW       1.71640       15.5994           0 -0.978253       1.30000    
     39180 TIP3     2595     SWM4     DOH2     DOH2     -1.71640      0.400000           0   0.00000       0.00000    
     39181 TIP3     2595     SWM4     OM       LPDW     -1.11466       0.00000          -1   0.00000       0.00000    
     39182 TIP3     2595     SWM4     H1       HDW      0.557330       1.00800           0   0.00000       0.00000    
     39183 TIP3     2595     SWM4     H2       HDW      0.557330       1.00800           0   0.00000       0.00000    
     39184 TIP3     2596     SWM4     OH2      ODW       1.71640       15.5994           0 -0.978253       1.30000    
     39185 TIP3     2596     SWM4     DOH2     DOH2     -1.71640      0.400000           0   0.00000       0.00000    
     39186 TIP3     2596     SWM4     OM       LPDW     -1.11466       0.00000          -1   0.00000       0.00000    
     39187 TIP3     2596     SWM4     H1       HDW      0.557330       1.00800           0   0.00000       0.00000    
     39188 TIP3     2596     SWM4     H2       HDW      0.557330       1.00800           0   0.00000       0.00000    
     39189 TIP3     2597     SWM4     OH2      ODW       1.71640       15.5994           0 -0.978253       1.30000    
     39190 TIP3     2597     SWM4     DOH2     DOH2     -1.71640      0.400000           0   0.00000       0.00000    
     39191 TIP3     2597     SWM4     OM       LPDW     -1.11466       0.00000          -1   0.00000       0.00000    
     39192 TIP3     2597     SWM4     H1       HDW      0.557330       1.00800           0   0.00000       0.00000    
     39193 TIP3     2597     SWM4     H2       HDW      0.557330       1.00800           0   0.00000       0.00000    
     39194 TIP3     2598     SWM4     OH2      ODW       1.71640       15.5994           0 -0.978253       1.30000    
     39195 TIP3     2598     SWM4     DOH2     DOH2     -1.71640      0.400000           0   0.00000       0.00000    
     39196 TIP3     2598     SWM4     OM       LPDW     -1.11466       0.00000          -1   0.00000       0.00000    
     39197 TIP3     2598     SWM4     H1       HDW      0.557330       1.00800           0   0.00000       0.00000    
     39198 TIP3     2598     SWM4     H2       HDW      0.557330       1.00800           0   0.00000       0.00000    
     39199 TIP3     2599     SWM4     OH2      ODW       1.71640       15.5994           0 -0.978253       1.30000    
     39200 TIP3     2599     SWM4     DOH2     DOH2     -1.71640      0.400000           0   0.00000       0.00000    
     39201 TIP3     2599     SWM4     OM       LPDW     -1.11466       0.00000          -1   0.00000       0.00000    
     39202 TIP3     2599     SWM4     H1       HDW      0.557330       1.00800           0   0.00000       0.00000    
     39203 TIP3     2599     SWM4     H2       HDW      0.557330       1.00800           0   0.00000       0.00000    
     39204 TIP3     2600     SWM4     OH2      ODW       1.71640       15.5994           0 -0.978253       1.30000    
     39205 TIP3     2600     SWM4     DOH2     DOH2     -1.71640      0.400000           0   0.00000       0.00000    
     39206 TIP3     2600     SWM4     OM       LPDW     -1.11466       0.00000          -1   0.00000       0.00000    
     39207 TIP3     2600     SWM4     H1       HDW      0.557330       1.00800           0   0.00000       0.00000    
     39208 TIP3     2600     SWM4     H2       HDW      0.557330       1.00800           0   0.00000       0.00000    
     39209 TIP3     2601     SWM4     OH2      ODW       1.71640       15.5994           0 -0.978253       1.30000    
     39210 TIP3     2601     SWM4     DOH2     DOH2     -1.71640      0.400000           0   0.00000       0.00000    
     39211 TIP3     2601     SWM4     OM       LPDW     -1.11466       0.00000          -1   0.00000       0.00000    
     39212 TIP3     2601     SWM4     H1       HDW      0.557330       1.00800           0   0.00000       0.00000    
     39213 TIP3     2601     SWM4     H2       HDW      0.557330       1.00800           0   0.00000       0.00000    
     39214 TIP3     2602     SWM4     OH2      ODW       1.71640       15.5994           0 -0.978253       1.30000    
     39215 TIP3     2602     SWM4     DOH2     DOH2     -1.71640      0.400000           0   0.00000       0.00000    
     39216 TIP3     2602     SWM4     OM       LPDW     -1.11466       0.00000          -1   0.00000       0.00000    
     39217 TIP3     2602     SWM4     H1       HDW      0.557330       1.00800           0   0.00000       0.00000    
     39218 TIP3     2602     SWM4     H2       HDW      0.557330       1.00800           0   0.00000       0.00000    
     39219 TIP3     2603     SWM4     OH2      ODW       1.71640       15.5994           0 -0.978253       1.30000    
     39220 TIP3     2603     SWM4     DOH2     DOH2     -1.71640      0.400000           0   0.00000       0.00000    
     39221 TIP3     2603     SWM4     OM       LPDW     -1.11466       0.00000          -1   0.00000       0.00000    
     39222 TIP3     2603     SWM4     H1       HDW      0.557330       1.00800           0   0.00000       0.00000    
     39223 TIP3     2603     SWM4     H2       HDW      0.557330       1.00800           0   0.00000       0.00000    
     39224 TIP3     2604     SWM4     OH2      ODW       1.71640       15.5994           0 -0.978253       1.30000    
     39225 TIP3     2604     SWM4     DOH2     DOH2     -1.71640      0.400000           0   0.00000       0.00000    
     39226 TIP3     2604     SWM4     OM       LPDW     -1.11466       0.00000          -1   0.00000       0.00000    
     39227 TIP3     2604     SWM4     H1       HDW      0.557330       1.00800           0   0.00000       0.00000    
     39228 TIP3     2604     SWM4     H2       HDW      0.557330       1.00800           0   0.00000       0.00000    
     39229 TIP3     2605     SWM4     OH2      ODW       1.71640       15.5994           0 -0.978253       1.30000    
     39230 TIP3     2605     SWM4     DOH2     DOH2     -1.71640      0.400000           0   0.00000       0.00000    
     39231 TIP3     2605     SWM4     OM       LPDW     -1.11466       0.00000          -1   0.00000       0.00000    
     39232 TIP3     2605     SWM4     H1       HDW      0.557330       1.00800           0   0.00000       0.00000    
     39233 TIP3     2605     SWM4     H2       HDW      0.557330       1.00800           0   0.00000       0.00000    
     39234 TIP3     2606     SWM4     OH2      ODW       1.71640       15.5994           0 -0.978253       1.30000    
     39235 TIP3     2606     SWM4     DOH2     DOH2     -1.71640      0.400000           0   0.00000       0.00000    
     39236 TIP3     2606     SWM4     OM       LPDW     -1.11466       0.00000          -1   0.00000       0.00000    
     39237 TIP3     2606     SWM4     H1       HDW      0.557330       1.00800           0   0.00000       0.00000    
     39238 TIP3     2606     SWM4     H2       HDW      0.557330       1.00800           0   0.00000       0.00000    
     39239 TIP3     2607     SWM4     OH2      ODW       1.71640       15.5994           0 -0.978253       1.30000    
     39240 TIP3     2607     SWM4     DOH2     DOH2     -1.71640      0.400000           0   0.00000       0.00000    
     39241 TIP3     2607     SWM4     OM       LPDW     -1.11466       0.00000          -1   0.00000       0.00000    
     39242 TIP3     2607     SWM4     H1       HDW      0.557330       1.00800           0   0.00000       0.00000    
     39243 TIP3     2607     SWM4     H2       HDW      0.557330       1.00800           0   0.00000       0.00000    
     39244 TIP3     2608     SWM4     OH2      ODW       1.71640       15.5994           0 -0.978253       1.30000    
     39245 TIP3     2608     SWM4     DOH2     DOH2     -1.71640      0.400000           0   0.00000       0.00000    
     39246 TIP3     2608     SWM4     OM       LPDW     -1.11466       0.00000          -1   0.00000       0.00000    
     39247 TIP3     2608     SWM4     H1       HDW      0.557330       1.00800           0   0.00000       0.00000    
     39248 TIP3     2608     SWM4     H2       HDW      0.557330       1.00800           0   0.00000       0.00000    
     39249 TIP3     2609     SWM4     OH2      ODW       1.71640       15.5994           0 -0.978253       1.30000    
     39250 TIP3     2609     SWM4     DOH2     DOH2     -1.71640      0.400000           0   0.00000       0.00000    
     39251 TIP3     2609     SWM4     OM       LPDW     -1.11466       0.00000          -1   0.00000       0.00000    
     39252 TIP3     2609     SWM4     H1       HDW      0.557330       1.00800           0   0.00000       0.00000    
     39253 TIP3     2609     SWM4     H2       HDW      0.557330       1.00800           0   0.00000       0.00000    
     39254 TIP3     2610     SWM4     OH2      ODW       1.71640       15.5994           0 -0.978253       1.30000    
     39255 TIP3     2610     SWM4     DOH2     DOH2     -1.71640      0.400000           0   0.00000       0.00000    
     39256 TIP3     2610     SWM4     OM       LPDW     -1.11466       0.00000          -1   0.00000       0.00000    
     39257 TIP3     2610     SWM4     H1       HDW      0.557330       1.00800           0   0.00000       0.00000    
     39258 TIP3     2610     SWM4     H2       HDW      0.557330       1.00800           0   0.00000       0.00000    
     39259 TIP3     2611     SWM4     OH2      ODW       1.71640       15.5994           0 -0.978253       1.30000    
     39260 TIP3     2611     SWM4     DOH2     DOH2     -1.71640      0.400000           0   0.00000       0.00000    
     39261 TIP3     2611     SWM4     OM       LPDW     -1.11466       0.00000          -1   0.00000       0.00000    
     39262 TIP3     2611     SWM4     H1       HDW      0.557330       1.00800           0   0.00000       0.00000    
     39263 TIP3     2611     SWM4     H2       HDW      0.557330       1.00800           0   0.00000       0.00000    
     39264 TIP3     2612     SWM4     OH2      ODW       1.71640       15.5994           0 -0.978253       1.30000    
     39265 TIP3     2612     SWM4     DOH2     DOH2     -1.71640      0.400000           0   0.00000       0.00000    
     39266 TIP3     2612     SWM4     OM       LPDW     -1.11466       0.00000          -1   0.00000       0.00000    
     39267 TIP3     2612     SWM4     H1       HDW      0.557330       1.00800           0   0.00000       0.00000    
     39268 TIP3     2612     SWM4     H2       HDW      0.557330       1.00800           0   0.00000       0.00000    
     39269 TIP3     2613     SWM4     OH2      ODW       1.71640       15.5994           0 -0.978253       1.30000    
     39270 TIP3     2613     SWM4     DOH2     DOH2     -1.71640      0.400000           0   0.00000       0.00000    
     39271 TIP3     2613     SWM4     OM       LPDW     -1.11466       0.00000          -1   0.00000       0.00000    
     39272 TIP3     2613     SWM4     H1       HDW      0.557330       1.00800           0   0.00000       0.00000    
     39273 TIP3     2613     SWM4     H2       HDW      0.557330       1.00800           0   0.00000       0.00000    
     39274 TIP3     2614     SWM4     OH2      ODW       1.71640       15.5994           0 -0.978253       1.30000    
     39275 TIP3     2614     SWM4     DOH2     DOH2     -1.71640      0.400000           0   0.00000       0.00000    
     39276 TIP3     2614     SWM4     OM       LPDW     -1.11466       0.00000          -1   0.00000       0.00000    
     39277 TIP3     2614     SWM4     H1       HDW      0.557330       1.00800           0   0.00000       0.00000    
     39278 TIP3     2614     SWM4     H2       HDW      0.557330       1.00800           0   0.00000       0.00000    
     39279 TIP3     2615     SWM4     OH2      ODW       1.71640       15.5994           0 -0.978253       1.30000    
     39280 TIP3     2615     SWM4     DOH2     DOH2     -1.71640      0.400000           0   0.00000       0.00000    
     39281 TIP3     2615     SWM4     OM       LPDW     -1.11466       0.00000          -1   0.00000       0.00000    
     39282 TIP3     2615     SWM4     H1       HDW      0.557330       1.00800           0   0.00000       0.00000    
     39283 TIP3     2615     SWM4     H2       HDW      0.557330       1.00800           0   0.00000       0.00000    
     39284 TIP3     2616     SWM4     OH2      ODW       1.71640       15.5994           0 -0.978253       1.30000    
     39285 TIP3     2616     SWM4     DOH2     DOH2     -1.71640      0.400000           0   0.00000       0.00000    
     39286 TIP3     2616     SWM4     OM       LPDW     -1.11466       0.00000          -1   0.00000       0.00000    
     39287 TIP3     2616     SWM4     H1       HDW      0.557330       1.00800           0   0.00000       0.00000    
     39288 TIP3     2616     SWM4     H2       HDW      0.557330       1.00800           0   0.00000       0.00000    
     39289 TIP3     2617     SWM4     OH2      ODW       1.71640       15.5994           0 -0.978253       1.30000    
     39290 TIP3     2617     SWM4     DOH2     DOH2     -1.71640      0.400000           0   0.00000       0.00000    
     39291 TIP3     2617     SWM4     OM       LPDW     -1.11466       0.00000          -1   0.00000       0.00000    
     39292 TIP3     2617     SWM4     H1       HDW      0.557330       1.00800           0   0.00000       0.00000    
     39293 TIP3     2617     SWM4     H2       HDW      0.557330       1.00800           0   0.00000       0.00000    
     39294 TIP3     2618     SWM4     OH2      ODW       1.71640       15.5994           0 -0.978253       1.30000    
     39295 TIP3     2618     SWM4     DOH2     DOH2     -1.71640      0.400000           0   0.00000       0.00000    
     39296 TIP3     2618     SWM4     OM       LPDW     -1.11466       0.00000          -1   0.00000       0.00000    
     39297 TIP3     2618     SWM4     H1       HDW      0.557330       1.00800           0   0.00000       0.00000    
     39298 TIP3     2618     SWM4     H2       HDW      0.557330       1.00800           0   0.00000       0.00000    
     39299 TIP3     2619     SWM4     OH2      ODW       1.71640       15.5994           0 -0.978253       1.30000    
     39300 TIP3     2619     SWM4     DOH2     DOH2     -1.71640      0.400000           0   0.00000       0.00000    
     39301 TIP3     2619     SWM4     OM       LPDW     -1.11466       0.00000          -1   0.00000       0.00000    
     39302 TIP3     2619     SWM4     H1       HDW      0.557330       1.00800           0   0.00000       0.00000    
     39303 TIP3     2619     SWM4     H2       HDW      0.557330       1.00800           0   0.00000       0.00000    
     39304 TIP3     2620     SWM4     OH2      ODW       1.71640       15.5994           0 -0.978253       1.30000    
     39305 TIP3     2620     SWM4     DOH2     DOH2     -1.71640      0.400000           0   0.00000       0.00000    
     39306 TIP3     2620     SWM4     OM       LPDW     -1.11466       0.00000          -1   0.00000       0.00000    
     39307 TIP3     2620     SWM4     H1       HDW      0.557330       1.00800           0   0.00000       0.00000    
     39308 TIP3     2620     SWM4     H2       HDW      0.557330       1.00800           0   0.00000       0.00000    
     39309 TIP3     2621     SWM4     OH2      ODW       1.71640       15.5994           0 -0.978253       1.30000    
     39310 TIP3     2621     SWM4     DOH2     DOH2     -1.71640      0.400000           0   0.00000       0.00000    
     39311 TIP3     2621     SWM4     OM       LPDW     -1.11466       0.00000          -1   0.00000       0.00000    
     39312 TIP3     2621     SWM4     H1       HDW      0.557330       1.00800           0   0.00000       0.00000    
     39313 TIP3     2621     SWM4     H2       HDW      0.557330       1.00800           0   0.00000       0.00000    
     39314 TIP3     2622     SWM4     OH2      ODW       1.71640       15.5994           0 -0.978253       1.30000    
     39315 TIP3     2622     SWM4     DOH2     DOH2     -1.71640      0.400000           0   0.00000       0.00000    
     39316 TIP3     2622     SWM4     OM       LPDW     -1.11466       0.00000          -1   0.00000       0.00000    
     39317 TIP3     2622     SWM4     H1       HDW      0.557330       1.00800           0   0.00000       0.00000    
     39318 TIP3     2622     SWM4     H2       HDW      0.557330       1.00800           0   0.00000       0.00000    
     39319 TIP3     2623     SWM4     OH2      ODW       1.71640       15.5994           0 -0.978253       1.30000    
     39320 TIP3     2623     SWM4     DOH2     DOH2     -1.71640      0.400000           0   0.00000       0.00000    
     39321 TIP3     2623     SWM4     OM       LPDW     -1.11466       0.00000          -1   0.00000       0.00000    
     39322 TIP3     2623     SWM4     H1       HDW      0.557330       1.00800           0   0.00000       0.00000    
     39323 TIP3     2623     SWM4     H2       HDW      0.557330       1.00800           0   0.00000       0.00000    
     39324 TIP3     2624     SWM4     OH2      ODW       1.71640       15.5994           0 -0.978253       1.30000    
     39325 TIP3     2624     SWM4     DOH2     DOH2     -1.71640      0.400000           0   0.00000       0.00000    
     39326 TIP3     2624     SWM4     OM       LPDW     -1.11466       0.00000          -1   0.00000       0.00000    
     39327 TIP3     2624     SWM4     H1       HDW      0.557330       1.00800           0   0.00000       0.00000    
     39328 TIP3     2624     SWM4     H2       HDW      0.557330       1.00800           0   0.00000       0.00000    
     39329 TIP3     2625     SWM4     OH2      ODW       1.71640       15.5994           0 -0.978253       1.30000    
     39330 TIP3     2625     SWM4     DOH2     DOH2     -1.71640      0.400000           0   0.00000       0.00000    
     39331 TIP3     2625     SWM4     OM       LPDW     -1.11466       0.00000          -1   0.00000       0.00000    
     39332 TIP3     2625     SWM4     H1       HDW      0.557330       1.00800           0   0.00000       0.00000    
     39333 TIP3     2625     SWM4     H2       HDW      0.557330       1.00800           0   0.00000       0.00000    
     39334 TIP3     2626     SWM4     OH2      ODW       1.71640       15.5994           0 -0.978253       1.30000    
     39335 TIP3     2626     SWM4     DOH2     DOH2     -1.71640      0.400000           0   0.00000       0.00000    
     39336 TIP3     2626     SWM4     OM       LPDW     -1.11466       0.00000          -1   0.00000       0.00000    
     39337 TIP3     2626     SWM4     H1       HDW      0.557330       1.00800           0   0.00000       0.00000    
     39338 TIP3     2626     SWM4     H2       HDW      0.557330       1.00800           0   0.00000       0.00000    
     39339 TIP3     2627     SWM4     OH2      ODW       1.71640       15.5994           0 -0.978253       1.30000    
     39340 TIP3     2627     SWM4     DOH2     DOH2     -1.71640      0.400000           0   0.00000       0.00000    
     39341 TIP3     2627     SWM4     OM       LPDW     -1.11466       0.00000          -1   0.00000       0.00000    
     39342 TIP3     2627     SWM4     H1       HDW      0.557330       1.00800           0   0.00000       0.00000    
     39343 TIP3     2627     SWM4     H2       HDW      0.557330       1.00800           0   0.00000       0.00000    
     39344 TIP3     2628     SWM4     OH2      ODW       1.71640       15.5994           0 -0.978253       1.30000    
     39345 TIP3     2628     SWM4     DOH2     DOH2     -1.71640      0.400000           0   0.00000       0.00000    
     39346 TIP3     2628     SWM4     OM       LPDW     -1.11466       0.00000          -1   0.00000       0.00000    
     39347 TIP3     2628     SWM4     H1       HDW      0.557330       1.00800           0   0.00000       0.00000    
     39348 TIP3     2628     SWM4     H2       HDW      0.557330       1.00800           0   0.00000       0.00000    
     39349 TIP3     2629     SWM4     OH2      ODW       1.71640       15.5994           0 -0.978253       1.30000    
     39350 TIP3     2629     SWM4     DOH2     DOH2     -1.71640      0.400000           0   0.00000       0.00000    
     39351 TIP3     2629     SWM4     OM       LPDW     -1.11466       0.00000          -1   0.00000       0.00000    
     39352 TIP3     2629     SWM4     H1       HDW      0.557330       1.00800           0   0.00000       0.00000    
     39353 TIP3     2629     SWM4     H2       HDW      0.557330       1.00800           0   0.00000       0.00000    
     39354 TIP3     2630     SWM4     OH2      ODW       1.71640       15.5994           0 -0.978253       1.30000    
     39355 TIP3     2630     SWM4     DOH2     DOH2     -1.71640      0.400000           0   0.00000       0.00000    
     39356 TIP3     2630     SWM4     OM       LPDW     -1.11466       0.00000          -1   0.00000       0.00000    
     39357 TIP3     2630     SWM4     H1       HDW      0.557330       1.00800           0   0.00000       0.00000    
     39358 TIP3     2630     SWM4     H2       HDW      0.557330       1.00800           0   0.00000       0.00000    
     39359 TIP3     2631     SWM4     OH2      ODW       1.71640       15.5994           0 -0.978253       1.30000    
     39360 TIP3     2631     SWM4     DOH2     DOH2     -1.71640      0.400000           0   0.00000       0.00000    
     39361 TIP3     2631     SWM4     OM       LPDW     -1.11466       0.00000          -1   0.00000       0.00000    
     39362 TIP3     2631     SWM4     H1       HDW      0.557330       1.00800           0   0.00000       0.00000    
     39363 TIP3     2631     SWM4     H2       HDW      0.557330       1.00800           0   0.00000       0.00000    
     39364 TIP3     2632     SWM4     OH2      ODW       1.71640       15.5994           0 -0.978253       1.30000    
     39365 TIP3     2632     SWM4     DOH2     DOH2     -1.71640      0.400000           0   0.00000       0.00000    
     39366 TIP3     2632     SWM4     OM       LPDW     -1.11466       0.00000          -1   0.00000       0.00000    
     39367 TIP3     2632     SWM4     H1       HDW      0.557330       1.00800           0   0.00000       0.00000    
     39368 TIP3     2632     SWM4     H2       HDW      0.557330       1.00800           0   0.00000       0.00000    
     39369 TIP3     2633     SWM4     OH2      ODW       1.71640       15.5994           0 -0.978253       1.30000    
     39370 TIP3     2633     SWM4     DOH2     DOH2     -1.71640      0.400000           0   0.00000       0.00000    
     39371 TIP3     2633     SWM4     OM       LPDW     -1.11466       0.00000          -1   0.00000       0.00000    
     39372 TIP3     2633     SWM4     H1       HDW      0.557330       1.00800           0   0.00000       0.00000    
     39373 TIP3     2633     SWM4     H2       HDW      0.557330       1.00800           0   0.00000       0.00000    
     39374 TIP3     2634     SWM4     OH2      ODW       1.71640       15.5994           0 -0.978253       1.30000    
     39375 TIP3     2634     SWM4     DOH2     DOH2     -1.71640      0.400000           0   0.00000       0.00000    
     39376 TIP3     2634     SWM4     OM       LPDW     -1.11466       0.00000          -1   0.00000       0.00000    
     39377 TIP3     2634     SWM4     H1       HDW      0.557330       1.00800           0   0.00000       0.00000    
     39378 TIP3     2634     SWM4     H2       HDW      0.557330       1.00800           0   0.00000       0.00000    
     39379 TIP3     2635     SWM4     OH2      ODW       1.71640       15.5994           0 -0.978253       1.30000    
     39380 TIP3     2635     SWM4     DOH2     DOH2     -1.71640      0.400000           0   0.00000       0.00000    
     39381 TIP3     2635     SWM4     OM       LPDW     -1.11466       0.00000          -1   0.00000       0.00000    
     39382 TIP3     2635     SWM4     H1       HDW      0.557330       1.00800           0   0.00000       0.00000    
     39383 TIP3     2635     SWM4     H2       HDW      0.557330       1.00800           0   0.00000       0.00000    
     39384 TIP3     2636     SWM4     OH2      ODW       1.71640       15.5994           0 -0.978253       1.30000    
     39385 TIP3     2636     SWM4     DOH2     DOH2     -1.71640      0.400000           0   0.00000       0.00000    
     39386 TIP3     2636     SWM4     OM       LPDW     -1.11466       0.00000          -1   0.00000       0.00000    
     39387 TIP3     2636     SWM4     H1       HDW      0.557330       1.00800           0   0.00000       0.00000    
     39388 TIP3     2636     SWM4     H2       HDW      0.557330       1.00800           0   0.00000       0.00000    
     39389 TIP3     2637     SWM4     OH2      ODW       1.71640       15.5994           0 -0.978253       1.30000    
     39390 TIP3     2637     SWM4     DOH2     DOH2     -1.71640      0.400000           0   0.00000       0.00000    
     39391 TIP3     2637     SWM4     OM       LPDW     -1.11466       0.00000          -1   0.00000       0.00000    
     39392 TIP3     2637     SWM4     H1       HDW      0.557330       1.00800           0   0.00000       0.00000    
     39393 TIP3     2637     SWM4     H2       HDW      0.557330       1.00800           0   0.00000       0.00000    
     39394 TIP3     2638     SWM4     OH2      ODW       1.71640       15.5994           0 -0.978253       1.30000    
     39395 TIP3     2638     SWM4     DOH2     DOH2     -1.71640      0.400000           0   0.00000       0.00000    
     39396 TIP3     2638     SWM4     OM       LPDW     -1.11466       0.00000          -1   0.00000       0.00000    
     39397 TIP3     2638     SWM4     H1       HDW      0.557330       1.00800           0   0.00000       0.00000    
     39398 TIP3     2638     SWM4     H2       HDW      0.557330       1.00800           0   0.00000       0.00000    
     39399 TIP3     2639     SWM4     OH2      ODW       1.71640       15.5994           0 -0.978253       1.30000    
     39400 TIP3     2639     SWM4     DOH2     DOH2     -1.71640      0.400000           0   0.00000       0.00000    
     39401 TIP3     2639     SWM4     OM       LPDW     -1.11466       0.00000          -1   0.00000       0.00000    
     39402 TIP3     2639     SWM4     H1       HDW      0.557330       1.00800           0   0.00000       0.00000    
     39403 TIP3     2639     SWM4     H2       HDW      0.557330       1.00800           0   0.00000       0.00000    
     39404 TIP3     2640     SWM4     OH2      ODW       1.71640       15.5994           0 -0.978253       1.30000    
     39405 TIP3     2640     SWM4     DOH2     DOH2     -1.71640      0.400000           0   0.00000       0.00000    
     39406 TIP3     2640     SWM4     OM       LPDW     -1.11466       0.00000          -1   0.00000       0.00000    
     39407 TIP3     2640     SWM4     H1       HDW      0.557330       1.00800           0   0.00000       0.00000    
     39408 TIP3     2640     SWM4     H2       HDW      0.557330       1.00800           0   0.00000       0.00000    
     39409 TIP3     2641     SWM4     OH2      ODW       1.71640       15.5994           0 -0.978253       1.30000    
     39410 TIP3     2641     SWM4     DOH2     DOH2     -1.71640      0.400000           0   0.00000       0.00000    
     39411 TIP3     2641     SWM4     OM       LPDW     -1.11466       0.00000          -1   0.00000       0.00000    
     39412 TIP3     2641     SWM4     H1       HDW      0.557330       1.00800           0   0.00000       0.00000    
     39413 TIP3     2641     SWM4     H2       HDW      0.557330       1.00800           0   0.00000       0.00000    
     39414 TIP3     2642     SWM4     OH2      ODW       1.71640       15.5994           0 -0.978253       1.30000    
     39415 TIP3     2642     SWM4     DOH2     DOH2     -1.71640      0.400000           0   0.00000       0.00000    
     39416 TIP3     2642     SWM4     OM       LPDW     -1.11466       0.00000          -1   0.00000       0.00000    
     39417 TIP3     2642     SWM4     H1       HDW      0.557330       1.00800           0   0.00000       0.00000    
     39418 TIP3     2642     SWM4     H2       HDW      0.557330       1.00800           0   0.00000       0.00000    
     39419 TIP3     2643     SWM4     OH2      ODW       1.71640       15.5994           0 -0.978253       1.30000    
     39420 TIP3     2643     SWM4     DOH2     DOH2     -1.71640      0.400000           0   0.00000       0.00000    
     39421 TIP3     2643     SWM4     OM       LPDW     -1.11466       0.00000          -1   0.00000       0.00000    
     39422 TIP3     2643     SWM4     H1       HDW      0.557330       1.00800           0   0.00000       0.00000    
     39423 TIP3     2643     SWM4     H2       HDW      0.557330       1.00800           0   0.00000       0.00000    
     39424 TIP3     2644     SWM4     OH2      ODW       1.71640       15.5994           0 -0.978253       1.30000    
     39425 TIP3     2644     SWM4     DOH2     DOH2     -1.71640      0.400000           0   0.00000       0.00000    
     39426 TIP3     2644     SWM4     OM       LPDW     -1.11466       0.00000          -1   0.00000       0.00000    
     39427 TIP3     2644     SWM4     H1       HDW      0.557330       1.00800           0   0.00000       0.00000    
     39428 TIP3     2644     SWM4     H2       HDW      0.557330       1.00800           0   0.00000       0.00000    
     39429 TIP3     2645     SWM4     OH2      ODW       1.71640       15.5994           0 -0.978253       1.30000    
     39430 TIP3     2645     SWM4     DOH2     DOH2     -1.71640      0.400000           0   0.00000       0.00000    
     39431 TIP3     2645     SWM4     OM       LPDW     -1.11466       0.00000          -1   0.00000       0.00000    
     39432 TIP3     2645     SWM4     H1       HDW      0.557330       1.00800           0   0.00000       0.00000    
     39433 TIP3     2645     SWM4     H2       HDW      0.557330       1.00800           0   0.00000       0.00000    
     39434 TIP3     2646     SWM4     OH2      ODW       1.71640       15.5994           0 -0.978253       1.30000    
     39435 TIP3     2646     SWM4     DOH2     DOH2     -1.71640      0.400000           0   0.00000       0.00000    
     39436 TIP3     2646     SWM4     OM       LPDW     -1.11466       0.00000          -1   0.00000       0.00000    
     39437 TIP3     2646     SWM4     H1       HDW      0.557330       1.00800           0   0.00000       0.00000    
     39438 TIP3     2646     SWM4     H2       HDW      0.557330       1.00800           0   0.00000       0.00000    
     39439 TIP3     2647     SWM4     OH2      ODW       1.71640       15.5994           0 -0.978253       1.30000    
     39440 TIP3     2647     SWM4     DOH2     DOH2     -1.71640      0.400000           0   0.00000       0.00000    
     39441 TIP3     2647     SWM4     OM       LPDW     -1.11466       0.00000          -1   0.00000       0.00000    
     39442 TIP3     2647     SWM4     H1       HDW      0.557330       1.00800           0   0.00000       0.00000    
     39443 TIP3     2647     SWM4     H2       HDW      0.557330       1.00800           0   0.00000       0.00000    
     39444 TIP3     2648     SWM4     OH2      ODW       1.71640       15.5994           0 -0.978253       1.30000    
     39445 TIP3     2648     SWM4     DOH2     DOH2     -1.71640      0.400000           0   0.00000       0.00000    
     39446 TIP3     2648     SWM4     OM       LPDW     -1.11466       0.00000          -1   0.00000       0.00000    
     39447 TIP3     2648     SWM4     H1       HDW      0.557330       1.00800           0   0.00000       0.00000    
     39448 TIP3     2648     SWM4     H2       HDW      0.557330       1.00800           0   0.00000       0.00000    
     39449 TIP3     2649     SWM4     OH2      ODW       1.71640       15.5994           0 -0.978253       1.30000    
     39450 TIP3     2649     SWM4     DOH2     DOH2     -1.71640      0.400000           0   0.00000       0.00000    
     39451 TIP3     2649     SWM4     OM       LPDW     -1.11466       0.00000          -1   0.00000       0.00000    
     39452 TIP3     2649     SWM4     H1       HDW      0.557330       1.00800           0   0.00000       0.00000    
     39453 TIP3     2649     SWM4     H2       HDW      0.557330       1.00800           0   0.00000       0.00000    
     39454 TIP3     2650     SWM4     OH2      ODW       1.71640       15.5994           0 -0.978253       1.30000    
     39455 TIP3     2650     SWM4     DOH2     DOH2     -1.71640      0.400000           0   0.00000       0.00000    
     39456 TIP3     2650     SWM4     OM       LPDW     -1.11466       0.00000          -1   0.00000       0.00000    
     39457 TIP3     2650     SWM4     H1       HDW      0.557330       1.00800           0   0.00000       0.00000    
     39458 TIP3     2650     SWM4     H2       HDW      0.557330       1.00800           0   0.00000       0.00000    
     39459 TIP3     2651     SWM4     OH2      ODW       1.71640       15.5994           0 -0.978253       1.30000    
     39460 TIP3     2651     SWM4     DOH2     DOH2     -1.71640      0.400000           0   0.00000       0.00000    
     39461 TIP3     2651     SWM4     OM       LPDW     -1.11466       0.00000          -1   0.00000       0.00000    
     39462 TIP3     2651     SWM4     H1       HDW      0.557330       1.00800           0   0.00000       0.00000    
     39463 TIP3     2651     SWM4     H2       HDW      0.557330       1.00800           0   0.00000       0.00000    
     39464 TIP3     2652     SWM4     OH2      ODW       1.71640       15.5994           0 -0.978253       1.30000    
     39465 TIP3     2652     SWM4     DOH2     DOH2     -1.71640      0.400000           0   0.00000       0.00000    
     39466 TIP3     2652     SWM4     OM       LPDW     -1.11466       0.00000          -1   0.00000       0.00000    
     39467 TIP3     2652     SWM4     H1       HDW      0.557330       1.00800           0   0.00000       0.00000    
     39468 TIP3     2652     SWM4     H2       HDW      0.557330       1.00800           0   0.00000       0.00000    
     39469 TIP3     2653     SWM4     OH2      ODW       1.71640       15.5994           0 -0.978253       1.30000    
     39470 TIP3     2653     SWM4     DOH2     DOH2     -1.71640      0.400000           0   0.00000       0.00000    
     39471 TIP3     2653     SWM4     OM       LPDW     -1.11466       0.00000          -1   0.00000       0.00000    
     39472 TIP3     2653     SWM4     H1       HDW      0.557330       1.00800           0   0.00000       0.00000    
     39473 TIP3     2653     SWM4     H2       HDW      0.557330       1.00800           0   0.00000       0.00000    
     39474 TIP3     2654     SWM4     OH2      ODW       1.71640       15.5994           0 -0.978253       1.30000    
     39475 TIP3     2654     SWM4     DOH2     DOH2     -1.71640      0.400000           0   0.00000       0.00000    
     39476 TIP3     2654     SWM4     OM       LPDW     -1.11466       0.00000          -1   0.00000       0.00000    
     39477 TIP3     2654     SWM4     H1       HDW      0.557330       1.00800           0   0.00000       0.00000    
     39478 TIP3     2654     SWM4     H2       HDW      0.557330       1.00800           0   0.00000       0.00000    
     39479 TIP3     2655     SWM4     OH2      ODW       1.71640       15.5994           0 -0.978253       1.30000    
     39480 TIP3     2655     SWM4     DOH2     DOH2     -1.71640      0.400000           0   0.00000       0.00000    
     39481 TIP3     2655     SWM4     OM       LPDW     -1.11466       0.00000          -1   0.00000       0.00000    
     39482 TIP3     2655     SWM4     H1       HDW      0.557330       1.00800           0   0.00000       0.00000    
     39483 TIP3     2655     SWM4     H2       HDW      0.557330       1.00800           0   0.00000       0.00000    
     39484 TIP3     2656     SWM4     OH2      ODW       1.71640       15.5994           0 -0.978253       1.30000    
     39485 TIP3     2656     SWM4     DOH2     DOH2     -1.71640      0.400000           0   0.00000       0.00000    
     39486 TIP3     2656     SWM4     OM       LPDW     -1.11466       0.00000          -1   0.00000       0.00000    
     39487 TIP3     2656     SWM4     H1       HDW      0.557330       1.00800           0   0.00000       0.00000    
     39488 TIP3     2656     SWM4     H2       HDW      0.557330       1.00800           0   0.00000       0.00000    
     39489 TIP3     2657     SWM4     OH2      ODW       1.71640       15.5994           0 -0.978253       1.30000    
     39490 TIP3     2657     SWM4     DOH2     DOH2     -1.71640      0.400000           0   0.00000       0.00000    
     39491 TIP3     2657     SWM4     OM       LPDW     -1.11466       0.00000          -1   0.00000       0.00000    
     39492 TIP3     2657     SWM4     H1       HDW      0.557330       1.00800           0   0.00000       0.00000    
     39493 TIP3     2657     SWM4     H2       HDW      0.557330       1.00800           0   0.00000       0.00000    
     39494 TIP3     2658     SWM4     OH2      ODW       1.71640       15.5994           0 -0.978253       1.30000    
     39495 TIP3     2658     SWM4     DOH2     DOH2     -1.71640      0.400000           0   0.00000       0.00000    
     39496 TIP3     2658     SWM4     OM       LPDW     -1.11466       0.00000          -1   0.00000       0.00000    
     39497 TIP3     2658     SWM4     H1       HDW      0.557330       1.00800           0   0.00000       0.00000    
     39498 TIP3     2658     SWM4     H2       HDW      0.557330       1.00800           0   0.00000       0.00000    
     39499 TIP3     2659     SWM4     OH2      ODW       1.71640       15.5994           0 -0.978253       1.30000    
     39500 TIP3     2659     SWM4     DOH2     DOH2     -1.71640      0.400000           0   0.00000       0.00000    
     39501 TIP3     2659     SWM4     OM       LPDW     -1.11466       0.00000          -1   0.00000       0.00000    
     39502 TIP3     2659     SWM4     H1       HDW      0.557330       1.00800           0   0.00000       0.00000    
     39503 TIP3     2659     SWM4     H2       HDW      0.557330       1.00800           0   0.00000       0.00000    
     39504 TIP3     2660     SWM4     OH2      ODW       1.71640       15.5994           0 -0.978253       1.30000    
     39505 TIP3     2660     SWM4     DOH2     DOH2     -1.71640      0.400000           0   0.00000       0.00000    
     39506 TIP3     2660     SWM4     OM       LPDW     -1.11466       0.00000          -1   0.00000       0.00000    
     39507 TIP3     2660     SWM4     H1       HDW      0.557330       1.00800           0   0.00000       0.00000    
     39508 TIP3     2660     SWM4     H2       HDW      0.557330       1.00800           0   0.00000       0.00000    
     39509 TIP3     2661     SWM4     OH2      ODW       1.71640       15.5994           0 -0.978253       1.30000    
     39510 TIP3     2661     SWM4     DOH2     DOH2     -1.71640      0.400000           0   0.00000       0.00000    
     39511 TIP3     2661     SWM4     OM       LPDW     -1.11466       0.00000          -1   0.00000       0.00000    
     39512 TIP3     2661     SWM4     H1       HDW      0.557330       1.00800           0   0.00000       0.00000    
     39513 TIP3     2661     SWM4     H2       HDW      0.557330       1.00800           0   0.00000       0.00000    
     39514 TIP3     2662     SWM4     OH2      ODW       1.71640       15.5994           0 -0.978253       1.30000    
     39515 TIP3     2662     SWM4     DOH2     DOH2     -1.71640      0.400000           0   0.00000       0.00000    
     39516 TIP3     2662     SWM4     OM       LPDW     -1.11466       0.00000          -1   0.00000       0.00000    
     39517 TIP3     2662     SWM4     H1       HDW      0.557330       1.00800           0   0.00000       0.00000    
     39518 TIP3     2662     SWM4     H2       HDW      0.557330       1.00800           0   0.00000       0.00000    
     39519 TIP3     2663     SWM4     OH2      ODW       1.71640       15.5994           0 -0.978253       1.30000    
     39520 TIP3     2663     SWM4     DOH2     DOH2     -1.71640      0.400000           0   0.00000       0.00000    
     39521 TIP3     2663     SWM4     OM       LPDW     -1.11466       0.00000          -1   0.00000       0.00000    
     39522 TIP3     2663     SWM4     H1       HDW      0.557330       1.00800           0   0.00000       0.00000    
     39523 TIP3     2663     SWM4     H2       HDW      0.557330       1.00800           0   0.00000       0.00000    
     39524 TIP3     2664     SWM4     OH2      ODW       1.71640       15.5994           0 -0.978253       1.30000    
     39525 TIP3     2664     SWM4     DOH2     DOH2     -1.71640      0.400000           0   0.00000       0.00000    
     39526 TIP3     2664     SWM4     OM       LPDW     -1.11466       0.00000          -1   0.00000       0.00000    
     39527 TIP3     2664     SWM4     H1       HDW      0.557330       1.00800           0   0.00000       0.00000    
     39528 TIP3     2664     SWM4     H2       HDW      0.557330       1.00800           0   0.00000       0.00000    
     39529 TIP3     2665     SWM4     OH2      ODW       1.71640       15.5994           0 -0.978253       1.30000    
     39530 TIP3     2665     SWM4     DOH2     DOH2     -1.71640      0.400000           0   0.00000       0.00000    
     39531 TIP3     2665     SWM4     OM       LPDW     -1.11466       0.00000          -1   0.00000       0.00000    
     39532 TIP3     2665     SWM4     H1       HDW      0.557330       1.00800           0   0.00000       0.00000    
     39533 TIP3     2665     SWM4     H2       HDW      0.557330       1.00800           0   0.00000       0.00000    
     39534 TIP3     2666     SWM4     OH2      ODW       1.71640       15.5994           0 -0.978253       1.30000    
     39535 TIP3     2666     SWM4     DOH2     DOH2     -1.71640      0.400000           0   0.00000       0.00000    
     39536 TIP3     2666     SWM4     OM       LPDW     -1.11466       0.00000          -1   0.00000       0.00000    
     39537 TIP3     2666     SWM4     H1       HDW      0.557330       1.00800           0   0.00000       0.00000    
     39538 TIP3     2666     SWM4     H2       HDW      0.557330       1.00800           0   0.00000       0.00000    
     39539 TIP3     2667     SWM4     OH2      ODW       1.71640       15.5994           0 -0.978253       1.30000    
     39540 TIP3     2667     SWM4     DOH2     DOH2     -1.71640      0.400000           0   0.00000       0.00000    
     39541 TIP3     2667     SWM4     OM       LPDW     -1.11466       0.00000          -1   0.00000       0.00000    
     39542 TIP3     2667     SWM4     H1       HDW      0.557330       1.00800           0   0.00000       0.00000    
     39543 TIP3     2667     SWM4     H2       HDW      0.557330       1.00800           0   0.00000       0.00000    
     39544 TIP3     2668     SWM4     OH2      ODW       1.71640       15.5994           0 -0.978253       1.30000    
     39545 TIP3     2668     SWM4     DOH2     DOH2     -1.71640      0.400000           0   0.00000       0.00000    
     39546 TIP3     2668     SWM4     OM       LPDW     -1.11466       0.00000          -1   0.00000       0.00000    
     39547 TIP3     2668     SWM4     H1       HDW      0.557330       1.00800           0   0.00000       0.00000    
     39548 TIP3     2668     SWM4     H2       HDW      0.557330       1.00800           0   0.00000       0.00000    
     39549 TIP3     2669     SWM4     OH2      ODW       1.71640       15.5994           0 -0.978253       1.30000    
     39550 TIP3     2669     SWM4     DOH2     DOH2     -1.71640      0.400000           0   0.00000       0.00000    
     39551 TIP3     2669     SWM4     OM       LPDW     -1.11466       0.00000          -1   0.00000       0.00000    
     39552 TIP3     2669     SWM4     H1       HDW      0.557330       1.00800           0   0.00000       0.00000    
     39553 TIP3     2669     SWM4     H2       HDW      0.557330       1.00800           0   0.00000       0.00000    
     39554 TIP3     2670     SWM4     OH2      ODW       1.71640       15.5994           0 -0.978253       1.30000    
     39555 TIP3     2670     SWM4     DOH2     DOH2     -1.71640      0.400000           0   0.00000       0.00000    
     39556 TIP3     2670     SWM4     OM       LPDW     -1.11466       0.00000          -1   0.00000       0.00000    
     39557 TIP3     2670     SWM4     H1       HDW      0.557330       1.00800           0   0.00000       0.00000    
     39558 TIP3     2670     SWM4     H2       HDW      0.557330       1.00800           0   0.00000       0.00000    
     39559 TIP3     2671     SWM4     OH2      ODW       1.71640       15.5994           0 -0.978253       1.30000    
     39560 TIP3     2671     SWM4     DOH2     DOH2     -1.71640      0.400000           0   0.00000       0.00000    
     39561 TIP3     2671     SWM4     OM       LPDW     -1.11466       0.00000          -1   0.00000       0.00000    
     39562 TIP3     2671     SWM4     H1       HDW      0.557330       1.00800           0   0.00000       0.00000    
     39563 TIP3     2671     SWM4     H2       HDW      0.557330       1.00800           0   0.00000       0.00000    
     39564 TIP3     2672     SWM4     OH2      ODW       1.71640       15.5994           0 -0.978253       1.30000    
     39565 TIP3     2672     SWM4     DOH2     DOH2     -1.71640      0.400000           0   0.00000       0.00000    
     39566 TIP3     2672     SWM4     OM       LPDW     -1.11466       0.00000          -1   0.00000       0.00000    
     39567 TIP3     2672     SWM4     H1       HDW      0.557330       1.00800           0   0.00000       0.00000    
     39568 TIP3     2672     SWM4     H2       HDW      0.557330       1.00800           0   0.00000       0.00000    
     39569 TIP3     2673     SWM4     OH2      ODW       1.71640       15.5994           0 -0.978253       1.30000    
     39570 TIP3     2673     SWM4     DOH2     DOH2     -1.71640      0.400000           0   0.00000       0.00000    
     39571 TIP3     2673     SWM4     OM       LPDW     -1.11466       0.00000          -1   0.00000       0.00000    
     39572 TIP3     2673     SWM4     H1       HDW      0.557330       1.00800           0   0.00000       0.00000    
     39573 TIP3     2673     SWM4     H2       HDW      0.557330       1.00800           0   0.00000       0.00000    
     39574 TIP3     2674     SWM4     OH2      ODW       1.71640       15.5994           0 -0.978253       1.30000    
     39575 TIP3     2674     SWM4     DOH2     DOH2     -1.71640      0.400000           0   0.00000       0.00000    
     39576 TIP3     2674     SWM4     OM       LPDW     -1.11466       0.00000          -1   0.00000       0.00000    
     39577 TIP3     2674     SWM4     H1       HDW      0.557330       1.00800           0   0.00000       0.00000    
     39578 TIP3     2674     SWM4     H2       HDW      0.557330       1.00800           0   0.00000       0.00000    
     39579 TIP3     2675     SWM4     OH2      ODW       1.71640       15.5994           0 -0.978253       1.30000    
     39580 TIP3     2675     SWM4     DOH2     DOH2     -1.71640      0.400000           0   0.00000       0.00000    
     39581 TIP3     2675     SWM4     OM       LPDW     -1.11466       0.00000          -1   0.00000       0.00000    
     39582 TIP3     2675     SWM4     H1       HDW      0.557330       1.00800           0   0.00000       0.00000    
     39583 TIP3     2675     SWM4     H2       HDW      0.557330       1.00800           0   0.00000       0.00000    
     39584 TIP3     2676     SWM4     OH2      ODW       1.71640       15.5994           0 -0.978253       1.30000    
     39585 TIP3     2676     SWM4     DOH2     DOH2     -1.71640      0.400000           0   0.00000       0.00000    
     39586 TIP3     2676     SWM4     OM       LPDW     -1.11466       0.00000          -1   0.00000       0.00000    
     39587 TIP3     2676     SWM4     H1       HDW      0.557330       1.00800           0   0.00000       0.00000    
     39588 TIP3     2676     SWM4     H2       HDW      0.557330       1.00800           0   0.00000       0.00000    
     39589 TIP3     2677     SWM4     OH2      ODW       1.71640       15.5994           0 -0.978253       1.30000    
     39590 TIP3     2677     SWM4     DOH2     DOH2     -1.71640      0.400000           0   0.00000       0.00000    
     39591 TIP3     2677     SWM4     OM       LPDW     -1.11466       0.00000          -1   0.00000       0.00000    
     39592 TIP3     2677     SWM4     H1       HDW      0.557330       1.00800           0   0.00000       0.00000    
     39593 TIP3     2677     SWM4     H2       HDW      0.557330       1.00800           0   0.00000       0.00000    
     39594 TIP3     2678     SWM4     OH2      ODW       1.71640       15.5994           0 -0.978253       1.30000    
     39595 TIP3     2678     SWM4     DOH2     DOH2     -1.71640      0.400000           0   0.00000       0.00000    
     39596 TIP3     2678     SWM4     OM       LPDW     -1.11466       0.00000          -1   0.00000       0.00000    
     39597 TIP3     2678     SWM4     H1       HDW      0.557330       1.00800           0   0.00000       0.00000    
     39598 TIP3     2678     SWM4     H2       HDW      0.557330       1.00800           0   0.00000       0.00000    
     39599 TIP3     2679     SWM4     OH2      ODW       1.71640       15.5994           0 -0.978253       1.30000    
     39600 TIP3     2679     SWM4     DOH2     DOH2     -1.71640      0.400000           0   0.00000       0.00000    
     39601 TIP3     2679     SWM4     OM       LPDW     -1.11466       0.00000          -1   0.00000       0.00000    
     39602 TIP3     2679     SWM4     H1       HDW      0.557330       1.00800           0   0.00000       0.00000    
     39603 TIP3     2679     SWM4     H2       HDW      0.557330       1.00800           0   0.00000       0.00000    
     39604 TIP3     2680     SWM4     OH2      ODW       1.71640       15.5994           0 -0.978253       1.30000    
     39605 TIP3     2680     SWM4     DOH2     DOH2     -1.71640      0.400000           0   0.00000       0.00000    
     39606 TIP3     2680     SWM4     OM       LPDW     -1.11466       0.00000          -1   0.00000       0.00000    
     39607 TIP3     2680     SWM4     H1       HDW      0.557330       1.00800           0   0.00000       0.00000    
     39608 TIP3     2680     SWM4     H2       HDW      0.557330       1.00800           0   0.00000       0.00000    
     39609 TIP3     2681     SWM4     OH2      ODW       1.71640       15.5994           0 -0.978253       1.30000    
     39610 TIP3     2681     SWM4     DOH2     DOH2     -1.71640      0.400000           0   0.00000       0.00000    
     39611 TIP3     2681     SWM4     OM       LPDW     -1.11466       0.00000          -1   0.00000       0.00000    
     39612 TIP3     2681     SWM4     H1       HDW      0.557330       1.00800           0   0.00000       0.00000    
     39613 TIP3     2681     SWM4     H2       HDW      0.557330       1.00800           0   0.00000       0.00000    
     39614 TIP3     2682     SWM4     OH2      ODW       1.71640       15.5994           0 -0.978253       1.30000    
     39615 TIP3     2682     SWM4     DOH2     DOH2     -1.71640      0.400000           0   0.00000       0.00000    
     39616 TIP3     2682     SWM4     OM       LPDW     -1.11466       0.00000          -1   0.00000       0.00000    
     39617 TIP3     2682     SWM4     H1       HDW      0.557330       1.00800           0   0.00000       0.00000    
     39618 TIP3     2682     SWM4     H2       HDW      0.557330       1.00800           0   0.00000       0.00000    
     39619 TIP3     2683     SWM4     OH2      ODW       1.71640       15.5994           0 -0.978253       1.30000    
     39620 TIP3     2683     SWM4     DOH2     DOH2     -1.71640      0.400000           0   0.00000       0.00000    
     39621 TIP3     2683     SWM4     OM       LPDW     -1.11466       0.00000          -1   0.00000       0.00000    
     39622 TIP3     2683     SWM4     H1       HDW      0.557330       1.00800           0   0.00000       0.00000    
     39623 TIP3     2683     SWM4     H2       HDW      0.557330       1.00800           0   0.00000       0.00000    
     39624 TIP3     2684     SWM4     OH2      ODW       1.71640       15.5994           0 -0.978253       1.30000    
     39625 TIP3     2684     SWM4     DOH2     DOH2     -1.71640      0.400000           0   0.00000       0.00000    
     39626 TIP3     2684     SWM4     OM       LPDW     -1.11466       0.00000          -1   0.00000       0.00000    
     39627 TIP3     2684     SWM4     H1       HDW      0.557330       1.00800           0   0.00000       0.00000    
     39628 TIP3     2684     SWM4     H2       HDW      0.557330       1.00800           0   0.00000       0.00000    
     39629 TIP3     2685     SWM4     OH2      ODW       1.71640       15.5994           0 -0.978253       1.30000    
     39630 TIP3     2685     SWM4     DOH2     DOH2     -1.71640      0.400000           0   0.00000       0.00000    
     39631 TIP3     2685     SWM4     OM       LPDW     -1.11466       0.00000          -1   0.00000       0.00000    
     39632 TIP3     2685     SWM4     H1       HDW      0.557330       1.00800           0   0.00000       0.00000    
     39633 TIP3     2685     SWM4     H2       HDW      0.557330       1.00800           0   0.00000       0.00000    
     39634 TIP3     2686     SWM4     OH2      ODW       1.71640       15.5994           0 -0.978253       1.30000    
     39635 TIP3     2686     SWM4     DOH2     DOH2     -1.71640      0.400000           0   0.00000       0.00000    
     39636 TIP3     2686     SWM4     OM       LPDW     -1.11466       0.00000          -1   0.00000       0.00000    
     39637 TIP3     2686     SWM4     H1       HDW      0.557330       1.00800           0   0.00000       0.00000    
     39638 TIP3     2686     SWM4     H2       HDW      0.557330       1.00800           0   0.00000       0.00000    
     39639 TIP3     2687     SWM4     OH2      ODW       1.71640       15.5994           0 -0.978253       1.30000    
     39640 TIP3     2687     SWM4     DOH2     DOH2     -1.71640      0.400000           0   0.00000       0.00000    
     39641 TIP3     2687     SWM4     OM       LPDW     -1.11466       0.00000          -1   0.00000       0.00000    
     39642 TIP3     2687     SWM4     H1       HDW      0.557330       1.00800           0   0.00000       0.00000    
     39643 TIP3     2687     SWM4     H2       HDW      0.557330       1.00800           0   0.00000       0.00000    
     39644 TIP3     2688     SWM4     OH2      ODW       1.71640       15.5994           0 -0.978253       1.30000    
     39645 TIP3     2688     SWM4     DOH2     DOH2     -1.71640      0.400000           0   0.00000       0.00000    
     39646 TIP3     2688     SWM4     OM       LPDW     -1.11466       0.00000          -1   0.00000       0.00000    
     39647 TIP3     2688     SWM4     H1       HDW      0.557330       1.00800           0   0.00000       0.00000    
     39648 TIP3     2688     SWM4     H2       HDW      0.557330       1.00800           0   0.00000       0.00000    
     39649 TIP3     2689     SWM4     OH2      ODW       1.71640       15.5994           0 -0.978253       1.30000    
     39650 TIP3     2689     SWM4     DOH2     DOH2     -1.71640      0.400000           0   0.00000       0.00000    
     39651 TIP3     2689     SWM4     OM       LPDW     -1.11466       0.00000          -1   0.00000       0.00000    
     39652 TIP3     2689     SWM4     H1       HDW      0.557330       1.00800           0   0.00000       0.00000    
     39653 TIP3     2689     SWM4     H2       HDW      0.557330       1.00800           0   0.00000       0.00000    
     39654 TIP3     2690     SWM4     OH2      ODW       1.71640       15.5994           0 -0.978253       1.30000    
     39655 TIP3     2690     SWM4     DOH2     DOH2     -1.71640      0.400000           0   0.00000       0.00000    
     39656 TIP3     2690     SWM4     OM       LPDW     -1.11466       0.00000          -1   0.00000       0.00000    
     39657 TIP3     2690     SWM4     H1       HDW      0.557330       1.00800           0   0.00000       0.00000    
     39658 TIP3     2690     SWM4     H2       HDW      0.557330       1.00800           0   0.00000       0.00000    
     39659 TIP3     2691     SWM4     OH2      ODW       1.71640       15.5994           0 -0.978253       1.30000    
     39660 TIP3     2691     SWM4     DOH2     DOH2     -1.71640      0.400000           0   0.00000       0.00000    
     39661 TIP3     2691     SWM4     OM       LPDW     -1.11466       0.00000          -1   0.00000       0.00000    
     39662 TIP3     2691     SWM4     H1       HDW      0.557330       1.00800           0   0.00000       0.00000    
     39663 TIP3     2691     SWM4     H2       HDW      0.557330       1.00800           0   0.00000       0.00000    
     39664 TIP3     2692     SWM4     OH2      ODW       1.71640       15.5994           0 -0.978253       1.30000    
     39665 TIP3     2692     SWM4     DOH2     DOH2     -1.71640      0.400000           0   0.00000       0.00000    
     39666 TIP3     2692     SWM4     OM       LPDW     -1.11466       0.00000          -1   0.00000       0.00000    
     39667 TIP3     2692     SWM4     H1       HDW      0.557330       1.00800           0   0.00000       0.00000    
     39668 TIP3     2692     SWM4     H2       HDW      0.557330       1.00800           0   0.00000       0.00000    
     39669 TIP3     2693     SWM4     OH2      ODW       1.71640       15.5994           0 -0.978253       1.30000    
     39670 TIP3     2693     SWM4     DOH2     DOH2     -1.71640      0.400000           0   0.00000       0.00000    
     39671 TIP3     2693     SWM4     OM       LPDW     -1.11466       0.00000          -1   0.00000       0.00000    
     39672 TIP3     2693     SWM4     H1       HDW      0.557330       1.00800           0   0.00000       0.00000    
     39673 TIP3     2693     SWM4     H2       HDW      0.557330       1.00800           0   0.00000       0.00000    
     39674 TIP3     2694     SWM4     OH2      ODW       1.71640       15.5994           0 -0.978253       1.30000    
     39675 TIP3     2694     SWM4     DOH2     DOH2     -1.71640      0.400000           0   0.00000       0.00000    
     39676 TIP3     2694     SWM4     OM       LPDW     -1.11466       0.00000          -1   0.00000       0.00000    
     39677 TIP3     2694     SWM4     H1       HDW      0.557330       1.00800           0   0.00000       0.00000    
     39678 TIP3     2694     SWM4     H2       HDW      0.557330       1.00800           0   0.00000       0.00000    
     39679 TIP3     2695     SWM4     OH2      ODW       1.71640       15.5994           0 -0.978253       1.30000    
     39680 TIP3     2695     SWM4     DOH2     DOH2     -1.71640      0.400000           0   0.00000       0.00000    
     39681 TIP3     2695     SWM4     OM       LPDW     -1.11466       0.00000          -1   0.00000       0.00000    
     39682 TIP3     2695     SWM4     H1       HDW      0.557330       1.00800           0   0.00000       0.00000    
     39683 TIP3     2695     SWM4     H2       HDW      0.557330       1.00800           0   0.00000       0.00000    
     39684 TIP3     2696     SWM4     OH2      ODW       1.71640       15.5994           0 -0.978253       1.30000    
     39685 TIP3     2696     SWM4     DOH2     DOH2     -1.71640      0.400000           0   0.00000       0.00000    
     39686 TIP3     2696     SWM4     OM       LPDW     -1.11466       0.00000          -1   0.00000       0.00000    
     39687 TIP3     2696     SWM4     H1       HDW      0.557330       1.00800           0   0.00000       0.00000    
     39688 TIP3     2696     SWM4     H2       HDW      0.557330       1.00800           0   0.00000       0.00000    
     39689 TIP3     2697     SWM4     OH2      ODW       1.71640       15.5994           0 -0.978253       1.30000    
     39690 TIP3     2697     SWM4     DOH2     DOH2     -1.71640      0.400000           0   0.00000       0.00000    
     39691 TIP3     2697     SWM4     OM       LPDW     -1.11466       0.00000          -1   0.00000       0.00000    
     39692 TIP3     2697     SWM4     H1       HDW      0.557330       1.00800           0   0.00000       0.00000    
     39693 TIP3     2697     SWM4     H2       HDW      0.557330       1.00800           0   0.00000       0.00000    
     39694 TIP3     2698     SWM4     OH2      ODW       1.71640       15.5994           0 -0.978253       1.30000    
     39695 TIP3     2698     SWM4     DOH2     DOH2     -1.71640      0.400000           0   0.00000       0.00000    
     39696 TIP3     2698     SWM4     OM       LPDW     -1.11466       0.00000          -1   0.00000       0.00000    
     39697 TIP3     2698     SWM4     H1       HDW      0.557330       1.00800           0   0.00000       0.00000    
     39698 TIP3     2698     SWM4     H2       HDW      0.557330       1.00800           0   0.00000       0.00000    
     39699 TIP3     2699     SWM4     OH2      ODW       1.71640       15.5994           0 -0.978253       1.30000    
     39700 TIP3     2699     SWM4     DOH2     DOH2     -1.71640      0.400000           0   0.00000       0.00000    
     39701 TIP3     2699     SWM4     OM       LPDW     -1.11466       0.00000          -1   0.00000       0.00000    
     39702 TIP3     2699     SWM4     H1       HDW      0.557330       1.00800           0   0.00000       0.00000    
     39703 TIP3     2699     SWM4     H2       HDW      0.557330       1.00800           0   0.00000       0.00000    
     39704 TIP3     2700     SWM4     OH2      ODW       1.71640       15.5994           0 -0.978253       1.30000    
     39705 TIP3     2700     SWM4     DOH2     DOH2     -1.71640      0.400000           0   0.00000       0.00000    
     39706 TIP3     2700     SWM4     OM       LPDW     -1.11466       0.00000          -1   0.00000       0.00000    
     39707 TIP3     2700     SWM4     H1       HDW      0.557330       1.00800           0   0.00000       0.00000    
     39708 TIP3     2700     SWM4     H2       HDW      0.557330       1.00800           0   0.00000       0.00000    
     39709 TIP3     2701     SWM4     OH2      ODW       1.71640       15.5994           0 -0.978253       1.30000    
     39710 TIP3     2701     SWM4     DOH2     DOH2     -1.71640      0.400000           0   0.00000       0.00000    
     39711 TIP3     2701     SWM4     OM       LPDW     -1.11466       0.00000          -1   0.00000       0.00000    
     39712 TIP3     2701     SWM4     H1       HDW      0.557330       1.00800           0   0.00000       0.00000    
     39713 TIP3     2701     SWM4     H2       HDW      0.557330       1.00800           0   0.00000       0.00000    
     39714 TIP3     2702     SWM4     OH2      ODW       1.71640       15.5994           0 -0.978253       1.30000    
     39715 TIP3     2702     SWM4     DOH2     DOH2     -1.71640      0.400000           0   0.00000       0.00000    
     39716 TIP3     2702     SWM4     OM       LPDW     -1.11466       0.00000          -1   0.00000       0.00000    
     39717 TIP3     2702     SWM4     H1       HDW      0.557330       1.00800           0   0.00000       0.00000    
     39718 TIP3     2702     SWM4     H2       HDW      0.557330       1.00800           0   0.00000       0.00000    
     39719 TIP3     2703     SWM4     OH2      ODW       1.71640       15.5994           0 -0.978253       1.30000    
     39720 TIP3     2703     SWM4     DOH2     DOH2     -1.71640      0.400000           0   0.00000       0.00000    
     39721 TIP3     2703     SWM4     OM       LPDW     -1.11466       0.00000          -1   0.00000       0.00000    
     39722 TIP3     2703     SWM4     H1       HDW      0.557330       1.00800           0   0.00000       0.00000    
     39723 TIP3     2703     SWM4     H2       HDW      0.557330       1.00800           0   0.00000       0.00000    
     39724 TIP3     2704     SWM4     OH2      ODW       1.71640       15.5994           0 -0.978253       1.30000    
     39725 TIP3     2704     SWM4     DOH2     DOH2     -1.71640      0.400000           0   0.00000       0.00000    
     39726 TIP3     2704     SWM4     OM       LPDW     -1.11466       0.00000          -1   0.00000       0.00000    
     39727 TIP3     2704     SWM4     H1       HDW      0.557330       1.00800           0   0.00000       0.00000    
     39728 TIP3     2704     SWM4     H2       HDW      0.557330       1.00800           0   0.00000       0.00000    
     39729 TIP3     2705     SWM4     OH2      ODW       1.71640       15.5994           0 -0.978253       1.30000    
     39730 TIP3     2705     SWM4     DOH2     DOH2     -1.71640      0.400000           0   0.00000       0.00000    
     39731 TIP3     2705     SWM4     OM       LPDW     -1.11466       0.00000          -1   0.00000       0.00000    
     39732 TIP3     2705     SWM4     H1       HDW      0.557330       1.00800           0   0.00000       0.00000    
     39733 TIP3     2705     SWM4     H2       HDW      0.557330       1.00800           0   0.00000       0.00000    
     39734 TIP3     2706     SWM4     OH2      ODW       1.71640       15.5994           0 -0.978253       1.30000    
     39735 TIP3     2706     SWM4     DOH2     DOH2     -1.71640      0.400000           0   0.00000       0.00000    
     39736 TIP3     2706     SWM4     OM       LPDW     -1.11466       0.00000          -1   0.00000       0.00000    
     39737 TIP3     2706     SWM4     H1       HDW      0.557330       1.00800           0   0.00000       0.00000    
     39738 TIP3     2706     SWM4     H2       HDW      0.557330       1.00800           0   0.00000       0.00000    
     39739 TIP3     2707     SWM4     OH2      ODW       1.71640       15.5994           0 -0.978253       1.30000    
     39740 TIP3     2707     SWM4     DOH2     DOH2     -1.71640      0.400000           0   0.00000       0.00000    
     39741 TIP3     2707     SWM4     OM       LPDW     -1.11466       0.00000          -1   0.00000       0.00000    
     39742 TIP3     2707     SWM4     H1       HDW      0.557330       1.00800           0   0.00000       0.00000    
     39743 TIP3     2707     SWM4     H2       HDW      0.557330       1.00800           0   0.00000       0.00000    
     39744 TIP3     2708     SWM4     OH2      ODW       1.71640       15.5994           0 -0.978253       1.30000    
     39745 TIP3     2708     SWM4     DOH2     DOH2     -1.71640      0.400000           0   0.00000       0.00000    
     39746 TIP3     2708     SWM4     OM       LPDW     -1.11466       0.00000          -1   0.00000       0.00000    
     39747 TIP3     2708     SWM4     H1       HDW      0.557330       1.00800           0   0.00000       0.00000    
     39748 TIP3     2708     SWM4     H2       HDW      0.557330       1.00800           0   0.00000       0.00000    
     39749 TIP3     2709     SWM4     OH2      ODW       1.71640       15.5994           0 -0.978253       1.30000    
     39750 TIP3     2709     SWM4     DOH2     DOH2     -1.71640      0.400000           0   0.00000       0.00000    
     39751 TIP3     2709     SWM4     OM       LPDW     -1.11466       0.00000          -1   0.00000       0.00000    
     39752 TIP3     2709     SWM4     H1       HDW      0.557330       1.00800           0   0.00000       0.00000    
     39753 TIP3     2709     SWM4     H2       HDW      0.557330       1.00800           0   0.00000       0.00000    
     39754 TIP3     2710     SWM4     OH2      ODW       1.71640       15.5994           0 -0.978253       1.30000    
     39755 TIP3     2710     SWM4     DOH2     DOH2     -1.71640      0.400000           0   0.00000       0.00000    
     39756 TIP3     2710     SWM4     OM       LPDW     -1.11466       0.00000          -1   0.00000       0.00000    
     39757 TIP3     2710     SWM4     H1       HDW      0.557330       1.00800           0   0.00000       0.00000    
     39758 TIP3     2710     SWM4     H2       HDW      0.557330       1.00800           0   0.00000       0.00000    
     39759 TIP3     2711     SWM4     OH2      ODW       1.71640       15.5994           0 -0.978253       1.30000    
     39760 TIP3     2711     SWM4     DOH2     DOH2     -1.71640      0.400000           0   0.00000       0.00000    
     39761 TIP3     2711     SWM4     OM       LPDW     -1.11466       0.00000          -1   0.00000       0.00000    
     39762 TIP3     2711     SWM4     H1       HDW      0.557330       1.00800           0   0.00000       0.00000    
     39763 TIP3     2711     SWM4     H2       HDW      0.557330       1.00800           0   0.00000       0.00000    
     39764 TIP3     2712     SWM4     OH2      ODW       1.71640       15.5994           0 -0.978253       1.30000    
     39765 TIP3     2712     SWM4     DOH2     DOH2     -1.71640      0.400000           0   0.00000       0.00000    
     39766 TIP3     2712     SWM4     OM       LPDW     -1.11466       0.00000          -1   0.00000       0.00000    
     39767 TIP3     2712     SWM4     H1       HDW      0.557330       1.00800           0   0.00000       0.00000    
     39768 TIP3     2712     SWM4     H2       HDW      0.557330       1.00800           0   0.00000       0.00000    
     39769 TIP3     2713     SWM4     OH2      ODW       1.71640       15.5994           0 -0.978253       1.30000    
     39770 TIP3     2713     SWM4     DOH2     DOH2     -1.71640      0.400000           0   0.00000       0.00000    
     39771 TIP3     2713     SWM4     OM       LPDW     -1.11466       0.00000          -1   0.00000       0.00000    
     39772 TIP3     2713     SWM4     H1       HDW      0.557330       1.00800           0   0.00000       0.00000    
     39773 TIP3     2713     SWM4     H2       HDW      0.557330       1.00800           0   0.00000       0.00000    
     39774 TIP3     2714     SWM4     OH2      ODW       1.71640       15.5994           0 -0.978253       1.30000    
     39775 TIP3     2714     SWM4     DOH2     DOH2     -1.71640      0.400000           0   0.00000       0.00000    
     39776 TIP3     2714     SWM4     OM       LPDW     -1.11466       0.00000          -1   0.00000       0.00000    
     39777 TIP3     2714     SWM4     H1       HDW      0.557330       1.00800           0   0.00000       0.00000    
     39778 TIP3     2714     SWM4     H2       HDW      0.557330       1.00800           0   0.00000       0.00000    
     39779 TIP3     2715     SWM4     OH2      ODW       1.71640       15.5994           0 -0.978253       1.30000    
     39780 TIP3     2715     SWM4     DOH2     DOH2     -1.71640      0.400000           0   0.00000       0.00000    
     39781 TIP3     2715     SWM4     OM       LPDW     -1.11466       0.00000          -1   0.00000       0.00000    
     39782 TIP3     2715     SWM4     H1       HDW      0.557330       1.00800           0   0.00000       0.00000    
     39783 TIP3     2715     SWM4     H2       HDW      0.557330       1.00800           0   0.00000       0.00000    
     39784 TIP3     2716     SWM4     OH2      ODW       1.71640       15.5994           0 -0.978253       1.30000    
     39785 TIP3     2716     SWM4     DOH2     DOH2     -1.71640      0.400000           0   0.00000       0.00000    
     39786 TIP3     2716     SWM4     OM       LPDW     -1.11466       0.00000          -1   0.00000       0.00000    
     39787 TIP3     2716     SWM4     H1       HDW      0.557330       1.00800           0   0.00000       0.00000    
     39788 TIP3     2716     SWM4     H2       HDW      0.557330       1.00800           0   0.00000       0.00000    
     39789 TIP3     2717     SWM4     OH2      ODW       1.71640       15.5994           0 -0.978253       1.30000    
     39790 TIP3     2717     SWM4     DOH2     DOH2     -1.71640      0.400000           0   0.00000       0.00000    
     39791 TIP3     2717     SWM4     OM       LPDW     -1.11466       0.00000          -1   0.00000       0.00000    
     39792 TIP3     2717     SWM4     H1       HDW      0.557330       1.00800           0   0.00000       0.00000    
     39793 TIP3     2717     SWM4     H2       HDW      0.557330       1.00800           0   0.00000       0.00000    
     39794 TIP3     2718     SWM4     OH2      ODW       1.71640       15.5994           0 -0.978253       1.30000    
     39795 TIP3     2718     SWM4     DOH2     DOH2     -1.71640      0.400000           0   0.00000       0.00000    
     39796 TIP3     2718     SWM4     OM       LPDW     -1.11466       0.00000          -1   0.00000       0.00000    
     39797 TIP3     2718     SWM4     H1       HDW      0.557330       1.00800           0   0.00000       0.00000    
     39798 TIP3     2718     SWM4     H2       HDW      0.557330       1.00800           0   0.00000       0.00000    
     39799 TIP3     2719     SWM4     OH2      ODW       1.71640       15.5994           0 -0.978253       1.30000    
     39800 TIP3     2719     SWM4     DOH2     DOH2     -1.71640      0.400000           0   0.00000       0.00000    
     39801 TIP3     2719     SWM4     OM       LPDW     -1.11466       0.00000          -1   0.00000       0.00000    
     39802 TIP3     2719     SWM4     H1       HDW      0.557330       1.00800           0   0.00000       0.00000    
     39803 TIP3     2719     SWM4     H2       HDW      0.557330       1.00800           0   0.00000       0.00000    
     39804 TIP3     2720     SWM4     OH2      ODW       1.71640       15.5994           0 -0.978253       1.30000    
     39805 TIP3     2720     SWM4     DOH2     DOH2     -1.71640      0.400000           0   0.00000       0.00000    
     39806 TIP3     2720     SWM4     OM       LPDW     -1.11466       0.00000          -1   0.00000       0.00000    
     39807 TIP3     2720     SWM4     H1       HDW      0.557330       1.00800           0   0.00000       0.00000    
     39808 TIP3     2720     SWM4     H2       HDW      0.557330       1.00800           0   0.00000       0.00000    
     39809 TIP3     2721     SWM4     OH2      ODW       1.71640       15.5994           0 -0.978253       1.30000    
     39810 TIP3     2721     SWM4     DOH2     DOH2     -1.71640      0.400000           0   0.00000       0.00000    
     39811 TIP3     2721     SWM4     OM       LPDW     -1.11466       0.00000          -1   0.00000       0.00000    
     39812 TIP3     2721     SWM4     H1       HDW      0.557330       1.00800           0   0.00000       0.00000    
     39813 TIP3     2721     SWM4     H2       HDW      0.557330       1.00800           0   0.00000       0.00000    
     39814 TIP3     2722     SWM4     OH2      ODW       1.71640       15.5994           0 -0.978253       1.30000    
     39815 TIP3     2722     SWM4     DOH2     DOH2     -1.71640      0.400000           0   0.00000       0.00000    
     39816 TIP3     2722     SWM4     OM       LPDW     -1.11466       0.00000          -1   0.00000       0.00000    
     39817 TIP3     2722     SWM4     H1       HDW      0.557330       1.00800           0   0.00000       0.00000    
     39818 TIP3     2722     SWM4     H2       HDW      0.557330       1.00800           0   0.00000       0.00000    
     39819 TIP3     2723     SWM4     OH2      ODW       1.71640       15.5994           0 -0.978253       1.30000    
     39820 TIP3     2723     SWM4     DOH2     DOH2     -1.71640      0.400000           0   0.00000       0.00000    
     39821 TIP3     2723     SWM4     OM       LPDW     -1.11466       0.00000          -1   0.00000       0.00000    
     39822 TIP3     2723     SWM4     H1       HDW      0.557330       1.00800           0   0.00000       0.00000    
     39823 TIP3     2723     SWM4     H2       HDW      0.557330       1.00800           0   0.00000       0.00000    
     39824 TIP3     2724     SWM4     OH2      ODW       1.71640       15.5994           0 -0.978253       1.30000    
     39825 TIP3     2724     SWM4     DOH2     DOH2     -1.71640      0.400000           0   0.00000       0.00000    
     39826 TIP3     2724     SWM4     OM       LPDW     -1.11466       0.00000          -1   0.00000       0.00000    
     39827 TIP3     2724     SWM4     H1       HDW      0.557330       1.00800           0   0.00000       0.00000    
     39828 TIP3     2724     SWM4     H2       HDW      0.557330       1.00800           0   0.00000       0.00000    
     39829 TIP3     2725     SWM4     OH2      ODW       1.71640       15.5994           0 -0.978253       1.30000    
     39830 TIP3     2725     SWM4     DOH2     DOH2     -1.71640      0.400000           0   0.00000       0.00000    
     39831 TIP3     2725     SWM4     OM       LPDW     -1.11466       0.00000          -1   0.00000       0.00000    
     39832 TIP3     2725     SWM4     H1       HDW      0.557330       1.00800           0   0.00000       0.00000    
     39833 TIP3     2725     SWM4     H2       HDW      0.557330       1.00800           0   0.00000       0.00000    
     39834 TIP3     2726     SWM4     OH2      ODW       1.71640       15.5994           0 -0.978253       1.30000    
     39835 TIP3     2726     SWM4     DOH2     DOH2     -1.71640      0.400000           0   0.00000       0.00000    
     39836 TIP3     2726     SWM4     OM       LPDW     -1.11466       0.00000          -1   0.00000       0.00000    
     39837 TIP3     2726     SWM4     H1       HDW      0.557330       1.00800           0   0.00000       0.00000    
     39838 TIP3     2726     SWM4     H2       HDW      0.557330       1.00800           0   0.00000       0.00000    
     39839 TIP3     2727     SWM4     OH2      ODW       1.71640       15.5994           0 -0.978253       1.30000    
     39840 TIP3     2727     SWM4     DOH2     DOH2     -1.71640      0.400000           0   0.00000       0.00000    
     39841 TIP3     2727     SWM4     OM       LPDW     -1.11466       0.00000          -1   0.00000       0.00000    
     39842 TIP3     2727     SWM4     H1       HDW      0.557330       1.00800           0   0.00000       0.00000    
     39843 TIP3     2727     SWM4     H2       HDW      0.557330       1.00800           0   0.00000       0.00000    
     39844 TIP3     2728     SWM4     OH2      ODW       1.71640       15.5994           0 -0.978253       1.30000    
     39845 TIP3     2728     SWM4     DOH2     DOH2     -1.71640      0.400000           0   0.00000       0.00000    
     39846 TIP3     2728     SWM4     OM       LPDW     -1.11466       0.00000          -1   0.00000       0.00000    
     39847 TIP3     2728     SWM4     H1       HDW      0.557330       1.00800           0   0.00000       0.00000    
     39848 TIP3     2728     SWM4     H2       HDW      0.557330       1.00800           0   0.00000       0.00000    
     39849 TIP3     2729     SWM4     OH2      ODW       1.71640       15.5994           0 -0.978253       1.30000    
     39850 TIP3     2729     SWM4     DOH2     DOH2     -1.71640      0.400000           0   0.00000       0.00000    
     39851 TIP3     2729     SWM4     OM       LPDW     -1.11466       0.00000          -1   0.00000       0.00000    
     39852 TIP3     2729     SWM4     H1       HDW      0.557330       1.00800           0   0.00000       0.00000    
     39853 TIP3     2729     SWM4     H2       HDW      0.557330       1.00800           0   0.00000       0.00000    
     39854 TIP3     2730     SWM4     OH2      ODW       1.71640       15.5994           0 -0.978253       1.30000    
     39855 TIP3     2730     SWM4     DOH2     DOH2     -1.71640      0.400000           0   0.00000       0.00000    
     39856 TIP3     2730     SWM4     OM       LPDW     -1.11466       0.00000          -1   0.00000       0.00000    
     39857 TIP3     2730     SWM4     H1       HDW      0.557330       1.00800           0   0.00000       0.00000    
     39858 TIP3     2730     SWM4     H2       HDW      0.557330       1.00800           0   0.00000       0.00000    
     39859 TIP3     2731     SWM4     OH2      ODW       1.71640       15.5994           0 -0.978253       1.30000    
     39860 TIP3     2731     SWM4     DOH2     DOH2     -1.71640      0.400000           0   0.00000       0.00000    
     39861 TIP3     2731     SWM4     OM       LPDW     -1.11466       0.00000          -1   0.00000       0.00000    
     39862 TIP3     2731     SWM4     H1       HDW      0.557330       1.00800           0   0.00000       0.00000    
     39863 TIP3     2731     SWM4     H2       HDW      0.557330       1.00800           0   0.00000       0.00000    
     39864 TIP3     2732     SWM4     OH2      ODW       1.71640       15.5994           0 -0.978253       1.30000    
     39865 TIP3     2732     SWM4     DOH2     DOH2     -1.71640      0.400000           0   0.00000       0.00000    
     39866 TIP3     2732     SWM4     OM       LPDW     -1.11466       0.00000          -1   0.00000       0.00000    
     39867 TIP3     2732     SWM4     H1       HDW      0.557330       1.00800           0   0.00000       0.00000    
     39868 TIP3     2732     SWM4     H2       HDW      0.557330       1.00800           0   0.00000       0.00000    
     39869 TIP3     2733     SWM4     OH2      ODW       1.71640       15.5994           0 -0.978253       1.30000    
     39870 TIP3     2733     SWM4     DOH2     DOH2     -1.71640      0.400000           0   0.00000       0.00000    
     39871 TIP3     2733     SWM4     OM       LPDW     -1.11466       0.00000          -1   0.00000       0.00000    
     39872 TIP3     2733     SWM4     H1       HDW      0.557330       1.00800           0   0.00000       0.00000    
     39873 TIP3     2733     SWM4     H2       HDW      0.557330       1.00800           0   0.00000       0.00000    
     39874 TIP3     2734     SWM4     OH2      ODW       1.71640       15.5994           0 -0.978253       1.30000    
     39875 TIP3     2734     SWM4     DOH2     DOH2     -1.71640      0.400000           0   0.00000       0.00000    
     39876 TIP3     2734     SWM4     OM       LPDW     -1.11466       0.00000          -1   0.00000       0.00000    
     39877 TIP3     2734     SWM4     H1       HDW      0.557330       1.00800           0   0.00000       0.00000    
     39878 TIP3     2734     SWM4     H2       HDW      0.557330       1.00800           0   0.00000       0.00000    
     39879 TIP3     2735     SWM4     OH2      ODW       1.71640       15.5994           0 -0.978253       1.30000    
     39880 TIP3     2735     SWM4     DOH2     DOH2     -1.71640      0.400000           0   0.00000       0.00000    
     39881 TIP3     2735     SWM4     OM       LPDW     -1.11466       0.00000          -1   0.00000       0.00000    
     39882 TIP3     2735     SWM4     H1       HDW      0.557330       1.00800           0   0.00000       0.00000    
     39883 TIP3     2735     SWM4     H2       HDW      0.557330       1.00800           0   0.00000       0.00000    
     39884 TIP3     2736     SWM4     OH2      ODW       1.71640       15.5994           0 -0.978253       1.30000    
     39885 TIP3     2736     SWM4     DOH2     DOH2     -1.71640      0.400000           0   0.00000       0.00000    
     39886 TIP3     2736     SWM4     OM       LPDW     -1.11466       0.00000          -1   0.00000       0.00000    
     39887 TIP3     2736     SWM4     H1       HDW      0.557330       1.00800           0   0.00000       0.00000    
     39888 TIP3     2736     SWM4     H2       HDW      0.557330       1.00800           0   0.00000       0.00000    
     39889 TIP3     2737     SWM4     OH2      ODW       1.71640       15.5994           0 -0.978253       1.30000    
     39890 TIP3     2737     SWM4     DOH2     DOH2     -1.71640      0.400000           0   0.00000       0.00000    
     39891 TIP3     2737     SWM4     OM       LPDW     -1.11466       0.00000          -1   0.00000       0.00000    
     39892 TIP3     2737     SWM4     H1       HDW      0.557330       1.00800           0   0.00000       0.00000    
     39893 TIP3     2737     SWM4     H2       HDW      0.557330       1.00800           0   0.00000       0.00000    
     39894 TIP3     2738     SWM4     OH2      ODW       1.71640       15.5994           0 -0.978253       1.30000    
     39895 TIP3     2738     SWM4     DOH2     DOH2     -1.71640      0.400000           0   0.00000       0.00000    
     39896 TIP3     2738     SWM4     OM       LPDW     -1.11466       0.00000          -1   0.00000       0.00000    
     39897 TIP3     2738     SWM4     H1       HDW      0.557330       1.00800           0   0.00000       0.00000    
     39898 TIP3     2738     SWM4     H2       HDW      0.557330       1.00800           0   0.00000       0.00000    
     39899 TIP3     2739     SWM4     OH2      ODW       1.71640       15.5994           0 -0.978253       1.30000    
     39900 TIP3     2739     SWM4     DOH2     DOH2     -1.71640      0.400000           0   0.00000       0.00000    
     39901 TIP3     2739     SWM4     OM       LPDW     -1.11466       0.00000          -1   0.00000       0.00000    
     39902 TIP3     2739     SWM4     H1       HDW      0.557330       1.00800           0   0.00000       0.00000    
     39903 TIP3     2739     SWM4     H2       HDW      0.557330       1.00800           0   0.00000       0.00000    
     39904 TIP3     2740     SWM4     OH2      ODW       1.71640       15.5994           0 -0.978253       1.30000    
     39905 TIP3     2740     SWM4     DOH2     DOH2     -1.71640      0.400000           0   0.00000       0.00000    
     39906 TIP3     2740     SWM4     OM       LPDW     -1.11466       0.00000          -1   0.00000       0.00000    
     39907 TIP3     2740     SWM4     H1       HDW      0.557330       1.00800           0   0.00000       0.00000    
     39908 TIP3     2740     SWM4     H2       HDW      0.557330       1.00800           0   0.00000       0.00000    
     39909 TIP3     2741     SWM4     OH2      ODW       1.71640       15.5994           0 -0.978253       1.30000    
     39910 TIP3     2741     SWM4     DOH2     DOH2     -1.71640      0.400000           0   0.00000       0.00000    
     39911 TIP3     2741     SWM4     OM       LPDW     -1.11466       0.00000          -1   0.00000       0.00000    
     39912 TIP3     2741     SWM4     H1       HDW      0.557330       1.00800           0   0.00000       0.00000    
     39913 TIP3     2741     SWM4     H2       HDW      0.557330       1.00800           0   0.00000       0.00000    
     39914 TIP3     2742     SWM4     OH2      ODW       1.71640       15.5994           0 -0.978253       1.30000    
     39915 TIP3     2742     SWM4     DOH2     DOH2     -1.71640      0.400000           0   0.00000       0.00000    
     39916 TIP3     2742     SWM4     OM       LPDW     -1.11466       0.00000          -1   0.00000       0.00000    
     39917 TIP3     2742     SWM4     H1       HDW      0.557330       1.00800           0   0.00000       0.00000    
     39918 TIP3     2742     SWM4     H2       HDW      0.557330       1.00800           0   0.00000       0.00000    
     39919 TIP3     2743     SWM4     OH2      ODW       1.71640       15.5994           0 -0.978253       1.30000    
     39920 TIP3     2743     SWM4     DOH2     DOH2     -1.71640      0.400000           0   0.00000       0.00000    
     39921 TIP3     2743     SWM4     OM       LPDW     -1.11466       0.00000          -1   0.00000       0.00000    
     39922 TIP3     2743     SWM4     H1       HDW      0.557330       1.00800           0   0.00000       0.00000    
     39923 TIP3     2743     SWM4     H2       HDW      0.557330       1.00800           0   0.00000       0.00000    
     39924 TIP3     2744     SWM4     OH2      ODW       1.71640       15.5994           0 -0.978253       1.30000    
     39925 TIP3     2744     SWM4     DOH2     DOH2     -1.71640      0.400000           0   0.00000       0.00000    
     39926 TIP3     2744     SWM4     OM       LPDW     -1.11466       0.00000          -1   0.00000       0.00000    
     39927 TIP3     2744     SWM4     H1       HDW      0.557330       1.00800           0   0.00000       0.00000    
     39928 TIP3     2744     SWM4     H2       HDW      0.557330       1.00800           0   0.00000       0.00000    
     39929 TIP3     2745     SWM4     OH2      ODW       1.71640       15.5994           0 -0.978253       1.30000    
     39930 TIP3     2745     SWM4     DOH2     DOH2     -1.71640      0.400000           0   0.00000       0.00000    
     39931 TIP3     2745     SWM4     OM       LPDW     -1.11466       0.00000          -1   0.00000       0.00000    
     39932 TIP3     2745     SWM4     H1       HDW      0.557330       1.00800           0   0.00000       0.00000    
     39933 TIP3     2745     SWM4     H2       HDW      0.557330       1.00800           0   0.00000       0.00000    
     39934 TIP3     2746     SWM4     OH2      ODW       1.71640       15.5994           0 -0.978253       1.30000    
     39935 TIP3     2746     SWM4     DOH2     DOH2     -1.71640      0.400000           0   0.00000       0.00000    
     39936 TIP3     2746     SWM4     OM       LPDW     -1.11466       0.00000          -1   0.00000       0.00000    
     39937 TIP3     2746     SWM4     H1       HDW      0.557330       1.00800           0   0.00000       0.00000    
     39938 TIP3     2746     SWM4     H2       HDW      0.557330       1.00800           0   0.00000       0.00000    
     39939 TIP3     2747     SWM4     OH2      ODW       1.71640       15.5994           0 -0.978253       1.30000    
     39940 TIP3     2747     SWM4     DOH2     DOH2     -1.71640      0.400000           0   0.00000       0.00000    
     39941 TIP3     2747     SWM4     OM       LPDW     -1.11466       0.00000          -1   0.00000       0.00000    
     39942 TIP3     2747     SWM4     H1       HDW      0.557330       1.00800           0   0.00000       0.00000    
     39943 TIP3     2747     SWM4     H2       HDW      0.557330       1.00800           0   0.00000       0.00000    
     39944 TIP3     2748     SWM4     OH2      ODW       1.71640       15.5994           0 -0.978253       1.30000    
     39945 TIP3     2748     SWM4     DOH2     DOH2     -1.71640      0.400000           0   0.00000       0.00000    
     39946 TIP3     2748     SWM4     OM       LPDW     -1.11466       0.00000          -1   0.00000       0.00000    
     39947 TIP3     2748     SWM4     H1       HDW      0.557330       1.00800           0   0.00000       0.00000    
     39948 TIP3     2748     SWM4     H2       HDW      0.557330       1.00800           0   0.00000       0.00000    
     39949 TIP3     2749     SWM4     OH2      ODW       1.71640       15.5994           0 -0.978253       1.30000    
     39950 TIP3     2749     SWM4     DOH2     DOH2     -1.71640      0.400000           0   0.00000       0.00000    
     39951 TIP3     2749     SWM4     OM       LPDW     -1.11466       0.00000          -1   0.00000       0.00000    
     39952 TIP3     2749     SWM4     H1       HDW      0.557330       1.00800           0   0.00000       0.00000    
     39953 TIP3     2749     SWM4     H2       HDW      0.557330       1.00800           0   0.00000       0.00000    
     39954 TIP3     2750     SWM4     OH2      ODW       1.71640       15.5994           0 -0.978253       1.30000    
     39955 TIP3     2750     SWM4     DOH2     DOH2     -1.71640      0.400000           0   0.00000       0.00000    
     39956 TIP3     2750     SWM4     OM       LPDW     -1.11466       0.00000          -1   0.00000       0.00000    
     39957 TIP3     2750     SWM4     H1       HDW      0.557330       1.00800           0   0.00000       0.00000    
     39958 TIP3     2750     SWM4     H2       HDW      0.557330       1.00800           0   0.00000       0.00000    
     39959 TIP3     2751     SWM4     OH2      ODW       1.71640       15.5994           0 -0.978253       1.30000    
     39960 TIP3     2751     SWM4     DOH2     DOH2     -1.71640      0.400000           0   0.00000       0.00000    
     39961 TIP3     2751     SWM4     OM       LPDW     -1.11466       0.00000          -1   0.00000       0.00000    
     39962 TIP3     2751     SWM4     H1       HDW      0.557330       1.00800           0   0.00000       0.00000    
     39963 TIP3     2751     SWM4     H2       HDW      0.557330       1.00800           0   0.00000       0.00000    
     39964 TIP3     2752     SWM4     OH2      ODW       1.71640       15.5994           0 -0.978253       1.30000    
     39965 TIP3     2752     SWM4     DOH2     DOH2     -1.71640      0.400000           0   0.00000       0.00000    
     39966 TIP3     2752     SWM4     OM       LPDW     -1.11466       0.00000          -1   0.00000       0.00000    
     39967 TIP3     2752     SWM4     H1       HDW      0.557330       1.00800           0   0.00000       0.00000    
     39968 TIP3     2752     SWM4     H2       HDW      0.557330       1.00800           0   0.00000       0.00000    
     39969 TIP3     2753     SWM4     OH2      ODW       1.71640       15.5994           0 -0.978253       1.30000    
     39970 TIP3     2753     SWM4     DOH2     DOH2     -1.71640      0.400000           0   0.00000       0.00000    
     39971 TIP3     2753     SWM4     OM       LPDW     -1.11466       0.00000          -1   0.00000       0.00000    
     39972 TIP3     2753     SWM4     H1       HDW      0.557330       1.00800           0   0.00000       0.00000    
     39973 TIP3     2753     SWM4     H2       HDW      0.557330       1.00800           0   0.00000       0.00000    
     39974 TIP3     2754     SWM4     OH2      ODW       1.71640       15.5994           0 -0.978253       1.30000    
     39975 TIP3     2754     SWM4     DOH2     DOH2     -1.71640      0.400000           0   0.00000       0.00000    
     39976 TIP3     2754     SWM4     OM       LPDW     -1.11466       0.00000          -1   0.00000       0.00000    
     39977 TIP3     2754     SWM4     H1       HDW      0.557330       1.00800           0   0.00000       0.00000    
     39978 TIP3     2754     SWM4     H2       HDW      0.557330       1.00800           0   0.00000       0.00000    
     39979 TIP3     2755     SWM4     OH2      ODW       1.71640       15.5994           0 -0.978253       1.30000    
     39980 TIP3     2755     SWM4     DOH2     DOH2     -1.71640      0.400000           0   0.00000       0.00000    
     39981 TIP3     2755     SWM4     OM       LPDW     -1.11466       0.00000          -1   0.00000       0.00000    
     39982 TIP3     2755     SWM4     H1       HDW      0.557330       1.00800           0   0.00000       0.00000    
     39983 TIP3     2755     SWM4     H2       HDW      0.557330       1.00800           0   0.00000       0.00000    
     39984 TIP3     2756     SWM4     OH2      ODW       1.71640       15.5994           0 -0.978253       1.30000    
     39985 TIP3     2756     SWM4     DOH2     DOH2     -1.71640      0.400000           0   0.00000       0.00000    
     39986 TIP3     2756     SWM4     OM       LPDW     -1.11466       0.00000          -1   0.00000       0.00000    
     39987 TIP3     2756     SWM4     H1       HDW      0.557330       1.00800           0   0.00000       0.00000    
     39988 TIP3     2756     SWM4     H2       HDW      0.557330       1.00800           0   0.00000       0.00000    
     39989 TIP3     2757     SWM4     OH2      ODW       1.71640       15.5994           0 -0.978253       1.30000    
     39990 TIP3     2757     SWM4     DOH2     DOH2     -1.71640      0.400000           0   0.00000       0.00000    
     39991 TIP3     2757     SWM4     OM       LPDW     -1.11466       0.00000          -1   0.00000       0.00000    
     39992 TIP3     2757     SWM4     H1       HDW      0.557330       1.00800           0   0.00000       0.00000    
     39993 TIP3     2757     SWM4     H2       HDW      0.557330       1.00800           0   0.00000       0.00000    
     39994 TIP3     2758     SWM4     OH2      ODW       1.71640       15.5994           0 -0.978253       1.30000    
     39995 TIP3     2758     SWM4     DOH2     DOH2     -1.71640      0.400000           0   0.00000       0.00000    
     39996 TIP3     2758     SWM4     OM       LPDW     -1.11466       0.00000          -1   0.00000       0.00000    
     39997 TIP3     2758     SWM4     H1       HDW      0.557330       1.00800           0   0.00000       0.00000    
     39998 TIP3     2758     SWM4     H2       HDW      0.557330       1.00800           0   0.00000       0.00000    
     39999 TIP3     2759     SWM4     OH2      ODW       1.71640       15.5994           0 -0.978253       1.30000    
     40000 TIP3     2759     SWM4     DOH2     DOH2     -1.71640      0.400000           0   0.00000       0.00000    
     40001 TIP3     2759     SWM4     OM       LPDW     -1.11466       0.00000          -1   0.00000       0.00000    
     40002 TIP3     2759     SWM4     H1       HDW      0.557330       1.00800           0   0.00000       0.00000    
     40003 TIP3     2759     SWM4     H2       HDW      0.557330       1.00800           0   0.00000       0.00000    
     40004 TIP3     2760     SWM4     OH2      ODW       1.71640       15.5994           0 -0.978253       1.30000    
     40005 TIP3     2760     SWM4     DOH2     DOH2     -1.71640      0.400000           0   0.00000       0.00000    
     40006 TIP3     2760     SWM4     OM       LPDW     -1.11466       0.00000          -1   0.00000       0.00000    
     40007 TIP3     2760     SWM4     H1       HDW      0.557330       1.00800           0   0.00000       0.00000    
     40008 TIP3     2760     SWM4     H2       HDW      0.557330       1.00800           0   0.00000       0.00000    
     40009 TIP3     2761     SWM4     OH2      ODW       1.71640       15.5994           0 -0.978253       1.30000    
     40010 TIP3     2761     SWM4     DOH2     DOH2     -1.71640      0.400000           0   0.00000       0.00000    
     40011 TIP3     2761     SWM4     OM       LPDW     -1.11466       0.00000          -1   0.00000       0.00000    
     40012 TIP3     2761     SWM4     H1       HDW      0.557330       1.00800           0   0.00000       0.00000    
     40013 TIP3     2761     SWM4     H2       HDW      0.557330       1.00800           0   0.00000       0.00000    
     40014 TIP3     2762     SWM4     OH2      ODW       1.71640       15.5994           0 -0.978253       1.30000    
     40015 TIP3     2762     SWM4     DOH2     DOH2     -1.71640      0.400000           0   0.00000       0.00000    
     40016 TIP3     2762     SWM4     OM       LPDW     -1.11466       0.00000          -1   0.00000       0.00000    
     40017 TIP3     2762     SWM4     H1       HDW      0.557330       1.00800           0   0.00000       0.00000    
     40018 TIP3     2762     SWM4     H2       HDW      0.557330       1.00800           0   0.00000       0.00000    
     40019 TIP3     2763     SWM4     OH2      ODW       1.71640       15.5994           0 -0.978253       1.30000    
     40020 TIP3     2763     SWM4     DOH2     DOH2     -1.71640      0.400000           0   0.00000       0.00000    
     40021 TIP3     2763     SWM4     OM       LPDW     -1.11466       0.00000          -1   0.00000       0.00000    
     40022 TIP3     2763     SWM4     H1       HDW      0.557330       1.00800           0   0.00000       0.00000    
     40023 TIP3     2763     SWM4     H2       HDW      0.557330       1.00800           0   0.00000       0.00000    
     40024 TIP3     2764     SWM4     OH2      ODW       1.71640       15.5994           0 -0.978253       1.30000    
     40025 TIP3     2764     SWM4     DOH2     DOH2     -1.71640      0.400000           0   0.00000       0.00000    
     40026 TIP3     2764     SWM4     OM       LPDW     -1.11466       0.00000          -1   0.00000       0.00000    
     40027 TIP3     2764     SWM4     H1       HDW      0.557330       1.00800           0   0.00000       0.00000    
     40028 TIP3     2764     SWM4     H2       HDW      0.557330       1.00800           0   0.00000       0.00000    
     40029 TIP3     2765     SWM4     OH2      ODW       1.71640       15.5994           0 -0.978253       1.30000    
     40030 TIP3     2765     SWM4     DOH2     DOH2     -1.71640      0.400000           0   0.00000       0.00000    
     40031 TIP3     2765     SWM4     OM       LPDW     -1.11466       0.00000          -1   0.00000       0.00000    
     40032 TIP3     2765     SWM4     H1       HDW      0.557330       1.00800           0   0.00000       0.00000    
     40033 TIP3     2765     SWM4     H2       HDW      0.557330       1.00800           0   0.00000       0.00000    
     40034 TIP3     2766     SWM4     OH2      ODW       1.71640       15.5994           0 -0.978253       1.30000    
     40035 TIP3     2766     SWM4     DOH2     DOH2     -1.71640      0.400000           0   0.00000       0.00000    
     40036 TIP3     2766     SWM4     OM       LPDW     -1.11466       0.00000          -1   0.00000       0.00000    
     40037 TIP3     2766     SWM4     H1       HDW      0.557330       1.00800           0   0.00000       0.00000    
     40038 TIP3     2766     SWM4     H2       HDW      0.557330       1.00800           0   0.00000       0.00000    
     40039 TIP3     2767     SWM4     OH2      ODW       1.71640       15.5994           0 -0.978253       1.30000    
     40040 TIP3     2767     SWM4     DOH2     DOH2     -1.71640      0.400000           0   0.00000       0.00000    
     40041 TIP3     2767     SWM4     OM       LPDW     -1.11466       0.00000          -1   0.00000       0.00000    
     40042 TIP3     2767     SWM4     H1       HDW      0.557330       1.00800           0   0.00000       0.00000    
     40043 TIP3     2767     SWM4     H2       HDW      0.557330       1.00800           0   0.00000       0.00000    
     40044 TIP3     2768     SWM4     OH2      ODW       1.71640       15.5994           0 -0.978253       1.30000    
     40045 TIP3     2768     SWM4     DOH2     DOH2     -1.71640      0.400000           0   0.00000       0.00000    
     40046 TIP3     2768     SWM4     OM       LPDW     -1.11466       0.00000          -1   0.00000       0.00000    
     40047 TIP3     2768     SWM4     H1       HDW      0.557330       1.00800           0   0.00000       0.00000    
     40048 TIP3     2768     SWM4     H2       HDW      0.557330       1.00800           0   0.00000       0.00000    
     40049 TIP3     2769     SWM4     OH2      ODW       1.71640       15.5994           0 -0.978253       1.30000    
     40050 TIP3     2769     SWM4     DOH2     DOH2     -1.71640      0.400000           0   0.00000       0.00000    
     40051 TIP3     2769     SWM4     OM       LPDW     -1.11466       0.00000          -1   0.00000       0.00000    
     40052 TIP3     2769     SWM4     H1       HDW      0.557330       1.00800           0   0.00000       0.00000    
     40053 TIP3     2769     SWM4     H2       HDW      0.557330       1.00800           0   0.00000       0.00000    
     40054 TIP3     2770     SWM4     OH2      ODW       1.71640       15.5994           0 -0.978253       1.30000    
     40055 TIP3     2770     SWM4     DOH2     DOH2     -1.71640      0.400000           0   0.00000       0.00000    
     40056 TIP3     2770     SWM4     OM       LPDW     -1.11466       0.00000          -1   0.00000       0.00000    
     40057 TIP3     2770     SWM4     H1       HDW      0.557330       1.00800           0   0.00000       0.00000    
     40058 TIP3     2770     SWM4     H2       HDW      0.557330       1.00800           0   0.00000       0.00000    
     40059 TIP3     2771     SWM4     OH2      ODW       1.71640       15.5994           0 -0.978253       1.30000    
     40060 TIP3     2771     SWM4     DOH2     DOH2     -1.71640      0.400000           0   0.00000       0.00000    
     40061 TIP3     2771     SWM4     OM       LPDW     -1.11466       0.00000          -1   0.00000       0.00000    
     40062 TIP3     2771     SWM4     H1       HDW      0.557330       1.00800           0   0.00000       0.00000    
     40063 TIP3     2771     SWM4     H2       HDW      0.557330       1.00800           0   0.00000       0.00000    
     40064 TIP3     2772     SWM4     OH2      ODW       1.71640       15.5994           0 -0.978253       1.30000    
     40065 TIP3     2772     SWM4     DOH2     DOH2     -1.71640      0.400000           0   0.00000       0.00000    
     40066 TIP3     2772     SWM4     OM       LPDW     -1.11466       0.00000          -1   0.00000       0.00000    
     40067 TIP3     2772     SWM4     H1       HDW      0.557330       1.00800           0   0.00000       0.00000    
     40068 TIP3     2772     SWM4     H2       HDW      0.557330       1.00800           0   0.00000       0.00000    
     40069 TIP3     2773     SWM4     OH2      ODW       1.71640       15.5994           0 -0.978253       1.30000    
     40070 TIP3     2773     SWM4     DOH2     DOH2     -1.71640      0.400000           0   0.00000       0.00000    
     40071 TIP3     2773     SWM4     OM       LPDW     -1.11466       0.00000          -1   0.00000       0.00000    
     40072 TIP3     2773     SWM4     H1       HDW      0.557330       1.00800           0   0.00000       0.00000    
     40073 TIP3     2773     SWM4     H2       HDW      0.557330       1.00800           0   0.00000       0.00000    
     40074 TIP3     2774     SWM4     OH2      ODW       1.71640       15.5994           0 -0.978253       1.30000    
     40075 TIP3     2774     SWM4     DOH2     DOH2     -1.71640      0.400000           0   0.00000       0.00000    
     40076 TIP3     2774     SWM4     OM       LPDW     -1.11466       0.00000          -1   0.00000       0.00000    
     40077 TIP3     2774     SWM4     H1       HDW      0.557330       1.00800           0   0.00000       0.00000    
     40078 TIP3     2774     SWM4     H2       HDW      0.557330       1.00800           0   0.00000       0.00000    
     40079 TIP3     2775     SWM4     OH2      ODW       1.71640       15.5994           0 -0.978253       1.30000    
     40080 TIP3     2775     SWM4     DOH2     DOH2     -1.71640      0.400000           0   0.00000       0.00000    
     40081 TIP3     2775     SWM4     OM       LPDW     -1.11466       0.00000          -1   0.00000       0.00000    
     40082 TIP3     2775     SWM4     H1       HDW      0.557330       1.00800           0   0.00000       0.00000    
     40083 TIP3     2775     SWM4     H2       HDW      0.557330       1.00800           0   0.00000       0.00000    
     40084 TIP3     2776     SWM4     OH2      ODW       1.71640       15.5994           0 -0.978253       1.30000    
     40085 TIP3     2776     SWM4     DOH2     DOH2     -1.71640      0.400000           0   0.00000       0.00000    
     40086 TIP3     2776     SWM4     OM       LPDW     -1.11466       0.00000          -1   0.00000       0.00000    
     40087 TIP3     2776     SWM4     H1       HDW      0.557330       1.00800           0   0.00000       0.00000    
     40088 TIP3     2776     SWM4     H2       HDW      0.557330       1.00800           0   0.00000       0.00000    
     40089 TIP3     2777     SWM4     OH2      ODW       1.71640       15.5994           0 -0.978253       1.30000    
     40090 TIP3     2777     SWM4     DOH2     DOH2     -1.71640      0.400000           0   0.00000       0.00000    
     40091 TIP3     2777     SWM4     OM       LPDW     -1.11466       0.00000          -1   0.00000       0.00000    
     40092 TIP3     2777     SWM4     H1       HDW      0.557330       1.00800           0   0.00000       0.00000    
     40093 TIP3     2777     SWM4     H2       HDW      0.557330       1.00800           0   0.00000       0.00000    
     40094 TIP3     2778     SWM4     OH2      ODW       1.71640       15.5994           0 -0.978253       1.30000    
     40095 TIP3     2778     SWM4     DOH2     DOH2     -1.71640      0.400000           0   0.00000       0.00000    
     40096 TIP3     2778     SWM4     OM       LPDW     -1.11466       0.00000          -1   0.00000       0.00000    
     40097 TIP3     2778     SWM4     H1       HDW      0.557330       1.00800           0   0.00000       0.00000    
     40098 TIP3     2778     SWM4     H2       HDW      0.557330       1.00800           0   0.00000       0.00000    
     40099 TIP3     2779     SWM4     OH2      ODW       1.71640       15.5994           0 -0.978253       1.30000    
     40100 TIP3     2779     SWM4     DOH2     DOH2     -1.71640      0.400000           0   0.00000       0.00000    
     40101 TIP3     2779     SWM4     OM       LPDW     -1.11466       0.00000          -1   0.00000       0.00000    
     40102 TIP3     2779     SWM4     H1       HDW      0.557330       1.00800           0   0.00000       0.00000    
     40103 TIP3     2779     SWM4     H2       HDW      0.557330       1.00800           0   0.00000       0.00000    
     40104 TIP3     2780     SWM4     OH2      ODW       1.71640       15.5994           0 -0.978253       1.30000    
     40105 TIP3     2780     SWM4     DOH2     DOH2     -1.71640      0.400000           0   0.00000       0.00000    
     40106 TIP3     2780     SWM4     OM       LPDW     -1.11466       0.00000          -1   0.00000       0.00000    
     40107 TIP3     2780     SWM4     H1       HDW      0.557330       1.00800           0   0.00000       0.00000    
     40108 TIP3     2780     SWM4     H2       HDW      0.557330       1.00800           0   0.00000       0.00000    
     40109 TIP3     2781     SWM4     OH2      ODW       1.71640       15.5994           0 -0.978253       1.30000    
     40110 TIP3     2781     SWM4     DOH2     DOH2     -1.71640      0.400000           0   0.00000       0.00000    
     40111 TIP3     2781     SWM4     OM       LPDW     -1.11466       0.00000          -1   0.00000       0.00000    
     40112 TIP3     2781     SWM4     H1       HDW      0.557330       1.00800           0   0.00000       0.00000    
     40113 TIP3     2781     SWM4     H2       HDW      0.557330       1.00800           0   0.00000       0.00000    
     40114 TIP3     2782     SWM4     OH2      ODW       1.71640       15.5994           0 -0.978253       1.30000    
     40115 TIP3     2782     SWM4     DOH2     DOH2     -1.71640      0.400000           0   0.00000       0.00000    
     40116 TIP3     2782     SWM4     OM       LPDW     -1.11466       0.00000          -1   0.00000       0.00000    
     40117 TIP3     2782     SWM4     H1       HDW      0.557330       1.00800           0   0.00000       0.00000    
     40118 TIP3     2782     SWM4     H2       HDW      0.557330       1.00800           0   0.00000       0.00000    
     40119 TIP3     2783     SWM4     OH2      ODW       1.71640       15.5994           0 -0.978253       1.30000    
     40120 TIP3     2783     SWM4     DOH2     DOH2     -1.71640      0.400000           0   0.00000       0.00000    
     40121 TIP3     2783     SWM4     OM       LPDW     -1.11466       0.00000          -1   0.00000       0.00000    
     40122 TIP3     2783     SWM4     H1       HDW      0.557330       1.00800           0   0.00000       0.00000    
     40123 TIP3     2783     SWM4     H2       HDW      0.557330       1.00800           0   0.00000       0.00000    
     40124 TIP3     2784     SWM4     OH2      ODW       1.71640       15.5994           0 -0.978253       1.30000    
     40125 TIP3     2784     SWM4     DOH2     DOH2     -1.71640      0.400000           0   0.00000       0.00000    
     40126 TIP3     2784     SWM4     OM       LPDW     -1.11466       0.00000          -1   0.00000       0.00000    
     40127 TIP3     2784     SWM4     H1       HDW      0.557330       1.00800           0   0.00000       0.00000    
     40128 TIP3     2784     SWM4     H2       HDW      0.557330       1.00800           0   0.00000       0.00000    
     40129 TIP3     2785     SWM4     OH2      ODW       1.71640       15.5994           0 -0.978253       1.30000    
     40130 TIP3     2785     SWM4     DOH2     DOH2     -1.71640      0.400000           0   0.00000       0.00000    
     40131 TIP3     2785     SWM4     OM       LPDW     -1.11466       0.00000          -1   0.00000       0.00000    
     40132 TIP3     2785     SWM4     H1       HDW      0.557330       1.00800           0   0.00000       0.00000    
     40133 TIP3     2785     SWM4     H2       HDW      0.557330       1.00800           0   0.00000       0.00000    
     40134 TIP3     2786     SWM4     OH2      ODW       1.71640       15.5994           0 -0.978253       1.30000    
     40135 TIP3     2786     SWM4     DOH2     DOH2     -1.71640      0.400000           0   0.00000       0.00000    
     40136 TIP3     2786     SWM4     OM       LPDW     -1.11466       0.00000          -1   0.00000       0.00000    
     40137 TIP3     2786     SWM4     H1       HDW      0.557330       1.00800           0   0.00000       0.00000    
     40138 TIP3     2786     SWM4     H2       HDW      0.557330       1.00800           0   0.00000       0.00000    
     40139 TIP3     2787     SWM4     OH2      ODW       1.71640       15.5994           0 -0.978253       1.30000    
     40140 TIP3     2787     SWM4     DOH2     DOH2     -1.71640      0.400000           0   0.00000       0.00000    
     40141 TIP3     2787     SWM4     OM       LPDW     -1.11466       0.00000          -1   0.00000       0.00000    
     40142 TIP3     2787     SWM4     H1       HDW      0.557330       1.00800           0   0.00000       0.00000    
     40143 TIP3     2787     SWM4     H2       HDW      0.557330       1.00800           0   0.00000       0.00000    
     40144 TIP3     2788     SWM4     OH2      ODW       1.71640       15.5994           0 -0.978253       1.30000    
     40145 TIP3     2788     SWM4     DOH2     DOH2     -1.71640      0.400000           0   0.00000       0.00000    
     40146 TIP3     2788     SWM4     OM       LPDW     -1.11466       0.00000          -1   0.00000       0.00000    
     40147 TIP3     2788     SWM4     H1       HDW      0.557330       1.00800           0   0.00000       0.00000    
     40148 TIP3     2788     SWM4     H2       HDW      0.557330       1.00800           0   0.00000       0.00000    
     40149 TIP3     2789     SWM4     OH2      ODW       1.71640       15.5994           0 -0.978253       1.30000    
     40150 TIP3     2789     SWM4     DOH2     DOH2     -1.71640      0.400000           0   0.00000       0.00000    
     40151 TIP3     2789     SWM4     OM       LPDW     -1.11466       0.00000          -1   0.00000       0.00000    
     40152 TIP3     2789     SWM4     H1       HDW      0.557330       1.00800           0   0.00000       0.00000    
     40153 TIP3     2789     SWM4     H2       HDW      0.557330       1.00800           0   0.00000       0.00000    
     40154 TIP3     2790     SWM4     OH2      ODW       1.71640       15.5994           0 -0.978253       1.30000    
     40155 TIP3     2790     SWM4     DOH2     DOH2     -1.71640      0.400000           0   0.00000       0.00000    
     40156 TIP3     2790     SWM4     OM       LPDW     -1.11466       0.00000          -1   0.00000       0.00000    
     40157 TIP3     2790     SWM4     H1       HDW      0.557330       1.00800           0   0.00000       0.00000    
     40158 TIP3     2790     SWM4     H2       HDW      0.557330       1.00800           0   0.00000       0.00000    
     40159 TIP3     2791     SWM4     OH2      ODW       1.71640       15.5994           0 -0.978253       1.30000    
     40160 TIP3     2791     SWM4     DOH2     DOH2     -1.71640      0.400000           0   0.00000       0.00000    
     40161 TIP3     2791     SWM4     OM       LPDW     -1.11466       0.00000          -1   0.00000       0.00000    
     40162 TIP3     2791     SWM4     H1       HDW      0.557330       1.00800           0   0.00000       0.00000    
     40163 TIP3     2791     SWM4     H2       HDW      0.557330       1.00800           0   0.00000       0.00000    
     40164 TIP3     2792     SWM4     OH2      ODW       1.71640       15.5994           0 -0.978253       1.30000    
     40165 TIP3     2792     SWM4     DOH2     DOH2     -1.71640      0.400000           0   0.00000       0.00000    
     40166 TIP3     2792     SWM4     OM       LPDW     -1.11466       0.00000          -1   0.00000       0.00000    
     40167 TIP3     2792     SWM4     H1       HDW      0.557330       1.00800           0   0.00000       0.00000    
     40168 TIP3     2792     SWM4     H2       HDW      0.557330       1.00800           0   0.00000       0.00000    
     40169 TIP3     2793     SWM4     OH2      ODW       1.71640       15.5994           0 -0.978253       1.30000    
     40170 TIP3     2793     SWM4     DOH2     DOH2     -1.71640      0.400000           0   0.00000       0.00000    
     40171 TIP3     2793     SWM4     OM       LPDW     -1.11466       0.00000          -1   0.00000       0.00000    
     40172 TIP3     2793     SWM4     H1       HDW      0.557330       1.00800           0   0.00000       0.00000    
     40173 TIP3     2793     SWM4     H2       HDW      0.557330       1.00800           0   0.00000       0.00000    
     40174 TIP3     2794     SWM4     OH2      ODW       1.71640       15.5994           0 -0.978253       1.30000    
     40175 TIP3     2794     SWM4     DOH2     DOH2     -1.71640      0.400000           0   0.00000       0.00000    
     40176 TIP3     2794     SWM4     OM       LPDW     -1.11466       0.00000          -1   0.00000       0.00000    
     40177 TIP3     2794     SWM4     H1       HDW      0.557330       1.00800           0   0.00000       0.00000    
     40178 TIP3     2794     SWM4     H2       HDW      0.557330       1.00800           0   0.00000       0.00000    
     40179 TIP3     2795     SWM4     OH2      ODW       1.71640       15.5994           0 -0.978253       1.30000    
     40180 TIP3     2795     SWM4     DOH2     DOH2     -1.71640      0.400000           0   0.00000       0.00000    
     40181 TIP3     2795     SWM4     OM       LPDW     -1.11466       0.00000          -1   0.00000       0.00000    
     40182 TIP3     2795     SWM4     H1       HDW      0.557330       1.00800           0   0.00000       0.00000    
     40183 TIP3     2795     SWM4     H2       HDW      0.557330       1.00800           0   0.00000       0.00000    
     40184 TIP3     2796     SWM4     OH2      ODW       1.71640       15.5994           0 -0.978253       1.30000    
     40185 TIP3     2796     SWM4     DOH2     DOH2     -1.71640      0.400000           0   0.00000       0.00000    
     40186 TIP3     2796     SWM4     OM       LPDW     -1.11466       0.00000          -1   0.00000       0.00000    
     40187 TIP3     2796     SWM4     H1       HDW      0.557330       1.00800           0   0.00000       0.00000    
     40188 TIP3     2796     SWM4     H2       HDW      0.557330       1.00800           0   0.00000       0.00000    
     40189 TIP3     2797     SWM4     OH2      ODW       1.71640       15.5994           0 -0.978253       1.30000    
     40190 TIP3     2797     SWM4     DOH2     DOH2     -1.71640      0.400000           0   0.00000       0.00000    
     40191 TIP3     2797     SWM4     OM       LPDW     -1.11466       0.00000          -1   0.00000       0.00000    
     40192 TIP3     2797     SWM4     H1       HDW      0.557330       1.00800           0   0.00000       0.00000    
     40193 TIP3     2797     SWM4     H2       HDW      0.557330       1.00800           0   0.00000       0.00000    
     40194 TIP3     2798     SWM4     OH2      ODW       1.71640       15.5994           0 -0.978253       1.30000    
     40195 TIP3     2798     SWM4     DOH2     DOH2     -1.71640      0.400000           0   0.00000       0.00000    
     40196 TIP3     2798     SWM4     OM       LPDW     -1.11466       0.00000          -1   0.00000       0.00000    
     40197 TIP3     2798     SWM4     H1       HDW      0.557330       1.00800           0   0.00000       0.00000    
     40198 TIP3     2798     SWM4     H2       HDW      0.557330       1.00800           0   0.00000       0.00000    
     40199 TIP3     2799     SWM4     OH2      ODW       1.71640       15.5994           0 -0.978253       1.30000    
     40200 TIP3     2799     SWM4     DOH2     DOH2     -1.71640      0.400000           0   0.00000       0.00000    
     40201 TIP3     2799     SWM4     OM       LPDW     -1.11466       0.00000          -1   0.00000       0.00000    
     40202 TIP3     2799     SWM4     H1       HDW      0.557330       1.00800           0   0.00000       0.00000    
     40203 TIP3     2799     SWM4     H2       HDW      0.557330       1.00800           0   0.00000       0.00000    
     40204 TIP3     2800     SWM4     OH2      ODW       1.71640       15.5994           0 -0.978253       1.30000    
     40205 TIP3     2800     SWM4     DOH2     DOH2     -1.71640      0.400000           0   0.00000       0.00000    
     40206 TIP3     2800     SWM4     OM       LPDW     -1.11466       0.00000          -1   0.00000       0.00000    
     40207 TIP3     2800     SWM4     H1       HDW      0.557330       1.00800           0   0.00000       0.00000    
     40208 TIP3     2800     SWM4     H2       HDW      0.557330       1.00800           0   0.00000       0.00000    
     40209 TIP3     2801     SWM4     OH2      ODW       1.71640       15.5994           0 -0.978253       1.30000    
     40210 TIP3     2801     SWM4     DOH2     DOH2     -1.71640      0.400000           0   0.00000       0.00000    
     40211 TIP3     2801     SWM4     OM       LPDW     -1.11466       0.00000          -1   0.00000       0.00000    
     40212 TIP3     2801     SWM4     H1       HDW      0.557330       1.00800           0   0.00000       0.00000    
     40213 TIP3     2801     SWM4     H2       HDW      0.557330       1.00800           0   0.00000       0.00000    
     40214 TIP3     2802     SWM4     OH2      ODW       1.71640       15.5994           0 -0.978253       1.30000    
     40215 TIP3     2802     SWM4     DOH2     DOH2     -1.71640      0.400000           0   0.00000       0.00000    
     40216 TIP3     2802     SWM4     OM       LPDW     -1.11466       0.00000          -1   0.00000       0.00000    
     40217 TIP3     2802     SWM4     H1       HDW      0.557330       1.00800           0   0.00000       0.00000    
     40218 TIP3     2802     SWM4     H2       HDW      0.557330       1.00800           0   0.00000       0.00000    
     40219 TIP3     2803     SWM4     OH2      ODW       1.71640       15.5994           0 -0.978253       1.30000    
     40220 TIP3     2803     SWM4     DOH2     DOH2     -1.71640      0.400000           0   0.00000       0.00000    
     40221 TIP3     2803     SWM4     OM       LPDW     -1.11466       0.00000          -1   0.00000       0.00000    
     40222 TIP3     2803     SWM4     H1       HDW      0.557330       1.00800           0   0.00000       0.00000    
     40223 TIP3     2803     SWM4     H2       HDW      0.557330       1.00800           0   0.00000       0.00000    
     40224 TIP3     2804     SWM4     OH2      ODW       1.71640       15.5994           0 -0.978253       1.30000    
     40225 TIP3     2804     SWM4     DOH2     DOH2     -1.71640      0.400000           0   0.00000       0.00000    
     40226 TIP3     2804     SWM4     OM       LPDW     -1.11466       0.00000          -1   0.00000       0.00000    
     40227 TIP3     2804     SWM4     H1       HDW      0.557330       1.00800           0   0.00000       0.00000    
     40228 TIP3     2804     SWM4     H2       HDW      0.557330       1.00800           0   0.00000       0.00000    
     40229 TIP3     2805     SWM4     OH2      ODW       1.71640       15.5994           0 -0.978253       1.30000    
     40230 TIP3     2805     SWM4     DOH2     DOH2     -1.71640      0.400000           0   0.00000       0.00000    
     40231 TIP3     2805     SWM4     OM       LPDW     -1.11466       0.00000          -1   0.00000       0.00000    
     40232 TIP3     2805     SWM4     H1       HDW      0.557330       1.00800           0   0.00000       0.00000    
     40233 TIP3     2805     SWM4     H2       HDW      0.557330       1.00800           0   0.00000       0.00000    
     40234 TIP3     2806     SWM4     OH2      ODW       1.71640       15.5994           0 -0.978253       1.30000    
     40235 TIP3     2806     SWM4     DOH2     DOH2     -1.71640      0.400000           0   0.00000       0.00000    
     40236 TIP3     2806     SWM4     OM       LPDW     -1.11466       0.00000          -1   0.00000       0.00000    
     40237 TIP3     2806     SWM4     H1       HDW      0.557330       1.00800           0   0.00000       0.00000    
     40238 TIP3     2806     SWM4     H2       HDW      0.557330       1.00800           0   0.00000       0.00000    
     40239 TIP3     2807     SWM4     OH2      ODW       1.71640       15.5994           0 -0.978253       1.30000    
     40240 TIP3     2807     SWM4     DOH2     DOH2     -1.71640      0.400000           0   0.00000       0.00000    
     40241 TIP3     2807     SWM4     OM       LPDW     -1.11466       0.00000          -1   0.00000       0.00000    
     40242 TIP3     2807     SWM4     H1       HDW      0.557330       1.00800           0   0.00000       0.00000    
     40243 TIP3     2807     SWM4     H2       HDW      0.557330       1.00800           0   0.00000       0.00000    
     40244 TIP3     2808     SWM4     OH2      ODW       1.71640       15.5994           0 -0.978253       1.30000    
     40245 TIP3     2808     SWM4     DOH2     DOH2     -1.71640      0.400000           0   0.00000       0.00000    
     40246 TIP3     2808     SWM4     OM       LPDW     -1.11466       0.00000          -1   0.00000       0.00000    
     40247 TIP3     2808     SWM4     H1       HDW      0.557330       1.00800           0   0.00000       0.00000    
     40248 TIP3     2808     SWM4     H2       HDW      0.557330       1.00800           0   0.00000       0.00000    
     40249 TIP3     2809     SWM4     OH2      ODW       1.71640       15.5994           0 -0.978253       1.30000    
     40250 TIP3     2809     SWM4     DOH2     DOH2     -1.71640      0.400000           0   0.00000       0.00000    
     40251 TIP3     2809     SWM4     OM       LPDW     -1.11466       0.00000          -1   0.00000       0.00000    
     40252 TIP3     2809     SWM4     H1       HDW      0.557330       1.00800           0   0.00000       0.00000    
     40253 TIP3     2809     SWM4     H2       HDW      0.557330       1.00800           0   0.00000       0.00000    
     40254 TIP3     2810     SWM4     OH2      ODW       1.71640       15.5994           0 -0.978253       1.30000    
     40255 TIP3     2810     SWM4     DOH2     DOH2     -1.71640      0.400000           0   0.00000       0.00000    
     40256 TIP3     2810     SWM4     OM       LPDW     -1.11466       0.00000          -1   0.00000       0.00000    
     40257 TIP3     2810     SWM4     H1       HDW      0.557330       1.00800           0   0.00000       0.00000    
     40258 TIP3     2810     SWM4     H2       HDW      0.557330       1.00800           0   0.00000       0.00000    
     40259 TIP3     2811     SWM4     OH2      ODW       1.71640       15.5994           0 -0.978253       1.30000    
     40260 TIP3     2811     SWM4     DOH2     DOH2     -1.71640      0.400000           0   0.00000       0.00000    
     40261 TIP3     2811     SWM4     OM       LPDW     -1.11466       0.00000          -1   0.00000       0.00000    
     40262 TIP3     2811     SWM4     H1       HDW      0.557330       1.00800           0   0.00000       0.00000    
     40263 TIP3     2811     SWM4     H2       HDW      0.557330       1.00800           0   0.00000       0.00000    
     40264 TIP3     2812     SWM4     OH2      ODW       1.71640       15.5994           0 -0.978253       1.30000    
     40265 TIP3     2812     SWM4     DOH2     DOH2     -1.71640      0.400000           0   0.00000       0.00000    
     40266 TIP3     2812     SWM4     OM       LPDW     -1.11466       0.00000          -1   0.00000       0.00000    
     40267 TIP3     2812     SWM4     H1       HDW      0.557330       1.00800           0   0.00000       0.00000    
     40268 TIP3     2812     SWM4     H2       HDW      0.557330       1.00800           0   0.00000       0.00000    
     40269 TIP3     2813     SWM4     OH2      ODW       1.71640       15.5994           0 -0.978253       1.30000    
     40270 TIP3     2813     SWM4     DOH2     DOH2     -1.71640      0.400000           0   0.00000       0.00000    
     40271 TIP3     2813     SWM4     OM       LPDW     -1.11466       0.00000          -1   0.00000       0.00000    
     40272 TIP3     2813     SWM4     H1       HDW      0.557330       1.00800           0   0.00000       0.00000    
     40273 TIP3     2813     SWM4     H2       HDW      0.557330       1.00800           0   0.00000       0.00000    
     40274 TIP3     2814     SWM4     OH2      ODW       1.71640       15.5994           0 -0.978253       1.30000    
     40275 TIP3     2814     SWM4     DOH2     DOH2     -1.71640      0.400000           0   0.00000       0.00000    
     40276 TIP3     2814     SWM4     OM       LPDW     -1.11466       0.00000          -1   0.00000       0.00000    
     40277 TIP3     2814     SWM4     H1       HDW      0.557330       1.00800           0   0.00000       0.00000    
     40278 TIP3     2814     SWM4     H2       HDW      0.557330       1.00800           0   0.00000       0.00000    
     40279 TIP3     2815     SWM4     OH2      ODW       1.71640       15.5994           0 -0.978253       1.30000    
     40280 TIP3     2815     SWM4     DOH2     DOH2     -1.71640      0.400000           0   0.00000       0.00000    
     40281 TIP3     2815     SWM4     OM       LPDW     -1.11466       0.00000          -1   0.00000       0.00000    
     40282 TIP3     2815     SWM4     H1       HDW      0.557330       1.00800           0   0.00000       0.00000    
     40283 TIP3     2815     SWM4     H2       HDW      0.557330       1.00800           0   0.00000       0.00000    
     40284 TIP3     2816     SWM4     OH2      ODW       1.71640       15.5994           0 -0.978253       1.30000    
     40285 TIP3     2816     SWM4     DOH2     DOH2     -1.71640      0.400000           0   0.00000       0.00000    
     40286 TIP3     2816     SWM4     OM       LPDW     -1.11466       0.00000          -1   0.00000       0.00000    
     40287 TIP3     2816     SWM4     H1       HDW      0.557330       1.00800           0   0.00000       0.00000    
     40288 TIP3     2816     SWM4     H2       HDW      0.557330       1.00800           0   0.00000       0.00000    
     40289 TIP3     2817     SWM4     OH2      ODW       1.71640       15.5994           0 -0.978253       1.30000    
     40290 TIP3     2817     SWM4     DOH2     DOH2     -1.71640      0.400000           0   0.00000       0.00000    
     40291 TIP3     2817     SWM4     OM       LPDW     -1.11466       0.00000          -1   0.00000       0.00000    
     40292 TIP3     2817     SWM4     H1       HDW      0.557330       1.00800           0   0.00000       0.00000    
     40293 TIP3     2817     SWM4     H2       HDW      0.557330       1.00800           0   0.00000       0.00000    
     40294 TIP3     2818     SWM4     OH2      ODW       1.71640       15.5994           0 -0.978253       1.30000    
     40295 TIP3     2818     SWM4     DOH2     DOH2     -1.71640      0.400000           0   0.00000       0.00000    
     40296 TIP3     2818     SWM4     OM       LPDW     -1.11466       0.00000          -1   0.00000       0.00000    
     40297 TIP3     2818     SWM4     H1       HDW      0.557330       1.00800           0   0.00000       0.00000    
     40298 TIP3     2818     SWM4     H2       HDW      0.557330       1.00800           0   0.00000       0.00000    
     40299 TIP3     2819     SWM4     OH2      ODW       1.71640       15.5994           0 -0.978253       1.30000    
     40300 TIP3     2819     SWM4     DOH2     DOH2     -1.71640      0.400000           0   0.00000       0.00000    
     40301 TIP3     2819     SWM4     OM       LPDW     -1.11466       0.00000          -1   0.00000       0.00000    
     40302 TIP3     2819     SWM4     H1       HDW      0.557330       1.00800           0   0.00000       0.00000    
     40303 TIP3     2819     SWM4     H2       HDW      0.557330       1.00800           0   0.00000       0.00000    
     40304 TIP3     2820     SWM4     OH2      ODW       1.71640       15.5994           0 -0.978253       1.30000    
     40305 TIP3     2820     SWM4     DOH2     DOH2     -1.71640      0.400000           0   0.00000       0.00000    
     40306 TIP3     2820     SWM4     OM       LPDW     -1.11466       0.00000          -1   0.00000       0.00000    
     40307 TIP3     2820     SWM4     H1       HDW      0.557330       1.00800           0   0.00000       0.00000    
     40308 TIP3     2820     SWM4     H2       HDW      0.557330       1.00800           0   0.00000       0.00000    
     40309 TIP3     2821     SWM4     OH2      ODW       1.71640       15.5994           0 -0.978253       1.30000    
     40310 TIP3     2821     SWM4     DOH2     DOH2     -1.71640      0.400000           0   0.00000       0.00000    
     40311 TIP3     2821     SWM4     OM       LPDW     -1.11466       0.00000          -1   0.00000       0.00000    
     40312 TIP3     2821     SWM4     H1       HDW      0.557330       1.00800           0   0.00000       0.00000    
     40313 TIP3     2821     SWM4     H2       HDW      0.557330       1.00800           0   0.00000       0.00000    
     40314 TIP3     2822     SWM4     OH2      ODW       1.71640       15.5994           0 -0.978253       1.30000    
     40315 TIP3     2822     SWM4     DOH2     DOH2     -1.71640      0.400000           0   0.00000       0.00000    
     40316 TIP3     2822     SWM4     OM       LPDW     -1.11466       0.00000          -1   0.00000       0.00000    
     40317 TIP3     2822     SWM4     H1       HDW      0.557330       1.00800           0   0.00000       0.00000    
     40318 TIP3     2822     SWM4     H2       HDW      0.557330       1.00800           0   0.00000       0.00000    
     40319 TIP3     2823     SWM4     OH2      ODW       1.71640       15.5994           0 -0.978253       1.30000    
     40320 TIP3     2823     SWM4     DOH2     DOH2     -1.71640      0.400000           0   0.00000       0.00000    
     40321 TIP3     2823     SWM4     OM       LPDW     -1.11466       0.00000          -1   0.00000       0.00000    
     40322 TIP3     2823     SWM4     H1       HDW      0.557330       1.00800           0   0.00000       0.00000    
     40323 TIP3     2823     SWM4     H2       HDW      0.557330       1.00800           0   0.00000       0.00000    
     40324 TIP3     2824     SWM4     OH2      ODW       1.71640       15.5994           0 -0.978253       1.30000    
     40325 TIP3     2824     SWM4     DOH2     DOH2     -1.71640      0.400000           0   0.00000       0.00000    
     40326 TIP3     2824     SWM4     OM       LPDW     -1.11466       0.00000          -1   0.00000       0.00000    
     40327 TIP3     2824     SWM4     H1       HDW      0.557330       1.00800           0   0.00000       0.00000    
     40328 TIP3     2824     SWM4     H2       HDW      0.557330       1.00800           0   0.00000       0.00000    
     40329 TIP3     2825     SWM4     OH2      ODW       1.71640       15.5994           0 -0.978253       1.30000    
     40330 TIP3     2825     SWM4     DOH2     DOH2     -1.71640      0.400000           0   0.00000       0.00000    
     40331 TIP3     2825     SWM4     OM       LPDW     -1.11466       0.00000          -1   0.00000       0.00000    
     40332 TIP3     2825     SWM4     H1       HDW      0.557330       1.00800           0   0.00000       0.00000    
     40333 TIP3     2825     SWM4     H2       HDW      0.557330       1.00800           0   0.00000       0.00000    
     40334 TIP3     2826     SWM4     OH2      ODW       1.71640       15.5994           0 -0.978253       1.30000    
     40335 TIP3     2826     SWM4     DOH2     DOH2     -1.71640      0.400000           0   0.00000       0.00000    
     40336 TIP3     2826     SWM4     OM       LPDW     -1.11466       0.00000          -1   0.00000       0.00000    
     40337 TIP3     2826     SWM4     H1       HDW      0.557330       1.00800           0   0.00000       0.00000    
     40338 TIP3     2826     SWM4     H2       HDW      0.557330       1.00800           0   0.00000       0.00000    
     40339 TIP3     2827     SWM4     OH2      ODW       1.71640       15.5994           0 -0.978253       1.30000    
     40340 TIP3     2827     SWM4     DOH2     DOH2     -1.71640      0.400000           0   0.00000       0.00000    
     40341 TIP3     2827     SWM4     OM       LPDW     -1.11466       0.00000          -1   0.00000       0.00000    
     40342 TIP3     2827     SWM4     H1       HDW      0.557330       1.00800           0   0.00000       0.00000    
     40343 TIP3     2827     SWM4     H2       HDW      0.557330       1.00800           0   0.00000       0.00000    
     40344 TIP3     2828     SWM4     OH2      ODW       1.71640       15.5994           0 -0.978253       1.30000    
     40345 TIP3     2828     SWM4     DOH2     DOH2     -1.71640      0.400000           0   0.00000       0.00000    
     40346 TIP3     2828     SWM4     OM       LPDW     -1.11466       0.00000          -1   0.00000       0.00000    
     40347 TIP3     2828     SWM4     H1       HDW      0.557330       1.00800           0   0.00000       0.00000    
     40348 TIP3     2828     SWM4     H2       HDW      0.557330       1.00800           0   0.00000       0.00000    
     40349 TIP3     2829     SWM4     OH2      ODW       1.71640       15.5994           0 -0.978253       1.30000    
     40350 TIP3     2829     SWM4     DOH2     DOH2     -1.71640      0.400000           0   0.00000       0.00000    
     40351 TIP3     2829     SWM4     OM       LPDW     -1.11466       0.00000          -1   0.00000       0.00000    
     40352 TIP3     2829     SWM4     H1       HDW      0.557330       1.00800           0   0.00000       0.00000    
     40353 TIP3     2829     SWM4     H2       HDW      0.557330       1.00800           0   0.00000       0.00000    
     40354 TIP3     2830     SWM4     OH2      ODW       1.71640       15.5994           0 -0.978253       1.30000    
     40355 TIP3     2830     SWM4     DOH2     DOH2     -1.71640      0.400000           0   0.00000       0.00000    
     40356 TIP3     2830     SWM4     OM       LPDW     -1.11466       0.00000          -1   0.00000       0.00000    
     40357 TIP3     2830     SWM4     H1       HDW      0.557330       1.00800           0   0.00000       0.00000    
     40358 TIP3     2830     SWM4     H2       HDW      0.557330       1.00800           0   0.00000       0.00000    
     40359 TIP3     2831     SWM4     OH2      ODW       1.71640       15.5994           0 -0.978253       1.30000    
     40360 TIP3     2831     SWM4     DOH2     DOH2     -1.71640      0.400000           0   0.00000       0.00000    
     40361 TIP3     2831     SWM4     OM       LPDW     -1.11466       0.00000          -1   0.00000       0.00000    
     40362 TIP3     2831     SWM4     H1       HDW      0.557330       1.00800           0   0.00000       0.00000    
     40363 TIP3     2831     SWM4     H2       HDW      0.557330       1.00800           0   0.00000       0.00000    
     40364 TIP3     2832     SWM4     OH2      ODW       1.71640       15.5994           0 -0.978253       1.30000    
     40365 TIP3     2832     SWM4     DOH2     DOH2     -1.71640      0.400000           0   0.00000       0.00000    
     40366 TIP3     2832     SWM4     OM       LPDW     -1.11466       0.00000          -1   0.00000       0.00000    
     40367 TIP3     2832     SWM4     H1       HDW      0.557330       1.00800           0   0.00000       0.00000    
     40368 TIP3     2832     SWM4     H2       HDW      0.557330       1.00800           0   0.00000       0.00000    
     40369 TIP3     2833     SWM4     OH2      ODW       1.71640       15.5994           0 -0.978253       1.30000    
     40370 TIP3     2833     SWM4     DOH2     DOH2     -1.71640      0.400000           0   0.00000       0.00000    
     40371 TIP3     2833     SWM4     OM       LPDW     -1.11466       0.00000          -1   0.00000       0.00000    
     40372 TIP3     2833     SWM4     H1       HDW      0.557330       1.00800           0   0.00000       0.00000    
     40373 TIP3     2833     SWM4     H2       HDW      0.557330       1.00800           0   0.00000       0.00000    
     40374 TIP3     2834     SWM4     OH2      ODW       1.71640       15.5994           0 -0.978253       1.30000    
     40375 TIP3     2834     SWM4     DOH2     DOH2     -1.71640      0.400000           0   0.00000       0.00000    
     40376 TIP3     2834     SWM4     OM       LPDW     -1.11466       0.00000          -1   0.00000       0.00000    
     40377 TIP3     2834     SWM4     H1       HDW      0.557330       1.00800           0   0.00000       0.00000    
     40378 TIP3     2834     SWM4     H2       HDW      0.557330       1.00800           0   0.00000       0.00000    
     40379 TIP3     2835     SWM4     OH2      ODW       1.71640       15.5994           0 -0.978253       1.30000    
     40380 TIP3     2835     SWM4     DOH2     DOH2     -1.71640      0.400000           0   0.00000       0.00000    
     40381 TIP3     2835     SWM4     OM       LPDW     -1.11466       0.00000          -1   0.00000       0.00000    
     40382 TIP3     2835     SWM4     H1       HDW      0.557330       1.00800           0   0.00000       0.00000    
     40383 TIP3     2835     SWM4     H2       HDW      0.557330       1.00800           0   0.00000       0.00000    
     40384 TIP3     2836     SWM4     OH2      ODW       1.71640       15.5994           0 -0.978253       1.30000    
     40385 TIP3     2836     SWM4     DOH2     DOH2     -1.71640      0.400000           0   0.00000       0.00000    
     40386 TIP3     2836     SWM4     OM       LPDW     -1.11466       0.00000          -1   0.00000       0.00000    
     40387 TIP3     2836     SWM4     H1       HDW      0.557330       1.00800           0   0.00000       0.00000    
     40388 TIP3     2836     SWM4     H2       HDW      0.557330       1.00800           0   0.00000       0.00000    
     40389 TIP3     2837     SWM4     OH2      ODW       1.71640       15.5994           0 -0.978253       1.30000    
     40390 TIP3     2837     SWM4     DOH2     DOH2     -1.71640      0.400000           0   0.00000       0.00000    
     40391 TIP3     2837     SWM4     OM       LPDW     -1.11466       0.00000          -1   0.00000       0.00000    
     40392 TIP3     2837     SWM4     H1       HDW      0.557330       1.00800           0   0.00000       0.00000    
     40393 TIP3     2837     SWM4     H2       HDW      0.557330       1.00800           0   0.00000       0.00000    
     40394 TIP3     2838     SWM4     OH2      ODW       1.71640       15.5994           0 -0.978253       1.30000    
     40395 TIP3     2838     SWM4     DOH2     DOH2     -1.71640      0.400000           0   0.00000       0.00000    
     40396 TIP3     2838     SWM4     OM       LPDW     -1.11466       0.00000          -1   0.00000       0.00000    
     40397 TIP3     2838     SWM4     H1       HDW      0.557330       1.00800           0   0.00000       0.00000    
     40398 TIP3     2838     SWM4     H2       HDW      0.557330       1.00800           0   0.00000       0.00000    
     40399 TIP3     2839     SWM4     OH2      ODW       1.71640       15.5994           0 -0.978253       1.30000    
     40400 TIP3     2839     SWM4     DOH2     DOH2     -1.71640      0.400000           0   0.00000       0.00000    
     40401 TIP3     2839     SWM4     OM       LPDW     -1.11466       0.00000          -1   0.00000       0.00000    
     40402 TIP3     2839     SWM4     H1       HDW      0.557330       1.00800           0   0.00000       0.00000    
     40403 TIP3     2839     SWM4     H2       HDW      0.557330       1.00800           0   0.00000       0.00000    
     40404 TIP3     2840     SWM4     OH2      ODW       1.71640       15.5994           0 -0.978253       1.30000    
     40405 TIP3     2840     SWM4     DOH2     DOH2     -1.71640      0.400000           0   0.00000       0.00000    
     40406 TIP3     2840     SWM4     OM       LPDW     -1.11466       0.00000          -1   0.00000       0.00000    
     40407 TIP3     2840     SWM4     H1       HDW      0.557330       1.00800           0   0.00000       0.00000    
     40408 TIP3     2840     SWM4     H2       HDW      0.557330       1.00800           0   0.00000       0.00000    
     40409 TIP3     2841     SWM4     OH2      ODW       1.71640       15.5994           0 -0.978253       1.30000    
     40410 TIP3     2841     SWM4     DOH2     DOH2     -1.71640      0.400000           0   0.00000       0.00000    
     40411 TIP3     2841     SWM4     OM       LPDW     -1.11466       0.00000          -1   0.00000       0.00000    
     40412 TIP3     2841     SWM4     H1       HDW      0.557330       1.00800           0   0.00000       0.00000    
     40413 TIP3     2841     SWM4     H2       HDW      0.557330       1.00800           0   0.00000       0.00000    
     40414 TIP3     2842     SWM4     OH2      ODW       1.71640       15.5994           0 -0.978253       1.30000    
     40415 TIP3     2842     SWM4     DOH2     DOH2     -1.71640      0.400000           0   0.00000       0.00000    
     40416 TIP3     2842     SWM4     OM       LPDW     -1.11466       0.00000          -1   0.00000       0.00000    
     40417 TIP3     2842     SWM4     H1       HDW      0.557330       1.00800           0   0.00000       0.00000    
     40418 TIP3     2842     SWM4     H2       HDW      0.557330       1.00800           0   0.00000       0.00000    
     40419 TIP3     2843     SWM4     OH2      ODW       1.71640       15.5994           0 -0.978253       1.30000    
     40420 TIP3     2843     SWM4     DOH2     DOH2     -1.71640      0.400000           0   0.00000       0.00000    
     40421 TIP3     2843     SWM4     OM       LPDW     -1.11466       0.00000          -1   0.00000       0.00000    
     40422 TIP3     2843     SWM4     H1       HDW      0.557330       1.00800           0   0.00000       0.00000    
     40423 TIP3     2843     SWM4     H2       HDW      0.557330       1.00800           0   0.00000       0.00000    
     40424 TIP3     2844     SWM4     OH2      ODW       1.71640       15.5994           0 -0.978253       1.30000    
     40425 TIP3     2844     SWM4     DOH2     DOH2     -1.71640      0.400000           0   0.00000       0.00000    
     40426 TIP3     2844     SWM4     OM       LPDW     -1.11466       0.00000          -1   0.00000       0.00000    
     40427 TIP3     2844     SWM4     H1       HDW      0.557330       1.00800           0   0.00000       0.00000    
     40428 TIP3     2844     SWM4     H2       HDW      0.557330       1.00800           0   0.00000       0.00000    
     40429 TIP3     2845     SWM4     OH2      ODW       1.71640       15.5994           0 -0.978253       1.30000    
     40430 TIP3     2845     SWM4     DOH2     DOH2     -1.71640      0.400000           0   0.00000       0.00000    
     40431 TIP3     2845     SWM4     OM       LPDW     -1.11466       0.00000          -1   0.00000       0.00000    
     40432 TIP3     2845     SWM4     H1       HDW      0.557330       1.00800           0   0.00000       0.00000    
     40433 TIP3     2845     SWM4     H2       HDW      0.557330       1.00800           0   0.00000       0.00000    
     40434 TIP3     2846     SWM4     OH2      ODW       1.71640       15.5994           0 -0.978253       1.30000    
     40435 TIP3     2846     SWM4     DOH2     DOH2     -1.71640      0.400000           0   0.00000       0.00000    
     40436 TIP3     2846     SWM4     OM       LPDW     -1.11466       0.00000          -1   0.00000       0.00000    
     40437 TIP3     2846     SWM4     H1       HDW      0.557330       1.00800           0   0.00000       0.00000    
     40438 TIP3     2846     SWM4     H2       HDW      0.557330       1.00800           0   0.00000       0.00000    
     40439 TIP3     2847     SWM4     OH2      ODW       1.71640       15.5994           0 -0.978253       1.30000    
     40440 TIP3     2847     SWM4     DOH2     DOH2     -1.71640      0.400000           0   0.00000       0.00000    
     40441 TIP3     2847     SWM4     OM       LPDW     -1.11466       0.00000          -1   0.00000       0.00000    
     40442 TIP3     2847     SWM4     H1       HDW      0.557330       1.00800           0   0.00000       0.00000    
     40443 TIP3     2847     SWM4     H2       HDW      0.557330       1.00800           0   0.00000       0.00000    
     40444 TIP3     2848     SWM4     OH2      ODW       1.71640       15.5994           0 -0.978253       1.30000    
     40445 TIP3     2848     SWM4     DOH2     DOH2     -1.71640      0.400000           0   0.00000       0.00000    
     40446 TIP3     2848     SWM4     OM       LPDW     -1.11466       0.00000          -1   0.00000       0.00000    
     40447 TIP3     2848     SWM4     H1       HDW      0.557330       1.00800           0   0.00000       0.00000    
     40448 TIP3     2848     SWM4     H2       HDW      0.557330       1.00800           0   0.00000       0.00000    
     40449 TIP3     2849     SWM4     OH2      ODW       1.71640       15.5994           0 -0.978253       1.30000    
     40450 TIP3     2849     SWM4     DOH2     DOH2     -1.71640      0.400000           0   0.00000       0.00000    
     40451 TIP3     2849     SWM4     OM       LPDW     -1.11466       0.00000          -1   0.00000       0.00000    
     40452 TIP3     2849     SWM4     H1       HDW      0.557330       1.00800           0   0.00000       0.00000    
     40453 TIP3     2849     SWM4     H2       HDW      0.557330       1.00800           0   0.00000       0.00000    
     40454 TIP3     2850     SWM4     OH2      ODW       1.71640       15.5994           0 -0.978253       1.30000    
     40455 TIP3     2850     SWM4     DOH2     DOH2     -1.71640      0.400000           0   0.00000       0.00000    
     40456 TIP3     2850     SWM4     OM       LPDW     -1.11466       0.00000          -1   0.00000       0.00000    
     40457 TIP3     2850     SWM4     H1       HDW      0.557330       1.00800           0   0.00000       0.00000    
     40458 TIP3     2850     SWM4     H2       HDW      0.557330       1.00800           0   0.00000       0.00000    
     40459 TIP3     2851     SWM4     OH2      ODW       1.71640       15.5994           0 -0.978253       1.30000    
     40460 TIP3     2851     SWM4     DOH2     DOH2     -1.71640      0.400000           0   0.00000       0.00000    
     40461 TIP3     2851     SWM4     OM       LPDW     -1.11466       0.00000          -1   0.00000       0.00000    
     40462 TIP3     2851     SWM4     H1       HDW      0.557330       1.00800           0   0.00000       0.00000    
     40463 TIP3     2851     SWM4     H2       HDW      0.557330       1.00800           0   0.00000       0.00000    
     40464 TIP3     2852     SWM4     OH2      ODW       1.71640       15.5994           0 -0.978253       1.30000    
     40465 TIP3     2852     SWM4     DOH2     DOH2     -1.71640      0.400000           0   0.00000       0.00000    
     40466 TIP3     2852     SWM4     OM       LPDW     -1.11466       0.00000          -1   0.00000       0.00000    
     40467 TIP3     2852     SWM4     H1       HDW      0.557330       1.00800           0   0.00000       0.00000    
     40468 TIP3     2852     SWM4     H2       HDW      0.557330       1.00800           0   0.00000       0.00000    
     40469 TIP3     2853     SWM4     OH2      ODW       1.71640       15.5994           0 -0.978253       1.30000    
     40470 TIP3     2853     SWM4     DOH2     DOH2     -1.71640      0.400000           0   0.00000       0.00000    
     40471 TIP3     2853     SWM4     OM       LPDW     -1.11466       0.00000          -1   0.00000       0.00000    
     40472 TIP3     2853     SWM4     H1       HDW      0.557330       1.00800           0   0.00000       0.00000    
     40473 TIP3     2853     SWM4     H2       HDW      0.557330       1.00800           0   0.00000       0.00000    
     40474 TIP3     2854     SWM4     OH2      ODW       1.71640       15.5994           0 -0.978253       1.30000    
     40475 TIP3     2854     SWM4     DOH2     DOH2     -1.71640      0.400000           0   0.00000       0.00000    
     40476 TIP3     2854     SWM4     OM       LPDW     -1.11466       0.00000          -1   0.00000       0.00000    
     40477 TIP3     2854     SWM4     H1       HDW      0.557330       1.00800           0   0.00000       0.00000    
     40478 TIP3     2854     SWM4     H2       HDW      0.557330       1.00800           0   0.00000       0.00000    
     40479 TIP3     2855     SWM4     OH2      ODW       1.71640       15.5994           0 -0.978253       1.30000    
     40480 TIP3     2855     SWM4     DOH2     DOH2     -1.71640      0.400000           0   0.00000       0.00000    
     40481 TIP3     2855     SWM4     OM       LPDW     -1.11466       0.00000          -1   0.00000       0.00000    
     40482 TIP3     2855     SWM4     H1       HDW      0.557330       1.00800           0   0.00000       0.00000    
     40483 TIP3     2855     SWM4     H2       HDW      0.557330       1.00800           0   0.00000       0.00000    
     40484 TIP3     2856     SWM4     OH2      ODW       1.71640       15.5994           0 -0.978253       1.30000    
     40485 TIP3     2856     SWM4     DOH2     DOH2     -1.71640      0.400000           0   0.00000       0.00000    
     40486 TIP3     2856     SWM4     OM       LPDW     -1.11466       0.00000          -1   0.00000       0.00000    
     40487 TIP3     2856     SWM4     H1       HDW      0.557330       1.00800           0   0.00000       0.00000    
     40488 TIP3     2856     SWM4     H2       HDW      0.557330       1.00800           0   0.00000       0.00000    
     40489 TIP3     2857     SWM4     OH2      ODW       1.71640       15.5994           0 -0.978253       1.30000    
     40490 TIP3     2857     SWM4     DOH2     DOH2     -1.71640      0.400000           0   0.00000       0.00000    
     40491 TIP3     2857     SWM4     OM       LPDW     -1.11466       0.00000          -1   0.00000       0.00000    
     40492 TIP3     2857     SWM4     H1       HDW      0.557330       1.00800           0   0.00000       0.00000    
     40493 TIP3     2857     SWM4     H2       HDW      0.557330       1.00800           0   0.00000       0.00000    
     40494 TIP3     2858     SWM4     OH2      ODW       1.71640       15.5994           0 -0.978253       1.30000    
     40495 TIP3     2858     SWM4     DOH2     DOH2     -1.71640      0.400000           0   0.00000       0.00000    
     40496 TIP3     2858     SWM4     OM       LPDW     -1.11466       0.00000          -1   0.00000       0.00000    
     40497 TIP3     2858     SWM4     H1       HDW      0.557330       1.00800           0   0.00000       0.00000    
     40498 TIP3     2858     SWM4     H2       HDW      0.557330       1.00800           0   0.00000       0.00000    
     40499 TIP3     2859     SWM4     OH2      ODW       1.71640       15.5994           0 -0.978253       1.30000    
     40500 TIP3     2859     SWM4     DOH2     DOH2     -1.71640      0.400000           0   0.00000       0.00000    
     40501 TIP3     2859     SWM4     OM       LPDW     -1.11466       0.00000          -1   0.00000       0.00000    
     40502 TIP3     2859     SWM4     H1       HDW      0.557330       1.00800           0   0.00000       0.00000    
     40503 TIP3     2859     SWM4     H2       HDW      0.557330       1.00800           0   0.00000       0.00000    
     40504 TIP3     2860     SWM4     OH2      ODW       1.71640       15.5994           0 -0.978253       1.30000    
     40505 TIP3     2860     SWM4     DOH2     DOH2     -1.71640      0.400000           0   0.00000       0.00000    
     40506 TIP3     2860     SWM4     OM       LPDW     -1.11466       0.00000          -1   0.00000       0.00000    
     40507 TIP3     2860     SWM4     H1       HDW      0.557330       1.00800           0   0.00000       0.00000    
     40508 TIP3     2860     SWM4     H2       HDW      0.557330       1.00800           0   0.00000       0.00000    
     40509 TIP3     2861     SWM4     OH2      ODW       1.71640       15.5994           0 -0.978253       1.30000    
     40510 TIP3     2861     SWM4     DOH2     DOH2     -1.71640      0.400000           0   0.00000       0.00000    
     40511 TIP3     2861     SWM4     OM       LPDW     -1.11466       0.00000          -1   0.00000       0.00000    
     40512 TIP3     2861     SWM4     H1       HDW      0.557330       1.00800           0   0.00000       0.00000    
     40513 TIP3     2861     SWM4     H2       HDW      0.557330       1.00800           0   0.00000       0.00000    
     40514 TIP3     2862     SWM4     OH2      ODW       1.71640       15.5994           0 -0.978253       1.30000    
     40515 TIP3     2862     SWM4     DOH2     DOH2     -1.71640      0.400000           0   0.00000       0.00000    
     40516 TIP3     2862     SWM4     OM       LPDW     -1.11466       0.00000          -1   0.00000       0.00000    
     40517 TIP3     2862     SWM4     H1       HDW      0.557330       1.00800           0   0.00000       0.00000    
     40518 TIP3     2862     SWM4     H2       HDW      0.557330       1.00800           0   0.00000       0.00000    
     40519 TIP3     2863     SWM4     OH2      ODW       1.71640       15.5994           0 -0.978253       1.30000    
     40520 TIP3     2863     SWM4     DOH2     DOH2     -1.71640      0.400000           0   0.00000       0.00000    
     40521 TIP3     2863     SWM4     OM       LPDW     -1.11466       0.00000          -1   0.00000       0.00000    
     40522 TIP3     2863     SWM4     H1       HDW      0.557330       1.00800           0   0.00000       0.00000    
     40523 TIP3     2863     SWM4     H2       HDW      0.557330       1.00800           0   0.00000       0.00000    
     40524 TIP3     2864     SWM4     OH2      ODW       1.71640       15.5994           0 -0.978253       1.30000    
     40525 TIP3     2864     SWM4     DOH2     DOH2     -1.71640      0.400000           0   0.00000       0.00000    
     40526 TIP3     2864     SWM4     OM       LPDW     -1.11466       0.00000          -1   0.00000       0.00000    
     40527 TIP3     2864     SWM4     H1       HDW      0.557330       1.00800           0   0.00000       0.00000    
     40528 TIP3     2864     SWM4     H2       HDW      0.557330       1.00800           0   0.00000       0.00000    
     40529 TIP3     2865     SWM4     OH2      ODW       1.71640       15.5994           0 -0.978253       1.30000    
     40530 TIP3     2865     SWM4     DOH2     DOH2     -1.71640      0.400000           0   0.00000       0.00000    
     40531 TIP3     2865     SWM4     OM       LPDW     -1.11466       0.00000          -1   0.00000       0.00000    
     40532 TIP3     2865     SWM4     H1       HDW      0.557330       1.00800           0   0.00000       0.00000    
     40533 TIP3     2865     SWM4     H2       HDW      0.557330       1.00800           0   0.00000       0.00000    
     40534 TIP3     2866     SWM4     OH2      ODW       1.71640       15.5994           0 -0.978253       1.30000    
     40535 TIP3     2866     SWM4     DOH2     DOH2     -1.71640      0.400000           0   0.00000       0.00000    
     40536 TIP3     2866     SWM4     OM       LPDW     -1.11466       0.00000          -1   0.00000       0.00000    
     40537 TIP3     2866     SWM4     H1       HDW      0.557330       1.00800           0   0.00000       0.00000    
     40538 TIP3     2866     SWM4     H2       HDW      0.557330       1.00800           0   0.00000       0.00000    
     40539 TIP3     2867     SWM4     OH2      ODW       1.71640       15.5994           0 -0.978253       1.30000    
     40540 TIP3     2867     SWM4     DOH2     DOH2     -1.71640      0.400000           0   0.00000       0.00000    
     40541 TIP3     2867     SWM4     OM       LPDW     -1.11466       0.00000          -1   0.00000       0.00000    
     40542 TIP3     2867     SWM4     H1       HDW      0.557330       1.00800           0   0.00000       0.00000    
     40543 TIP3     2867     SWM4     H2       HDW      0.557330       1.00800           0   0.00000       0.00000    
     40544 TIP3     2868     SWM4     OH2      ODW       1.71640       15.5994           0 -0.978253       1.30000    
     40545 TIP3     2868     SWM4     DOH2     DOH2     -1.71640      0.400000           0   0.00000       0.00000    
     40546 TIP3     2868     SWM4     OM       LPDW     -1.11466       0.00000          -1   0.00000       0.00000    
     40547 TIP3     2868     SWM4     H1       HDW      0.557330       1.00800           0   0.00000       0.00000    
     40548 TIP3     2868     SWM4     H2       HDW      0.557330       1.00800           0   0.00000       0.00000    
     40549 TIP3     2869     SWM4     OH2      ODW       1.71640       15.5994           0 -0.978253       1.30000    
     40550 TIP3     2869     SWM4     DOH2     DOH2     -1.71640      0.400000           0   0.00000       0.00000    
     40551 TIP3     2869     SWM4     OM       LPDW     -1.11466       0.00000          -1   0.00000       0.00000    
     40552 TIP3     2869     SWM4     H1       HDW      0.557330       1.00800           0   0.00000       0.00000    
     40553 TIP3     2869     SWM4     H2       HDW      0.557330       1.00800           0   0.00000       0.00000    
     40554 TIP3     2870     SWM4     OH2      ODW       1.71640       15.5994           0 -0.978253       1.30000    
     40555 TIP3     2870     SWM4     DOH2     DOH2     -1.71640      0.400000           0   0.00000       0.00000    
     40556 TIP3     2870     SWM4     OM       LPDW     -1.11466       0.00000          -1   0.00000       0.00000    
     40557 TIP3     2870     SWM4     H1       HDW      0.557330       1.00800           0   0.00000       0.00000    
     40558 TIP3     2870     SWM4     H2       HDW      0.557330       1.00800           0   0.00000       0.00000    
     40559 TIP3     2871     SWM4     OH2      ODW       1.71640       15.5994           0 -0.978253       1.30000    
     40560 TIP3     2871     SWM4     DOH2     DOH2     -1.71640      0.400000           0   0.00000       0.00000    
     40561 TIP3     2871     SWM4     OM       LPDW     -1.11466       0.00000          -1   0.00000       0.00000    
     40562 TIP3     2871     SWM4     H1       HDW      0.557330       1.00800           0   0.00000       0.00000    
     40563 TIP3     2871     SWM4     H2       HDW      0.557330       1.00800           0   0.00000       0.00000    
     40564 TIP3     2872     SWM4     OH2      ODW       1.71640       15.5994           0 -0.978253       1.30000    
     40565 TIP3     2872     SWM4     DOH2     DOH2     -1.71640      0.400000           0   0.00000       0.00000    
     40566 TIP3     2872     SWM4     OM       LPDW     -1.11466       0.00000          -1   0.00000       0.00000    
     40567 TIP3     2872     SWM4     H1       HDW      0.557330       1.00800           0   0.00000       0.00000    
     40568 TIP3     2872     SWM4     H2       HDW      0.557330       1.00800           0   0.00000       0.00000    
     40569 TIP3     2873     SWM4     OH2      ODW       1.71640       15.5994           0 -0.978253       1.30000    
     40570 TIP3     2873     SWM4     DOH2     DOH2     -1.71640      0.400000           0   0.00000       0.00000    
     40571 TIP3     2873     SWM4     OM       LPDW     -1.11466       0.00000          -1   0.00000       0.00000    
     40572 TIP3     2873     SWM4     H1       HDW      0.557330       1.00800           0   0.00000       0.00000    
     40573 TIP3     2873     SWM4     H2       HDW      0.557330       1.00800           0   0.00000       0.00000    
     40574 TIP3     2874     SWM4     OH2      ODW       1.71640       15.5994           0 -0.978253       1.30000    
     40575 TIP3     2874     SWM4     DOH2     DOH2     -1.71640      0.400000           0   0.00000       0.00000    
     40576 TIP3     2874     SWM4     OM       LPDW     -1.11466       0.00000          -1   0.00000       0.00000    
     40577 TIP3     2874     SWM4     H1       HDW      0.557330       1.00800           0   0.00000       0.00000    
     40578 TIP3     2874     SWM4     H2       HDW      0.557330       1.00800           0   0.00000       0.00000    
     40579 TIP3     2875     SWM4     OH2      ODW       1.71640       15.5994           0 -0.978253       1.30000    
     40580 TIP3     2875     SWM4     DOH2     DOH2     -1.71640      0.400000           0   0.00000       0.00000    
     40581 TIP3     2875     SWM4     OM       LPDW     -1.11466       0.00000          -1   0.00000       0.00000    
     40582 TIP3     2875     SWM4     H1       HDW      0.557330       1.00800           0   0.00000       0.00000    
     40583 TIP3     2875     SWM4     H2       HDW      0.557330       1.00800           0   0.00000       0.00000    
     40584 TIP3     2876     SWM4     OH2      ODW       1.71640       15.5994           0 -0.978253       1.30000    
     40585 TIP3     2876     SWM4     DOH2     DOH2     -1.71640      0.400000           0   0.00000       0.00000    
     40586 TIP3     2876     SWM4     OM       LPDW     -1.11466       0.00000          -1   0.00000       0.00000    
     40587 TIP3     2876     SWM4     H1       HDW      0.557330       1.00800           0   0.00000       0.00000    
     40588 TIP3     2876     SWM4     H2       HDW      0.557330       1.00800           0   0.00000       0.00000    
     40589 TIP3     2877     SWM4     OH2      ODW       1.71640       15.5994           0 -0.978253       1.30000    
     40590 TIP3     2877     SWM4     DOH2     DOH2     -1.71640      0.400000           0   0.00000       0.00000    
     40591 TIP3     2877     SWM4     OM       LPDW     -1.11466       0.00000          -1   0.00000       0.00000    
     40592 TIP3     2877     SWM4     H1       HDW      0.557330       1.00800           0   0.00000       0.00000    
     40593 TIP3     2877     SWM4     H2       HDW      0.557330       1.00800           0   0.00000       0.00000    
     40594 TIP3     2878     SWM4     OH2      ODW       1.71640       15.5994           0 -0.978253       1.30000    
     40595 TIP3     2878     SWM4     DOH2     DOH2     -1.71640      0.400000           0   0.00000       0.00000    
     40596 TIP3     2878     SWM4     OM       LPDW     -1.11466       0.00000          -1   0.00000       0.00000    
     40597 TIP3     2878     SWM4     H1       HDW      0.557330       1.00800           0   0.00000       0.00000    
     40598 TIP3     2878     SWM4     H2       HDW      0.557330       1.00800           0   0.00000       0.00000    
     40599 TIP3     2879     SWM4     OH2      ODW       1.71640       15.5994           0 -0.978253       1.30000    
     40600 TIP3     2879     SWM4     DOH2     DOH2     -1.71640      0.400000           0   0.00000       0.00000    
     40601 TIP3     2879     SWM4     OM       LPDW     -1.11466       0.00000          -1   0.00000       0.00000    
     40602 TIP3     2879     SWM4     H1       HDW      0.557330       1.00800           0   0.00000       0.00000    
     40603 TIP3     2879     SWM4     H2       HDW      0.557330       1.00800           0   0.00000       0.00000    
     40604 TIP3     2880     SWM4     OH2      ODW       1.71640       15.5994           0 -0.978253       1.30000    
     40605 TIP3     2880     SWM4     DOH2     DOH2     -1.71640      0.400000           0   0.00000       0.00000    
     40606 TIP3     2880     SWM4     OM       LPDW     -1.11466       0.00000          -1   0.00000       0.00000    
     40607 TIP3     2880     SWM4     H1       HDW      0.557330       1.00800           0   0.00000       0.00000    
     40608 TIP3     2880     SWM4     H2       HDW      0.557330       1.00800           0   0.00000       0.00000    
     40609 TIP3     2881     SWM4     OH2      ODW       1.71640       15.5994           0 -0.978253       1.30000    
     40610 TIP3     2881     SWM4     DOH2     DOH2     -1.71640      0.400000           0   0.00000       0.00000    
     40611 TIP3     2881     SWM4     OM       LPDW     -1.11466       0.00000          -1   0.00000       0.00000    
     40612 TIP3     2881     SWM4     H1       HDW      0.557330       1.00800           0   0.00000       0.00000    
     40613 TIP3     2881     SWM4     H2       HDW      0.557330       1.00800           0   0.00000       0.00000    
     40614 TIP3     2882     SWM4     OH2      ODW       1.71640       15.5994           0 -0.978253       1.30000    
     40615 TIP3     2882     SWM4     DOH2     DOH2     -1.71640      0.400000           0   0.00000       0.00000    
     40616 TIP3     2882     SWM4     OM       LPDW     -1.11466       0.00000          -1   0.00000       0.00000    
     40617 TIP3     2882     SWM4     H1       HDW      0.557330       1.00800           0   0.00000       0.00000    
     40618 TIP3     2882     SWM4     H2       HDW      0.557330       1.00800           0   0.00000       0.00000    
     40619 TIP3     2883     SWM4     OH2      ODW       1.71640       15.5994           0 -0.978253       1.30000    
     40620 TIP3     2883     SWM4     DOH2     DOH2     -1.71640      0.400000           0   0.00000       0.00000    
     40621 TIP3     2883     SWM4     OM       LPDW     -1.11466       0.00000          -1   0.00000       0.00000    
     40622 TIP3     2883     SWM4     H1       HDW      0.557330       1.00800           0   0.00000       0.00000    
     40623 TIP3     2883     SWM4     H2       HDW      0.557330       1.00800           0   0.00000       0.00000    
     40624 TIP3     2884     SWM4     OH2      ODW       1.71640       15.5994           0 -0.978253       1.30000    
     40625 TIP3     2884     SWM4     DOH2     DOH2     -1.71640      0.400000           0   0.00000       0.00000    
     40626 TIP3     2884     SWM4     OM       LPDW     -1.11466       0.00000          -1   0.00000       0.00000    
     40627 TIP3     2884     SWM4     H1       HDW      0.557330       1.00800           0   0.00000       0.00000    
     40628 TIP3     2884     SWM4     H2       HDW      0.557330       1.00800           0   0.00000       0.00000    
     40629 TIP3     2885     SWM4     OH2      ODW       1.71640       15.5994           0 -0.978253       1.30000    
     40630 TIP3     2885     SWM4     DOH2     DOH2     -1.71640      0.400000           0   0.00000       0.00000    
     40631 TIP3     2885     SWM4     OM       LPDW     -1.11466       0.00000          -1   0.00000       0.00000    
     40632 TIP3     2885     SWM4     H1       HDW      0.557330       1.00800           0   0.00000       0.00000    
     40633 TIP3     2885     SWM4     H2       HDW      0.557330       1.00800           0   0.00000       0.00000    
     40634 TIP3     2886     SWM4     OH2      ODW       1.71640       15.5994           0 -0.978253       1.30000    
     40635 TIP3     2886     SWM4     DOH2     DOH2     -1.71640      0.400000           0   0.00000       0.00000    
     40636 TIP3     2886     SWM4     OM       LPDW     -1.11466       0.00000          -1   0.00000       0.00000    
     40637 TIP3     2886     SWM4     H1       HDW      0.557330       1.00800           0   0.00000       0.00000    
     40638 TIP3     2886     SWM4     H2       HDW      0.557330       1.00800           0   0.00000       0.00000    
     40639 TIP3     2887     SWM4     OH2      ODW       1.71640       15.5994           0 -0.978253       1.30000    
     40640 TIP3     2887     SWM4     DOH2     DOH2     -1.71640      0.400000           0   0.00000       0.00000    
     40641 TIP3     2887     SWM4     OM       LPDW     -1.11466       0.00000          -1   0.00000       0.00000    
     40642 TIP3     2887     SWM4     H1       HDW      0.557330       1.00800           0   0.00000       0.00000    
     40643 TIP3     2887     SWM4     H2       HDW      0.557330       1.00800           0   0.00000       0.00000    
     40644 TIP3     2888     SWM4     OH2      ODW       1.71640       15.5994           0 -0.978253       1.30000    
     40645 TIP3     2888     SWM4     DOH2     DOH2     -1.71640      0.400000           0   0.00000       0.00000    
     40646 TIP3     2888     SWM4     OM       LPDW     -1.11466       0.00000          -1   0.00000       0.00000    
     40647 TIP3     2888     SWM4     H1       HDW      0.557330       1.00800           0   0.00000       0.00000    
     40648 TIP3     2888     SWM4     H2       HDW      0.557330       1.00800           0   0.00000       0.00000    
     40649 TIP3     2889     SWM4     OH2      ODW       1.71640       15.5994           0 -0.978253       1.30000    
     40650 TIP3     2889     SWM4     DOH2     DOH2     -1.71640      0.400000           0   0.00000       0.00000    
     40651 TIP3     2889     SWM4     OM       LPDW     -1.11466       0.00000          -1   0.00000       0.00000    
     40652 TIP3     2889     SWM4     H1       HDW      0.557330       1.00800           0   0.00000       0.00000    
     40653 TIP3     2889     SWM4     H2       HDW      0.557330       1.00800           0   0.00000       0.00000    
     40654 TIP3     2890     SWM4     OH2      ODW       1.71640       15.5994           0 -0.978253       1.30000    
     40655 TIP3     2890     SWM4     DOH2     DOH2     -1.71640      0.400000           0   0.00000       0.00000    
     40656 TIP3     2890     SWM4     OM       LPDW     -1.11466       0.00000          -1   0.00000       0.00000    
     40657 TIP3     2890     SWM4     H1       HDW      0.557330       1.00800           0   0.00000       0.00000    
     40658 TIP3     2890     SWM4     H2       HDW      0.557330       1.00800           0   0.00000       0.00000    
     40659 TIP3     2891     SWM4     OH2      ODW       1.71640       15.5994           0 -0.978253       1.30000    
     40660 TIP3     2891     SWM4     DOH2     DOH2     -1.71640      0.400000           0   0.00000       0.00000    
     40661 TIP3     2891     SWM4     OM       LPDW     -1.11466       0.00000          -1   0.00000       0.00000    
     40662 TIP3     2891     SWM4     H1       HDW      0.557330       1.00800           0   0.00000       0.00000    
     40663 TIP3     2891     SWM4     H2       HDW      0.557330       1.00800           0   0.00000       0.00000    
     40664 TIP3     2892     SWM4     OH2      ODW       1.71640       15.5994           0 -0.978253       1.30000    
     40665 TIP3     2892     SWM4     DOH2     DOH2     -1.71640      0.400000           0   0.00000       0.00000    
     40666 TIP3     2892     SWM4     OM       LPDW     -1.11466       0.00000          -1   0.00000       0.00000    
     40667 TIP3     2892     SWM4     H1       HDW      0.557330       1.00800           0   0.00000       0.00000    
     40668 TIP3     2892     SWM4     H2       HDW      0.557330       1.00800           0   0.00000       0.00000    
     40669 TIP3     2893     SWM4     OH2      ODW       1.71640       15.5994           0 -0.978253       1.30000    
     40670 TIP3     2893     SWM4     DOH2     DOH2     -1.71640      0.400000           0   0.00000       0.00000    
     40671 TIP3     2893     SWM4     OM       LPDW     -1.11466       0.00000          -1   0.00000       0.00000    
     40672 TIP3     2893     SWM4     H1       HDW      0.557330       1.00800           0   0.00000       0.00000    
     40673 TIP3     2893     SWM4     H2       HDW      0.557330       1.00800           0   0.00000       0.00000    
     40674 TIP3     2894     SWM4     OH2      ODW       1.71640       15.5994           0 -0.978253       1.30000    
     40675 TIP3     2894     SWM4     DOH2     DOH2     -1.71640      0.400000           0   0.00000       0.00000    
     40676 TIP3     2894     SWM4     OM       LPDW     -1.11466       0.00000          -1   0.00000       0.00000    
     40677 TIP3     2894     SWM4     H1       HDW      0.557330       1.00800           0   0.00000       0.00000    
     40678 TIP3     2894     SWM4     H2       HDW      0.557330       1.00800           0   0.00000       0.00000    
     40679 TIP3     2895     SWM4     OH2      ODW       1.71640       15.5994           0 -0.978253       1.30000    
     40680 TIP3     2895     SWM4     DOH2     DOH2     -1.71640      0.400000           0   0.00000       0.00000    
     40681 TIP3     2895     SWM4     OM       LPDW     -1.11466       0.00000          -1   0.00000       0.00000    
     40682 TIP3     2895     SWM4     H1       HDW      0.557330       1.00800           0   0.00000       0.00000    
     40683 TIP3     2895     SWM4     H2       HDW      0.557330       1.00800           0   0.00000       0.00000    
     40684 TIP3     2896     SWM4     OH2      ODW       1.71640       15.5994           0 -0.978253       1.30000    
     40685 TIP3     2896     SWM4     DOH2     DOH2     -1.71640      0.400000           0   0.00000       0.00000    
     40686 TIP3     2896     SWM4     OM       LPDW     -1.11466       0.00000          -1   0.00000       0.00000    
     40687 TIP3     2896     SWM4     H1       HDW      0.557330       1.00800           0   0.00000       0.00000    
     40688 TIP3     2896     SWM4     H2       HDW      0.557330       1.00800           0   0.00000       0.00000    
     40689 TIP3     2897     SWM4     OH2      ODW       1.71640       15.5994           0 -0.978253       1.30000    
     40690 TIP3     2897     SWM4     DOH2     DOH2     -1.71640      0.400000           0   0.00000       0.00000    
     40691 TIP3     2897     SWM4     OM       LPDW     -1.11466       0.00000          -1   0.00000       0.00000    
     40692 TIP3     2897     SWM4     H1       HDW      0.557330       1.00800           0   0.00000       0.00000    
     40693 TIP3     2897     SWM4     H2       HDW      0.557330       1.00800           0   0.00000       0.00000    
     40694 TIP3     2898     SWM4     OH2      ODW       1.71640       15.5994           0 -0.978253       1.30000    
     40695 TIP3     2898     SWM4     DOH2     DOH2     -1.71640      0.400000           0   0.00000       0.00000    
     40696 TIP3     2898     SWM4     OM       LPDW     -1.11466       0.00000          -1   0.00000       0.00000    
     40697 TIP3     2898     SWM4     H1       HDW      0.557330       1.00800           0   0.00000       0.00000    
     40698 TIP3     2898     SWM4     H2       HDW      0.557330       1.00800           0   0.00000       0.00000    
     40699 TIP3     2899     SWM4     OH2      ODW       1.71640       15.5994           0 -0.978253       1.30000    
     40700 TIP3     2899     SWM4     DOH2     DOH2     -1.71640      0.400000           0   0.00000       0.00000    
     40701 TIP3     2899     SWM4     OM       LPDW     -1.11466       0.00000          -1   0.00000       0.00000    
     40702 TIP3     2899     SWM4     H1       HDW      0.557330       1.00800           0   0.00000       0.00000    
     40703 TIP3     2899     SWM4     H2       HDW      0.557330       1.00800           0   0.00000       0.00000    
     40704 TIP3     2900     SWM4     OH2      ODW       1.71640       15.5994           0 -0.978253       1.30000    
     40705 TIP3     2900     SWM4     DOH2     DOH2     -1.71640      0.400000           0   0.00000       0.00000    
     40706 TIP3     2900     SWM4     OM       LPDW     -1.11466       0.00000          -1   0.00000       0.00000    
     40707 TIP3     2900     SWM4     H1       HDW      0.557330       1.00800           0   0.00000       0.00000    
     40708 TIP3     2900     SWM4     H2       HDW      0.557330       1.00800           0   0.00000       0.00000    
     40709 TIP3     2901     SWM4     OH2      ODW       1.71640       15.5994           0 -0.978253       1.30000    
     40710 TIP3     2901     SWM4     DOH2     DOH2     -1.71640      0.400000           0   0.00000       0.00000    
     40711 TIP3     2901     SWM4     OM       LPDW     -1.11466       0.00000          -1   0.00000       0.00000    
     40712 TIP3     2901     SWM4     H1       HDW      0.557330       1.00800           0   0.00000       0.00000    
     40713 TIP3     2901     SWM4     H2       HDW      0.557330       1.00800           0   0.00000       0.00000    
     40714 TIP3     2902     SWM4     OH2      ODW       1.71640       15.5994           0 -0.978253       1.30000    
     40715 TIP3     2902     SWM4     DOH2     DOH2     -1.71640      0.400000           0   0.00000       0.00000    
     40716 TIP3     2902     SWM4     OM       LPDW     -1.11466       0.00000          -1   0.00000       0.00000    
     40717 TIP3     2902     SWM4     H1       HDW      0.557330       1.00800           0   0.00000       0.00000    
     40718 TIP3     2902     SWM4     H2       HDW      0.557330       1.00800           0   0.00000       0.00000    
     40719 TIP3     2903     SWM4     OH2      ODW       1.71640       15.5994           0 -0.978253       1.30000    
     40720 TIP3     2903     SWM4     DOH2     DOH2     -1.71640      0.400000           0   0.00000       0.00000    
     40721 TIP3     2903     SWM4     OM       LPDW     -1.11466       0.00000          -1   0.00000       0.00000    
     40722 TIP3     2903     SWM4     H1       HDW      0.557330       1.00800           0   0.00000       0.00000    
     40723 TIP3     2903     SWM4     H2       HDW      0.557330       1.00800           0   0.00000       0.00000    
     40724 TIP3     2904     SWM4     OH2      ODW       1.71640       15.5994           0 -0.978253       1.30000    
     40725 TIP3     2904     SWM4     DOH2     DOH2     -1.71640      0.400000           0   0.00000       0.00000    
     40726 TIP3     2904     SWM4     OM       LPDW     -1.11466       0.00000          -1   0.00000       0.00000    
     40727 TIP3     2904     SWM4     H1       HDW      0.557330       1.00800           0   0.00000       0.00000    
     40728 TIP3     2904     SWM4     H2       HDW      0.557330       1.00800           0   0.00000       0.00000    
     40729 TIP3     2905     SWM4     OH2      ODW       1.71640       15.5994           0 -0.978253       1.30000    
     40730 TIP3     2905     SWM4     DOH2     DOH2     -1.71640      0.400000           0   0.00000       0.00000    
     40731 TIP3     2905     SWM4     OM       LPDW     -1.11466       0.00000          -1   0.00000       0.00000    
     40732 TIP3     2905     SWM4     H1       HDW      0.557330       1.00800           0   0.00000       0.00000    
     40733 TIP3     2905     SWM4     H2       HDW      0.557330       1.00800           0   0.00000       0.00000    
     40734 TIP3     2906     SWM4     OH2      ODW       1.71640       15.5994           0 -0.978253       1.30000    
     40735 TIP3     2906     SWM4     DOH2     DOH2     -1.71640      0.400000           0   0.00000       0.00000    
     40736 TIP3     2906     SWM4     OM       LPDW     -1.11466       0.00000          -1   0.00000       0.00000    
     40737 TIP3     2906     SWM4     H1       HDW      0.557330       1.00800           0   0.00000       0.00000    
     40738 TIP3     2906     SWM4     H2       HDW      0.557330       1.00800           0   0.00000       0.00000    
     40739 TIP3     2907     SWM4     OH2      ODW       1.71640       15.5994           0 -0.978253       1.30000    
     40740 TIP3     2907     SWM4     DOH2     DOH2     -1.71640      0.400000           0   0.00000       0.00000    
     40741 TIP3     2907     SWM4     OM       LPDW     -1.11466       0.00000          -1   0.00000       0.00000    
     40742 TIP3     2907     SWM4     H1       HDW      0.557330       1.00800           0   0.00000       0.00000    
     40743 TIP3     2907     SWM4     H2       HDW      0.557330       1.00800           0   0.00000       0.00000    
     40744 TIP3     2908     SWM4     OH2      ODW       1.71640       15.5994           0 -0.978253       1.30000    
     40745 TIP3     2908     SWM4     DOH2     DOH2     -1.71640      0.400000           0   0.00000       0.00000    
     40746 TIP3     2908     SWM4     OM       LPDW     -1.11466       0.00000          -1   0.00000       0.00000    
     40747 TIP3     2908     SWM4     H1       HDW      0.557330       1.00800           0   0.00000       0.00000    
     40748 TIP3     2908     SWM4     H2       HDW      0.557330       1.00800           0   0.00000       0.00000    
     40749 TIP3     2909     SWM4     OH2      ODW       1.71640       15.5994           0 -0.978253       1.30000    
     40750 TIP3     2909     SWM4     DOH2     DOH2     -1.71640      0.400000           0   0.00000       0.00000    
     40751 TIP3     2909     SWM4     OM       LPDW     -1.11466       0.00000          -1   0.00000       0.00000    
     40752 TIP3     2909     SWM4     H1       HDW      0.557330       1.00800           0   0.00000       0.00000    
     40753 TIP3     2909     SWM4     H2       HDW      0.557330       1.00800           0   0.00000       0.00000    
     40754 TIP3     2910     SWM4     OH2      ODW       1.71640       15.5994           0 -0.978253       1.30000    
     40755 TIP3     2910     SWM4     DOH2     DOH2     -1.71640      0.400000           0   0.00000       0.00000    
     40756 TIP3     2910     SWM4     OM       LPDW     -1.11466       0.00000          -1   0.00000       0.00000    
     40757 TIP3     2910     SWM4     H1       HDW      0.557330       1.00800           0   0.00000       0.00000    
     40758 TIP3     2910     SWM4     H2       HDW      0.557330       1.00800           0   0.00000       0.00000    
     40759 TIP3     2911     SWM4     OH2      ODW       1.71640       15.5994           0 -0.978253       1.30000    
     40760 TIP3     2911     SWM4     DOH2     DOH2     -1.71640      0.400000           0   0.00000       0.00000    
     40761 TIP3     2911     SWM4     OM       LPDW     -1.11466       0.00000          -1   0.00000       0.00000    
     40762 TIP3     2911     SWM4     H1       HDW      0.557330       1.00800           0   0.00000       0.00000    
     40763 TIP3     2911     SWM4     H2       HDW      0.557330       1.00800           0   0.00000       0.00000    
     40764 TIP3     2912     SWM4     OH2      ODW       1.71640       15.5994           0 -0.978253       1.30000    
     40765 TIP3     2912     SWM4     DOH2     DOH2     -1.71640      0.400000           0   0.00000       0.00000    
     40766 TIP3     2912     SWM4     OM       LPDW     -1.11466       0.00000          -1   0.00000       0.00000    
     40767 TIP3     2912     SWM4     H1       HDW      0.557330       1.00800           0   0.00000       0.00000    
     40768 TIP3     2912     SWM4     H2       HDW      0.557330       1.00800           0   0.00000       0.00000    
     40769 TIP3     2913     SWM4     OH2      ODW       1.71640       15.5994           0 -0.978253       1.30000    
     40770 TIP3     2913     SWM4     DOH2     DOH2     -1.71640      0.400000           0   0.00000       0.00000    
     40771 TIP3     2913     SWM4     OM       LPDW     -1.11466       0.00000          -1   0.00000       0.00000    
     40772 TIP3     2913     SWM4     H1       HDW      0.557330       1.00800           0   0.00000       0.00000    
     40773 TIP3     2913     SWM4     H2       HDW      0.557330       1.00800           0   0.00000       0.00000    
     40774 TIP3     2914     SWM4     OH2      ODW       1.71640       15.5994           0 -0.978253       1.30000    
     40775 TIP3     2914     SWM4     DOH2     DOH2     -1.71640      0.400000           0   0.00000       0.00000    
     40776 TIP3     2914     SWM4     OM       LPDW     -1.11466       0.00000          -1   0.00000       0.00000    
     40777 TIP3     2914     SWM4     H1       HDW      0.557330       1.00800           0   0.00000       0.00000    
     40778 TIP3     2914     SWM4     H2       HDW      0.557330       1.00800           0   0.00000       0.00000    
     40779 TIP3     2915     SWM4     OH2      ODW       1.71640       15.5994           0 -0.978253       1.30000    
     40780 TIP3     2915     SWM4     DOH2     DOH2     -1.71640      0.400000           0   0.00000       0.00000    
     40781 TIP3     2915     SWM4     OM       LPDW     -1.11466       0.00000          -1   0.00000       0.00000    
     40782 TIP3     2915     SWM4     H1       HDW      0.557330       1.00800           0   0.00000       0.00000    
     40783 TIP3     2915     SWM4     H2       HDW      0.557330       1.00800           0   0.00000       0.00000    
     40784 TIP3     2916     SWM4     OH2      ODW       1.71640       15.5994           0 -0.978253       1.30000    
     40785 TIP3     2916     SWM4     DOH2     DOH2     -1.71640      0.400000           0   0.00000       0.00000    
     40786 TIP3     2916     SWM4     OM       LPDW     -1.11466       0.00000          -1   0.00000       0.00000    
     40787 TIP3     2916     SWM4     H1       HDW      0.557330       1.00800           0   0.00000       0.00000    
     40788 TIP3     2916     SWM4     H2       HDW      0.557330       1.00800           0   0.00000       0.00000    
     40789 TIP3     2917     SWM4     OH2      ODW       1.71640       15.5994           0 -0.978253       1.30000    
     40790 TIP3     2917     SWM4     DOH2     DOH2     -1.71640      0.400000           0   0.00000       0.00000    
     40791 TIP3     2917     SWM4     OM       LPDW     -1.11466       0.00000          -1   0.00000       0.00000    
     40792 TIP3     2917     SWM4     H1       HDW      0.557330       1.00800           0   0.00000       0.00000    
     40793 TIP3     2917     SWM4     H2       HDW      0.557330       1.00800           0   0.00000       0.00000    
     40794 TIP3     2918     SWM4     OH2      ODW       1.71640       15.5994           0 -0.978253       1.30000    
     40795 TIP3     2918     SWM4     DOH2     DOH2     -1.71640      0.400000           0   0.00000       0.00000    
     40796 TIP3     2918     SWM4     OM       LPDW     -1.11466       0.00000          -1   0.00000       0.00000    
     40797 TIP3     2918     SWM4     H1       HDW      0.557330       1.00800           0   0.00000       0.00000    
     40798 TIP3     2918     SWM4     H2       HDW      0.557330       1.00800           0   0.00000       0.00000    
     40799 TIP3     2919     SWM4     OH2      ODW       1.71640       15.5994           0 -0.978253       1.30000    
     40800 TIP3     2919     SWM4     DOH2     DOH2     -1.71640      0.400000           0   0.00000       0.00000    
     40801 TIP3     2919     SWM4     OM       LPDW     -1.11466       0.00000          -1   0.00000       0.00000    
     40802 TIP3     2919     SWM4     H1       HDW      0.557330       1.00800           0   0.00000       0.00000    
     40803 TIP3     2919     SWM4     H2       HDW      0.557330       1.00800           0   0.00000       0.00000    
     40804 TIP3     2920     SWM4     OH2      ODW       1.71640       15.5994           0 -0.978253       1.30000    
     40805 TIP3     2920     SWM4     DOH2     DOH2     -1.71640      0.400000           0   0.00000       0.00000    
     40806 TIP3     2920     SWM4     OM       LPDW     -1.11466       0.00000          -1   0.00000       0.00000    
     40807 TIP3     2920     SWM4     H1       HDW      0.557330       1.00800           0   0.00000       0.00000    
     40808 TIP3     2920     SWM4     H2       HDW      0.557330       1.00800           0   0.00000       0.00000    
     40809 TIP3     2921     SWM4     OH2      ODW       1.71640       15.5994           0 -0.978253       1.30000    
     40810 TIP3     2921     SWM4     DOH2     DOH2     -1.71640      0.400000           0   0.00000       0.00000    
     40811 TIP3     2921     SWM4     OM       LPDW     -1.11466       0.00000          -1   0.00000       0.00000    
     40812 TIP3     2921     SWM4     H1       HDW      0.557330       1.00800           0   0.00000       0.00000    
     40813 TIP3     2921     SWM4     H2       HDW      0.557330       1.00800           0   0.00000       0.00000    
     40814 TIP3     2922     SWM4     OH2      ODW       1.71640       15.5994           0 -0.978253       1.30000    
     40815 TIP3     2922     SWM4     DOH2     DOH2     -1.71640      0.400000           0   0.00000       0.00000    
     40816 TIP3     2922     SWM4     OM       LPDW     -1.11466       0.00000          -1   0.00000       0.00000    
     40817 TIP3     2922     SWM4     H1       HDW      0.557330       1.00800           0   0.00000       0.00000    
     40818 TIP3     2922     SWM4     H2       HDW      0.557330       1.00800           0   0.00000       0.00000    
     40819 TIP3     2923     SWM4     OH2      ODW       1.71640       15.5994           0 -0.978253       1.30000    
     40820 TIP3     2923     SWM4     DOH2     DOH2     -1.71640      0.400000           0   0.00000       0.00000    
     40821 TIP3     2923     SWM4     OM       LPDW     -1.11466       0.00000          -1   0.00000       0.00000    
     40822 TIP3     2923     SWM4     H1       HDW      0.557330       1.00800           0   0.00000       0.00000    
     40823 TIP3     2923     SWM4     H2       HDW      0.557330       1.00800           0   0.00000       0.00000    
     40824 TIP3     2924     SWM4     OH2      ODW       1.71640       15.5994           0 -0.978253       1.30000    
     40825 TIP3     2924     SWM4     DOH2     DOH2     -1.71640      0.400000           0   0.00000       0.00000    
     40826 TIP3     2924     SWM4     OM       LPDW     -1.11466       0.00000          -1   0.00000       0.00000    
     40827 TIP3     2924     SWM4     H1       HDW      0.557330       1.00800           0   0.00000       0.00000    
     40828 TIP3     2924     SWM4     H2       HDW      0.557330       1.00800           0   0.00000       0.00000    
     40829 TIP3     2925     SWM4     OH2      ODW       1.71640       15.5994           0 -0.978253       1.30000    
     40830 TIP3     2925     SWM4     DOH2     DOH2     -1.71640      0.400000           0   0.00000       0.00000    
     40831 TIP3     2925     SWM4     OM       LPDW     -1.11466       0.00000          -1   0.00000       0.00000    
     40832 TIP3     2925     SWM4     H1       HDW      0.557330       1.00800           0   0.00000       0.00000    
     40833 TIP3     2925     SWM4     H2       HDW      0.557330       1.00800           0   0.00000       0.00000    
     40834 TIP3     2926     SWM4     OH2      ODW       1.71640       15.5994           0 -0.978253       1.30000    
     40835 TIP3     2926     SWM4     DOH2     DOH2     -1.71640      0.400000           0   0.00000       0.00000    
     40836 TIP3     2926     SWM4     OM       LPDW     -1.11466       0.00000          -1   0.00000       0.00000    
     40837 TIP3     2926     SWM4     H1       HDW      0.557330       1.00800           0   0.00000       0.00000    
     40838 TIP3     2926     SWM4     H2       HDW      0.557330       1.00800           0   0.00000       0.00000    
     40839 TIP3     2927     SWM4     OH2      ODW       1.71640       15.5994           0 -0.978253       1.30000    
     40840 TIP3     2927     SWM4     DOH2     DOH2     -1.71640      0.400000           0   0.00000       0.00000    
     40841 TIP3     2927     SWM4     OM       LPDW     -1.11466       0.00000          -1   0.00000       0.00000    
     40842 TIP3     2927     SWM4     H1       HDW      0.557330       1.00800           0   0.00000       0.00000    
     40843 TIP3     2927     SWM4     H2       HDW      0.557330       1.00800           0   0.00000       0.00000    
     40844 TIP3     2928     SWM4     OH2      ODW       1.71640       15.5994           0 -0.978253       1.30000    
     40845 TIP3     2928     SWM4     DOH2     DOH2     -1.71640      0.400000           0   0.00000       0.00000    
     40846 TIP3     2928     SWM4     OM       LPDW     -1.11466       0.00000          -1   0.00000       0.00000    
     40847 TIP3     2928     SWM4     H1       HDW      0.557330       1.00800           0   0.00000       0.00000    
     40848 TIP3     2928     SWM4     H2       HDW      0.557330       1.00800           0   0.00000       0.00000    
     40849 TIP3     2929     SWM4     OH2      ODW       1.71640       15.5994           0 -0.978253       1.30000    
     40850 TIP3     2929     SWM4     DOH2     DOH2     -1.71640      0.400000           0   0.00000       0.00000    
     40851 TIP3     2929     SWM4     OM       LPDW     -1.11466       0.00000          -1   0.00000       0.00000    
     40852 TIP3     2929     SWM4     H1       HDW      0.557330       1.00800           0   0.00000       0.00000    
     40853 TIP3     2929     SWM4     H2       HDW      0.557330       1.00800           0   0.00000       0.00000    
     40854 TIP3     2930     SWM4     OH2      ODW       1.71640       15.5994           0 -0.978253       1.30000    
     40855 TIP3     2930     SWM4     DOH2     DOH2     -1.71640      0.400000           0   0.00000       0.00000    
     40856 TIP3     2930     SWM4     OM       LPDW     -1.11466       0.00000          -1   0.00000       0.00000    
     40857 TIP3     2930     SWM4     H1       HDW      0.557330       1.00800           0   0.00000       0.00000    
     40858 TIP3     2930     SWM4     H2       HDW      0.557330       1.00800           0   0.00000       0.00000    
     40859 TIP3     2931     SWM4     OH2      ODW       1.71640       15.5994           0 -0.978253       1.30000    
     40860 TIP3     2931     SWM4     DOH2     DOH2     -1.71640      0.400000           0   0.00000       0.00000    
     40861 TIP3     2931     SWM4     OM       LPDW     -1.11466       0.00000          -1   0.00000       0.00000    
     40862 TIP3     2931     SWM4     H1       HDW      0.557330       1.00800           0   0.00000       0.00000    
     40863 TIP3     2931     SWM4     H2       HDW      0.557330       1.00800           0   0.00000       0.00000    
     40864 TIP3     2932     SWM4     OH2      ODW       1.71640       15.5994           0 -0.978253       1.30000    
     40865 TIP3     2932     SWM4     DOH2     DOH2     -1.71640      0.400000           0   0.00000       0.00000    
     40866 TIP3     2932     SWM4     OM       LPDW     -1.11466       0.00000          -1   0.00000       0.00000    
     40867 TIP3     2932     SWM4     H1       HDW      0.557330       1.00800           0   0.00000       0.00000    
     40868 TIP3     2932     SWM4     H2       HDW      0.557330       1.00800           0   0.00000       0.00000    
     40869 TIP3     2933     SWM4     OH2      ODW       1.71640       15.5994           0 -0.978253       1.30000    
     40870 TIP3     2933     SWM4     DOH2     DOH2     -1.71640      0.400000           0   0.00000       0.00000    
     40871 TIP3     2933     SWM4     OM       LPDW     -1.11466       0.00000          -1   0.00000       0.00000    
     40872 TIP3     2933     SWM4     H1       HDW      0.557330       1.00800           0   0.00000       0.00000    
     40873 TIP3     2933     SWM4     H2       HDW      0.557330       1.00800           0   0.00000       0.00000    
     40874 TIP3     2934     SWM4     OH2      ODW       1.71640       15.5994           0 -0.978253       1.30000    
     40875 TIP3     2934     SWM4     DOH2     DOH2     -1.71640      0.400000           0   0.00000       0.00000    
     40876 TIP3     2934     SWM4     OM       LPDW     -1.11466       0.00000          -1   0.00000       0.00000    
     40877 TIP3     2934     SWM4     H1       HDW      0.557330       1.00800           0   0.00000       0.00000    
     40878 TIP3     2934     SWM4     H2       HDW      0.557330       1.00800           0   0.00000       0.00000    
     40879 TIP3     2935     SWM4     OH2      ODW       1.71640       15.5994           0 -0.978253       1.30000    
     40880 TIP3     2935     SWM4     DOH2     DOH2     -1.71640      0.400000           0   0.00000       0.00000    
     40881 TIP3     2935     SWM4     OM       LPDW     -1.11466       0.00000          -1   0.00000       0.00000    
     40882 TIP3     2935     SWM4     H1       HDW      0.557330       1.00800           0   0.00000       0.00000    
     40883 TIP3     2935     SWM4     H2       HDW      0.557330       1.00800           0   0.00000       0.00000    
     40884 TIP3     2936     SWM4     OH2      ODW       1.71640       15.5994           0 -0.978253       1.30000    
     40885 TIP3     2936     SWM4     DOH2     DOH2     -1.71640      0.400000           0   0.00000       0.00000    
     40886 TIP3     2936     SWM4     OM       LPDW     -1.11466       0.00000          -1   0.00000       0.00000    
     40887 TIP3     2936     SWM4     H1       HDW      0.557330       1.00800           0   0.00000       0.00000    
     40888 TIP3     2936     SWM4     H2       HDW      0.557330       1.00800           0   0.00000       0.00000    
     40889 TIP3     2937     SWM4     OH2      ODW       1.71640       15.5994           0 -0.978253       1.30000    
     40890 TIP3     2937     SWM4     DOH2     DOH2     -1.71640      0.400000           0   0.00000       0.00000    
     40891 TIP3     2937     SWM4     OM       LPDW     -1.11466       0.00000          -1   0.00000       0.00000    
     40892 TIP3     2937     SWM4     H1       HDW      0.557330       1.00800           0   0.00000       0.00000    
     40893 TIP3     2937     SWM4     H2       HDW      0.557330       1.00800           0   0.00000       0.00000    
     40894 TIP3     2938     SWM4     OH2      ODW       1.71640       15.5994           0 -0.978253       1.30000    
     40895 TIP3     2938     SWM4     DOH2     DOH2     -1.71640      0.400000           0   0.00000       0.00000    
     40896 TIP3     2938     SWM4     OM       LPDW     -1.11466       0.00000          -1   0.00000       0.00000    
     40897 TIP3     2938     SWM4     H1       HDW      0.557330       1.00800           0   0.00000       0.00000    
     40898 TIP3     2938     SWM4     H2       HDW      0.557330       1.00800           0   0.00000       0.00000    
     40899 TIP3     2939     SWM4     OH2      ODW       1.71640       15.5994           0 -0.978253       1.30000    
     40900 TIP3     2939     SWM4     DOH2     DOH2     -1.71640      0.400000           0   0.00000       0.00000    
     40901 TIP3     2939     SWM4     OM       LPDW     -1.11466       0.00000          -1   0.00000       0.00000    
     40902 TIP3     2939     SWM4     H1       HDW      0.557330       1.00800           0   0.00000       0.00000    
     40903 TIP3     2939     SWM4     H2       HDW      0.557330       1.00800           0   0.00000       0.00000    
     40904 TIP3     2940     SWM4     OH2      ODW       1.71640       15.5994           0 -0.978253       1.30000    
     40905 TIP3     2940     SWM4     DOH2     DOH2     -1.71640      0.400000           0   0.00000       0.00000    
     40906 TIP3     2940     SWM4     OM       LPDW     -1.11466       0.00000          -1   0.00000       0.00000    
     40907 TIP3     2940     SWM4     H1       HDW      0.557330       1.00800           0   0.00000       0.00000    
     40908 TIP3     2940     SWM4     H2       HDW      0.557330       1.00800           0   0.00000       0.00000    
     40909 TIP3     2941     SWM4     OH2      ODW       1.71640       15.5994           0 -0.978253       1.30000    
     40910 TIP3     2941     SWM4     DOH2     DOH2     -1.71640      0.400000           0   0.00000       0.00000    
     40911 TIP3     2941     SWM4     OM       LPDW     -1.11466       0.00000          -1   0.00000       0.00000    
     40912 TIP3     2941     SWM4     H1       HDW      0.557330       1.00800           0   0.00000       0.00000    
     40913 TIP3     2941     SWM4     H2       HDW      0.557330       1.00800           0   0.00000       0.00000    
     40914 TIP3     2942     SWM4     OH2      ODW       1.71640       15.5994           0 -0.978253       1.30000    
     40915 TIP3     2942     SWM4     DOH2     DOH2     -1.71640      0.400000           0   0.00000       0.00000    
     40916 TIP3     2942     SWM4     OM       LPDW     -1.11466       0.00000          -1   0.00000       0.00000    
     40917 TIP3     2942     SWM4     H1       HDW      0.557330       1.00800           0   0.00000       0.00000    
     40918 TIP3     2942     SWM4     H2       HDW      0.557330       1.00800           0   0.00000       0.00000    
     40919 TIP3     2943     SWM4     OH2      ODW       1.71640       15.5994           0 -0.978253       1.30000    
     40920 TIP3     2943     SWM4     DOH2     DOH2     -1.71640      0.400000           0   0.00000       0.00000    
     40921 TIP3     2943     SWM4     OM       LPDW     -1.11466       0.00000          -1   0.00000       0.00000    
     40922 TIP3     2943     SWM4     H1       HDW      0.557330       1.00800           0   0.00000       0.00000    
     40923 TIP3     2943     SWM4     H2       HDW      0.557330       1.00800           0   0.00000       0.00000    
     40924 TIP3     2944     SWM4     OH2      ODW       1.71640       15.5994           0 -0.978253       1.30000    
     40925 TIP3     2944     SWM4     DOH2     DOH2     -1.71640      0.400000           0   0.00000       0.00000    
     40926 TIP3     2944     SWM4     OM       LPDW     -1.11466       0.00000          -1   0.00000       0.00000    
     40927 TIP3     2944     SWM4     H1       HDW      0.557330       1.00800           0   0.00000       0.00000    
     40928 TIP3     2944     SWM4     H2       HDW      0.557330       1.00800           0   0.00000       0.00000    
     40929 TIP3     2945     SWM4     OH2      ODW       1.71640       15.5994           0 -0.978253       1.30000    
     40930 TIP3     2945     SWM4     DOH2     DOH2     -1.71640      0.400000           0   0.00000       0.00000    
     40931 TIP3     2945     SWM4     OM       LPDW     -1.11466       0.00000          -1   0.00000       0.00000    
     40932 TIP3     2945     SWM4     H1       HDW      0.557330       1.00800           0   0.00000       0.00000    
     40933 TIP3     2945     SWM4     H2       HDW      0.557330       1.00800           0   0.00000       0.00000    
     40934 TIP3     2946     SWM4     OH2      ODW       1.71640       15.5994           0 -0.978253       1.30000    
     40935 TIP3     2946     SWM4     DOH2     DOH2     -1.71640      0.400000           0   0.00000       0.00000    
     40936 TIP3     2946     SWM4     OM       LPDW     -1.11466       0.00000          -1   0.00000       0.00000    
     40937 TIP3     2946     SWM4     H1       HDW      0.557330       1.00800           0   0.00000       0.00000    
     40938 TIP3     2946     SWM4     H2       HDW      0.557330       1.00800           0   0.00000       0.00000    
     40939 TIP3     2947     SWM4     OH2      ODW       1.71640       15.5994           0 -0.978253       1.30000    
     40940 TIP3     2947     SWM4     DOH2     DOH2     -1.71640      0.400000           0   0.00000       0.00000    
     40941 TIP3     2947     SWM4     OM       LPDW     -1.11466       0.00000          -1   0.00000       0.00000    
     40942 TIP3     2947     SWM4     H1       HDW      0.557330       1.00800           0   0.00000       0.00000    
     40943 TIP3     2947     SWM4     H2       HDW      0.557330       1.00800           0   0.00000       0.00000    
     40944 TIP3     2948     SWM4     OH2      ODW       1.71640       15.5994           0 -0.978253       1.30000    
     40945 TIP3     2948     SWM4     DOH2     DOH2     -1.71640      0.400000           0   0.00000       0.00000    
     40946 TIP3     2948     SWM4     OM       LPDW     -1.11466       0.00000          -1   0.00000       0.00000    
     40947 TIP3     2948     SWM4     H1       HDW      0.557330       1.00800           0   0.00000       0.00000    
     40948 TIP3     2948     SWM4     H2       HDW      0.557330       1.00800           0   0.00000       0.00000    
     40949 TIP3     2949     SWM4     OH2      ODW       1.71640       15.5994           0 -0.978253       1.30000    
     40950 TIP3     2949     SWM4     DOH2     DOH2     -1.71640      0.400000           0   0.00000       0.00000    
     40951 TIP3     2949     SWM4     OM       LPDW     -1.11466       0.00000          -1   0.00000       0.00000    
     40952 TIP3     2949     SWM4     H1       HDW      0.557330       1.00800           0   0.00000       0.00000    
     40953 TIP3     2949     SWM4     H2       HDW      0.557330       1.00800           0   0.00000       0.00000    
     40954 TIP3     2950     SWM4     OH2      ODW       1.71640       15.5994           0 -0.978253       1.30000    
     40955 TIP3     2950     SWM4     DOH2     DOH2     -1.71640      0.400000           0   0.00000       0.00000    
     40956 TIP3     2950     SWM4     OM       LPDW     -1.11466       0.00000          -1   0.00000       0.00000    
     40957 TIP3     2950     SWM4     H1       HDW      0.557330       1.00800           0   0.00000       0.00000    
     40958 TIP3     2950     SWM4     H2       HDW      0.557330       1.00800           0   0.00000       0.00000    
     40959 TIP3     2951     SWM4     OH2      ODW       1.71640       15.5994           0 -0.978253       1.30000    
     40960 TIP3     2951     SWM4     DOH2     DOH2     -1.71640      0.400000           0   0.00000       0.00000    
     40961 TIP3     2951     SWM4     OM       LPDW     -1.11466       0.00000          -1   0.00000       0.00000    
     40962 TIP3     2951     SWM4     H1       HDW      0.557330       1.00800           0   0.00000       0.00000    
     40963 TIP3     2951     SWM4     H2       HDW      0.557330       1.00800           0   0.00000       0.00000    
     40964 TIP3     2952     SWM4     OH2      ODW       1.71640       15.5994           0 -0.978253       1.30000    
     40965 TIP3     2952     SWM4     DOH2     DOH2     -1.71640      0.400000           0   0.00000       0.00000    
     40966 TIP3     2952     SWM4     OM       LPDW     -1.11466       0.00000          -1   0.00000       0.00000    
     40967 TIP3     2952     SWM4     H1       HDW      0.557330       1.00800           0   0.00000       0.00000    
     40968 TIP3     2952     SWM4     H2       HDW      0.557330       1.00800           0   0.00000       0.00000    
     40969 TIP3     2953     SWM4     OH2      ODW       1.71640       15.5994           0 -0.978253       1.30000    
     40970 TIP3     2953     SWM4     DOH2     DOH2     -1.71640      0.400000           0   0.00000       0.00000    
     40971 TIP3     2953     SWM4     OM       LPDW     -1.11466       0.00000          -1   0.00000       0.00000    
     40972 TIP3     2953     SWM4     H1       HDW      0.557330       1.00800           0   0.00000       0.00000    
     40973 TIP3     2953     SWM4     H2       HDW      0.557330       1.00800           0   0.00000       0.00000    
     40974 TIP3     2954     SWM4     OH2      ODW       1.71640       15.5994           0 -0.978253       1.30000    
     40975 TIP3     2954     SWM4     DOH2     DOH2     -1.71640      0.400000           0   0.00000       0.00000    
     40976 TIP3     2954     SWM4     OM       LPDW     -1.11466       0.00000          -1   0.00000       0.00000    
     40977 TIP3     2954     SWM4     H1       HDW      0.557330       1.00800           0   0.00000       0.00000    
     40978 TIP3     2954     SWM4     H2       HDW      0.557330       1.00800           0   0.00000       0.00000    
     40979 TIP3     2955     SWM4     OH2      ODW       1.71640       15.5994           0 -0.978253       1.30000    
     40980 TIP3     2955     SWM4     DOH2     DOH2     -1.71640      0.400000           0   0.00000       0.00000    
     40981 TIP3     2955     SWM4     OM       LPDW     -1.11466       0.00000          -1   0.00000       0.00000    
     40982 TIP3     2955     SWM4     H1       HDW      0.557330       1.00800           0   0.00000       0.00000    
     40983 TIP3     2955     SWM4     H2       HDW      0.557330       1.00800           0   0.00000       0.00000    
     40984 TIP3     2956     SWM4     OH2      ODW       1.71640       15.5994           0 -0.978253       1.30000    
     40985 TIP3     2956     SWM4     DOH2     DOH2     -1.71640      0.400000           0   0.00000       0.00000    
     40986 TIP3     2956     SWM4     OM       LPDW     -1.11466       0.00000          -1   0.00000       0.00000    
     40987 TIP3     2956     SWM4     H1       HDW      0.557330       1.00800           0   0.00000       0.00000    
     40988 TIP3     2956     SWM4     H2       HDW      0.557330       1.00800           0   0.00000       0.00000    
     40989 TIP3     2957     SWM4     OH2      ODW       1.71640       15.5994           0 -0.978253       1.30000    
     40990 TIP3     2957     SWM4     DOH2     DOH2     -1.71640      0.400000           0   0.00000       0.00000    
     40991 TIP3     2957     SWM4     OM       LPDW     -1.11466       0.00000          -1   0.00000       0.00000    
     40992 TIP3     2957     SWM4     H1       HDW      0.557330       1.00800           0   0.00000       0.00000    
     40993 TIP3     2957     SWM4     H2       HDW      0.557330       1.00800           0   0.00000       0.00000    
     40994 TIP3     2958     SWM4     OH2      ODW       1.71640       15.5994           0 -0.978253       1.30000    
     40995 TIP3     2958     SWM4     DOH2     DOH2     -1.71640      0.400000           0   0.00000       0.00000    
     40996 TIP3     2958     SWM4     OM       LPDW     -1.11466       0.00000          -1   0.00000       0.00000    
     40997 TIP3     2958     SWM4     H1       HDW      0.557330       1.00800           0   0.00000       0.00000    
     40998 TIP3     2958     SWM4     H2       HDW      0.557330       1.00800           0   0.00000       0.00000    
     40999 TIP3     2959     SWM4     OH2      ODW       1.71640       15.5994           0 -0.978253       1.30000    
     41000 TIP3     2959     SWM4     DOH2     DOH2     -1.71640      0.400000           0   0.00000       0.00000    
     41001 TIP3     2959     SWM4     OM       LPDW     -1.11466       0.00000          -1   0.00000       0.00000    
     41002 TIP3     2959     SWM4     H1       HDW      0.557330       1.00800           0   0.00000       0.00000    
     41003 TIP3     2959     SWM4     H2       HDW      0.557330       1.00800           0   0.00000       0.00000    
     41004 TIP3     2960     SWM4     OH2      ODW       1.71640       15.5994           0 -0.978253       1.30000    
     41005 TIP3     2960     SWM4     DOH2     DOH2     -1.71640      0.400000           0   0.00000       0.00000    
     41006 TIP3     2960     SWM4     OM       LPDW     -1.11466       0.00000          -1   0.00000       0.00000    
     41007 TIP3     2960     SWM4     H1       HDW      0.557330       1.00800           0   0.00000       0.00000    
     41008 TIP3     2960     SWM4     H2       HDW      0.557330       1.00800           0   0.00000       0.00000    
     41009 TIP3     2961     SWM4     OH2      ODW       1.71640       15.5994           0 -0.978253       1.30000    
     41010 TIP3     2961     SWM4     DOH2     DOH2     -1.71640      0.400000           0   0.00000       0.00000    
     41011 TIP3     2961     SWM4     OM       LPDW     -1.11466       0.00000          -1   0.00000       0.00000    
     41012 TIP3     2961     SWM4     H1       HDW      0.557330       1.00800           0   0.00000       0.00000    
     41013 TIP3     2961     SWM4     H2       HDW      0.557330       1.00800           0   0.00000       0.00000    
     41014 TIP3     2962     SWM4     OH2      ODW       1.71640       15.5994           0 -0.978253       1.30000    
     41015 TIP3     2962     SWM4     DOH2     DOH2     -1.71640      0.400000           0   0.00000       0.00000    
     41016 TIP3     2962     SWM4     OM       LPDW     -1.11466       0.00000          -1   0.00000       0.00000    
     41017 TIP3     2962     SWM4     H1       HDW      0.557330       1.00800           0   0.00000       0.00000    
     41018 TIP3     2962     SWM4     H2       HDW      0.557330       1.00800           0   0.00000       0.00000    
     41019 TIP3     2963     SWM4     OH2      ODW       1.71640       15.5994           0 -0.978253       1.30000    
     41020 TIP3     2963     SWM4     DOH2     DOH2     -1.71640      0.400000           0   0.00000       0.00000    
     41021 TIP3     2963     SWM4     OM       LPDW     -1.11466       0.00000          -1   0.00000       0.00000    
     41022 TIP3     2963     SWM4     H1       HDW      0.557330       1.00800           0   0.00000       0.00000    
     41023 TIP3     2963     SWM4     H2       HDW      0.557330       1.00800           0   0.00000       0.00000    
     41024 TIP3     2964     SWM4     OH2      ODW       1.71640       15.5994           0 -0.978253       1.30000    
     41025 TIP3     2964     SWM4     DOH2     DOH2     -1.71640      0.400000           0   0.00000       0.00000    
     41026 TIP3     2964     SWM4     OM       LPDW     -1.11466       0.00000          -1   0.00000       0.00000    
     41027 TIP3     2964     SWM4     H1       HDW      0.557330       1.00800           0   0.00000       0.00000    
     41028 TIP3     2964     SWM4     H2       HDW      0.557330       1.00800           0   0.00000       0.00000    
     41029 TIP3     2965     SWM4     OH2      ODW       1.71640       15.5994           0 -0.978253       1.30000    
     41030 TIP3     2965     SWM4     DOH2     DOH2     -1.71640      0.400000           0   0.00000       0.00000    
     41031 TIP3     2965     SWM4     OM       LPDW     -1.11466       0.00000          -1   0.00000       0.00000    
     41032 TIP3     2965     SWM4     H1       HDW      0.557330       1.00800           0   0.00000       0.00000    
     41033 TIP3     2965     SWM4     H2       HDW      0.557330       1.00800           0   0.00000       0.00000    
     41034 TIP3     2966     SWM4     OH2      ODW       1.71640       15.5994           0 -0.978253       1.30000    
     41035 TIP3     2966     SWM4     DOH2     DOH2     -1.71640      0.400000           0   0.00000       0.00000    
     41036 TIP3     2966     SWM4     OM       LPDW     -1.11466       0.00000          -1   0.00000       0.00000    
     41037 TIP3     2966     SWM4     H1       HDW      0.557330       1.00800           0   0.00000       0.00000    
     41038 TIP3     2966     SWM4     H2       HDW      0.557330       1.00800           0   0.00000       0.00000    
     41039 TIP3     2967     SWM4     OH2      ODW       1.71640       15.5994           0 -0.978253       1.30000    
     41040 TIP3     2967     SWM4     DOH2     DOH2     -1.71640      0.400000           0   0.00000       0.00000    
     41041 TIP3     2967     SWM4     OM       LPDW     -1.11466       0.00000          -1   0.00000       0.00000    
     41042 TIP3     2967     SWM4     H1       HDW      0.557330       1.00800           0   0.00000       0.00000    
     41043 TIP3     2967     SWM4     H2       HDW      0.557330       1.00800           0   0.00000       0.00000    
     41044 TIP3     2968     SWM4     OH2      ODW       1.71640       15.5994           0 -0.978253       1.30000    
     41045 TIP3     2968     SWM4     DOH2     DOH2     -1.71640      0.400000           0   0.00000       0.00000    
     41046 TIP3     2968     SWM4     OM       LPDW     -1.11466       0.00000          -1   0.00000       0.00000    
     41047 TIP3     2968     SWM4     H1       HDW      0.557330       1.00800           0   0.00000       0.00000    
     41048 TIP3     2968     SWM4     H2       HDW      0.557330       1.00800           0   0.00000       0.00000    
     41049 TIP3     2969     SWM4     OH2      ODW       1.71640       15.5994           0 -0.978253       1.30000    
     41050 TIP3     2969     SWM4     DOH2     DOH2     -1.71640      0.400000           0   0.00000       0.00000    
     41051 TIP3     2969     SWM4     OM       LPDW     -1.11466       0.00000          -1   0.00000       0.00000    
     41052 TIP3     2969     SWM4     H1       HDW      0.557330       1.00800           0   0.00000       0.00000    
     41053 TIP3     2969     SWM4     H2       HDW      0.557330       1.00800           0   0.00000       0.00000    
     41054 TIP3     2970     SWM4     OH2      ODW       1.71640       15.5994           0 -0.978253       1.30000    
     41055 TIP3     2970     SWM4     DOH2     DOH2     -1.71640      0.400000           0   0.00000       0.00000    
     41056 TIP3     2970     SWM4     OM       LPDW     -1.11466       0.00000          -1   0.00000       0.00000    
     41057 TIP3     2970     SWM4     H1       HDW      0.557330       1.00800           0   0.00000       0.00000    
     41058 TIP3     2970     SWM4     H2       HDW      0.557330       1.00800           0   0.00000       0.00000    
     41059 TIP3     2971     SWM4     OH2      ODW       1.71640       15.5994           0 -0.978253       1.30000    
     41060 TIP3     2971     SWM4     DOH2     DOH2     -1.71640      0.400000           0   0.00000       0.00000    
     41061 TIP3     2971     SWM4     OM       LPDW     -1.11466       0.00000          -1   0.00000       0.00000    
     41062 TIP3     2971     SWM4     H1       HDW      0.557330       1.00800           0   0.00000       0.00000    
     41063 TIP3     2971     SWM4     H2       HDW      0.557330       1.00800           0   0.00000       0.00000    
     41064 TIP3     2972     SWM4     OH2      ODW       1.71640       15.5994           0 -0.978253       1.30000    
     41065 TIP3     2972     SWM4     DOH2     DOH2     -1.71640      0.400000           0   0.00000       0.00000    
     41066 TIP3     2972     SWM4     OM       LPDW     -1.11466       0.00000          -1   0.00000       0.00000    
     41067 TIP3     2972     SWM4     H1       HDW      0.557330       1.00800           0   0.00000       0.00000    
     41068 TIP3     2972     SWM4     H2       HDW      0.557330       1.00800           0   0.00000       0.00000    
     41069 TIP3     2973     SWM4     OH2      ODW       1.71640       15.5994           0 -0.978253       1.30000    
     41070 TIP3     2973     SWM4     DOH2     DOH2     -1.71640      0.400000           0   0.00000       0.00000    
     41071 TIP3     2973     SWM4     OM       LPDW     -1.11466       0.00000          -1   0.00000       0.00000    
     41072 TIP3     2973     SWM4     H1       HDW      0.557330       1.00800           0   0.00000       0.00000    
     41073 TIP3     2973     SWM4     H2       HDW      0.557330       1.00800           0   0.00000       0.00000    
     41074 TIP3     2974     SWM4     OH2      ODW       1.71640       15.5994           0 -0.978253       1.30000    
     41075 TIP3     2974     SWM4     DOH2     DOH2     -1.71640      0.400000           0   0.00000       0.00000    
     41076 TIP3     2974     SWM4     OM       LPDW     -1.11466       0.00000          -1   0.00000       0.00000    
     41077 TIP3     2974     SWM4     H1       HDW      0.557330       1.00800           0   0.00000       0.00000    
     41078 TIP3     2974     SWM4     H2       HDW      0.557330       1.00800           0   0.00000       0.00000    
     41079 TIP3     2975     SWM4     OH2      ODW       1.71640       15.5994           0 -0.978253       1.30000    
     41080 TIP3     2975     SWM4     DOH2     DOH2     -1.71640      0.400000           0   0.00000       0.00000    
     41081 TIP3     2975     SWM4     OM       LPDW     -1.11466       0.00000          -1   0.00000       0.00000    
     41082 TIP3     2975     SWM4     H1       HDW      0.557330       1.00800           0   0.00000       0.00000    
     41083 TIP3     2975     SWM4     H2       HDW      0.557330       1.00800           0   0.00000       0.00000    
     41084 TIP3     2976     SWM4     OH2      ODW       1.71640       15.5994           0 -0.978253       1.30000    
     41085 TIP3     2976     SWM4     DOH2     DOH2     -1.71640      0.400000           0   0.00000       0.00000    
     41086 TIP3     2976     SWM4     OM       LPDW     -1.11466       0.00000          -1   0.00000       0.00000    
     41087 TIP3     2976     SWM4     H1       HDW      0.557330       1.00800           0   0.00000       0.00000    
     41088 TIP3     2976     SWM4     H2       HDW      0.557330       1.00800           0   0.00000       0.00000    
     41089 TIP3     2977     SWM4     OH2      ODW       1.71640       15.5994           0 -0.978253       1.30000    
     41090 TIP3     2977     SWM4     DOH2     DOH2     -1.71640      0.400000           0   0.00000       0.00000    
     41091 TIP3     2977     SWM4     OM       LPDW     -1.11466       0.00000          -1   0.00000       0.00000    
     41092 TIP3     2977     SWM4     H1       HDW      0.557330       1.00800           0   0.00000       0.00000    
     41093 TIP3     2977     SWM4     H2       HDW      0.557330       1.00800           0   0.00000       0.00000    
     41094 TIP3     2978     SWM4     OH2      ODW       1.71640       15.5994           0 -0.978253       1.30000    
     41095 TIP3     2978     SWM4     DOH2     DOH2     -1.71640      0.400000           0   0.00000       0.00000    
     41096 TIP3     2978     SWM4     OM       LPDW     -1.11466       0.00000          -1   0.00000       0.00000    
     41097 TIP3     2978     SWM4     H1       HDW      0.557330       1.00800           0   0.00000       0.00000    
     41098 TIP3     2978     SWM4     H2       HDW      0.557330       1.00800           0   0.00000       0.00000    
     41099 TIP3     2979     SWM4     OH2      ODW       1.71640       15.5994           0 -0.978253       1.30000    
     41100 TIP3     2979     SWM4     DOH2     DOH2     -1.71640      0.400000           0   0.00000       0.00000    
     41101 TIP3     2979     SWM4     OM       LPDW     -1.11466       0.00000          -1   0.00000       0.00000    
     41102 TIP3     2979     SWM4     H1       HDW      0.557330       1.00800           0   0.00000       0.00000    
     41103 TIP3     2979     SWM4     H2       HDW      0.557330       1.00800           0   0.00000       0.00000    
     41104 TIP3     2980     SWM4     OH2      ODW       1.71640       15.5994           0 -0.978253       1.30000    
     41105 TIP3     2980     SWM4     DOH2     DOH2     -1.71640      0.400000           0   0.00000       0.00000    
     41106 TIP3     2980     SWM4     OM       LPDW     -1.11466       0.00000          -1   0.00000       0.00000    
     41107 TIP3     2980     SWM4     H1       HDW      0.557330       1.00800           0   0.00000       0.00000    
     41108 TIP3     2980     SWM4     H2       HDW      0.557330       1.00800           0   0.00000       0.00000    
     41109 TIP3     2981     SWM4     OH2      ODW       1.71640       15.5994           0 -0.978253       1.30000    
     41110 TIP3     2981     SWM4     DOH2     DOH2     -1.71640      0.400000           0   0.00000       0.00000    
     41111 TIP3     2981     SWM4     OM       LPDW     -1.11466       0.00000          -1   0.00000       0.00000    
     41112 TIP3     2981     SWM4     H1       HDW      0.557330       1.00800           0   0.00000       0.00000    
     41113 TIP3     2981     SWM4     H2       HDW      0.557330       1.00800           0   0.00000       0.00000    
     41114 TIP3     2982     SWM4     OH2      ODW       1.71640       15.5994           0 -0.978253       1.30000    
     41115 TIP3     2982     SWM4     DOH2     DOH2     -1.71640      0.400000           0   0.00000       0.00000    
     41116 TIP3     2982     SWM4     OM       LPDW     -1.11466       0.00000          -1   0.00000       0.00000    
     41117 TIP3     2982     SWM4     H1       HDW      0.557330       1.00800           0   0.00000       0.00000    
     41118 TIP3     2982     SWM4     H2       HDW      0.557330       1.00800           0   0.00000       0.00000    
     41119 TIP3     2983     SWM4     OH2      ODW       1.71640       15.5994           0 -0.978253       1.30000    
     41120 TIP3     2983     SWM4     DOH2     DOH2     -1.71640      0.400000           0   0.00000       0.00000    
     41121 TIP3     2983     SWM4     OM       LPDW     -1.11466       0.00000          -1   0.00000       0.00000    
     41122 TIP3     2983     SWM4     H1       HDW      0.557330       1.00800           0   0.00000       0.00000    
     41123 TIP3     2983     SWM4     H2       HDW      0.557330       1.00800           0   0.00000       0.00000    
     41124 TIP3     2984     SWM4     OH2      ODW       1.71640       15.5994           0 -0.978253       1.30000    
     41125 TIP3     2984     SWM4     DOH2     DOH2     -1.71640      0.400000           0   0.00000       0.00000    
     41126 TIP3     2984     SWM4     OM       LPDW     -1.11466       0.00000          -1   0.00000       0.00000    
     41127 TIP3     2984     SWM4     H1       HDW      0.557330       1.00800           0   0.00000       0.00000    
     41128 TIP3     2984     SWM4     H2       HDW      0.557330       1.00800           0   0.00000       0.00000    
     41129 TIP3     2985     SWM4     OH2      ODW       1.71640       15.5994           0 -0.978253       1.30000    
     41130 TIP3     2985     SWM4     DOH2     DOH2     -1.71640      0.400000           0   0.00000       0.00000    
     41131 TIP3     2985     SWM4     OM       LPDW     -1.11466       0.00000          -1   0.00000       0.00000    
     41132 TIP3     2985     SWM4     H1       HDW      0.557330       1.00800           0   0.00000       0.00000    
     41133 TIP3     2985     SWM4     H2       HDW      0.557330       1.00800           0   0.00000       0.00000    
     41134 TIP3     2986     SWM4     OH2      ODW       1.71640       15.5994           0 -0.978253       1.30000    
     41135 TIP3     2986     SWM4     DOH2     DOH2     -1.71640      0.400000           0   0.00000       0.00000    
     41136 TIP3     2986     SWM4     OM       LPDW     -1.11466       0.00000          -1   0.00000       0.00000    
     41137 TIP3     2986     SWM4     H1       HDW      0.557330       1.00800           0   0.00000       0.00000    
     41138 TIP3     2986     SWM4     H2       HDW      0.557330       1.00800           0   0.00000       0.00000    
     41139 TIP3     2987     SWM4     OH2      ODW       1.71640       15.5994           0 -0.978253       1.30000    
     41140 TIP3     2987     SWM4     DOH2     DOH2     -1.71640      0.400000           0   0.00000       0.00000    
     41141 TIP3     2987     SWM4     OM       LPDW     -1.11466       0.00000          -1   0.00000       0.00000    
     41142 TIP3     2987     SWM4     H1       HDW      0.557330       1.00800           0   0.00000       0.00000    
     41143 TIP3     2987     SWM4     H2       HDW      0.557330       1.00800           0   0.00000       0.00000    
     41144 TIP3     2988     SWM4     OH2      ODW       1.71640       15.5994           0 -0.978253       1.30000    
     41145 TIP3     2988     SWM4     DOH2     DOH2     -1.71640      0.400000           0   0.00000       0.00000    
     41146 TIP3     2988     SWM4     OM       LPDW     -1.11466       0.00000          -1   0.00000       0.00000    
     41147 TIP3     2988     SWM4     H1       HDW      0.557330       1.00800           0   0.00000       0.00000    
     41148 TIP3     2988     SWM4     H2       HDW      0.557330       1.00800           0   0.00000       0.00000    
     41149 TIP3     2989     SWM4     OH2      ODW       1.71640       15.5994           0 -0.978253       1.30000    
     41150 TIP3     2989     SWM4     DOH2     DOH2     -1.71640      0.400000           0   0.00000       0.00000    
     41151 TIP3     2989     SWM4     OM       LPDW     -1.11466       0.00000          -1   0.00000       0.00000    
     41152 TIP3     2989     SWM4     H1       HDW      0.557330       1.00800           0   0.00000       0.00000    
     41153 TIP3     2989     SWM4     H2       HDW      0.557330       1.00800           0   0.00000       0.00000    
     41154 TIP3     2990     SWM4     OH2      ODW       1.71640       15.5994           0 -0.978253       1.30000    
     41155 TIP3     2990     SWM4     DOH2     DOH2     -1.71640      0.400000           0   0.00000       0.00000    
     41156 TIP3     2990     SWM4     OM       LPDW     -1.11466       0.00000          -1   0.00000       0.00000    
     41157 TIP3     2990     SWM4     H1       HDW      0.557330       1.00800           0   0.00000       0.00000    
     41158 TIP3     2990     SWM4     H2       HDW      0.557330       1.00800           0   0.00000       0.00000    
     41159 TIP3     2991     SWM4     OH2      ODW       1.71640       15.5994           0 -0.978253       1.30000    
     41160 TIP3     2991     SWM4     DOH2     DOH2     -1.71640      0.400000           0   0.00000       0.00000    
     41161 TIP3     2991     SWM4     OM       LPDW     -1.11466       0.00000          -1   0.00000       0.00000    
     41162 TIP3     2991     SWM4     H1       HDW      0.557330       1.00800           0   0.00000       0.00000    
     41163 TIP3     2991     SWM4     H2       HDW      0.557330       1.00800           0   0.00000       0.00000    
     41164 TIP3     2992     SWM4     OH2      ODW       1.71640       15.5994           0 -0.978253       1.30000    
     41165 TIP3     2992     SWM4     DOH2     DOH2     -1.71640      0.400000           0   0.00000       0.00000    
     41166 TIP3     2992     SWM4     OM       LPDW     -1.11466       0.00000          -1   0.00000       0.00000    
     41167 TIP3     2992     SWM4     H1       HDW      0.557330       1.00800           0   0.00000       0.00000    
     41168 TIP3     2992     SWM4     H2       HDW      0.557330       1.00800           0   0.00000       0.00000    
     41169 TIP3     2993     SWM4     OH2      ODW       1.71640       15.5994           0 -0.978253       1.30000    
     41170 TIP3     2993     SWM4     DOH2     DOH2     -1.71640      0.400000           0   0.00000       0.00000    
     41171 TIP3     2993     SWM4     OM       LPDW     -1.11466       0.00000          -1   0.00000       0.00000    
     41172 TIP3     2993     SWM4     H1       HDW      0.557330       1.00800           0   0.00000       0.00000    
     41173 TIP3     2993     SWM4     H2       HDW      0.557330       1.00800           0   0.00000       0.00000    
     41174 TIP3     2994     SWM4     OH2      ODW       1.71640       15.5994           0 -0.978253       1.30000    
     41175 TIP3     2994     SWM4     DOH2     DOH2     -1.71640      0.400000           0   0.00000       0.00000    
     41176 TIP3     2994     SWM4     OM       LPDW     -1.11466       0.00000          -1   0.00000       0.00000    
     41177 TIP3     2994     SWM4     H1       HDW      0.557330       1.00800           0   0.00000       0.00000    
     41178 TIP3     2994     SWM4     H2       HDW      0.557330       1.00800           0   0.00000       0.00000    
     41179 TIP3     2995     SWM4     OH2      ODW       1.71640       15.5994           0 -0.978253       1.30000    
     41180 TIP3     2995     SWM4     DOH2     DOH2     -1.71640      0.400000           0   0.00000       0.00000    
     41181 TIP3     2995     SWM4     OM       LPDW     -1.11466       0.00000          -1   0.00000       0.00000    
     41182 TIP3     2995     SWM4     H1       HDW      0.557330       1.00800           0   0.00000       0.00000    
     41183 TIP3     2995     SWM4     H2       HDW      0.557330       1.00800           0   0.00000       0.00000    
     41184 TIP3     2996     SWM4     OH2      ODW       1.71640       15.5994           0 -0.978253       1.30000    
     41185 TIP3     2996     SWM4     DOH2     DOH2     -1.71640      0.400000           0   0.00000       0.00000    
     41186 TIP3     2996     SWM4     OM       LPDW     -1.11466       0.00000          -1   0.00000       0.00000    
     41187 TIP3     2996     SWM4     H1       HDW      0.557330       1.00800           0   0.00000       0.00000    
     41188 TIP3     2996     SWM4     H2       HDW      0.557330       1.00800           0   0.00000       0.00000    
     41189 TIP3     2997     SWM4     OH2      ODW       1.71640       15.5994           0 -0.978253       1.30000    
     41190 TIP3     2997     SWM4     DOH2     DOH2     -1.71640      0.400000           0   0.00000       0.00000    
     41191 TIP3     2997     SWM4     OM       LPDW     -1.11466       0.00000          -1   0.00000       0.00000    
     41192 TIP3     2997     SWM4     H1       HDW      0.557330       1.00800           0   0.00000       0.00000    
     41193 TIP3     2997     SWM4     H2       HDW      0.557330       1.00800           0   0.00000       0.00000    
     41194 TIP3     2998     SWM4     OH2      ODW       1.71640       15.5994           0 -0.978253       1.30000    
     41195 TIP3     2998     SWM4     DOH2     DOH2     -1.71640      0.400000           0   0.00000       0.00000    
     41196 TIP3     2998     SWM4     OM       LPDW     -1.11466       0.00000          -1   0.00000       0.00000    
     41197 TIP3     2998     SWM4     H1       HDW      0.557330       1.00800           0   0.00000       0.00000    
     41198 TIP3     2998     SWM4     H2       HDW      0.557330       1.00800           0   0.00000       0.00000    
     41199 TIP3     2999     SWM4     OH2      ODW       1.71640       15.5994           0 -0.978253       1.30000    
     41200 TIP3     2999     SWM4     DOH2     DOH2     -1.71640      0.400000           0   0.00000       0.00000    
     41201 TIP3     2999     SWM4     OM       LPDW     -1.11466       0.00000          -1   0.00000       0.00000    
     41202 TIP3     2999     SWM4     H1       HDW      0.557330       1.00800           0   0.00000       0.00000    
     41203 TIP3     2999     SWM4     H2       HDW      0.557330       1.00800           0   0.00000       0.00000    
     41204 TIP3     3000     SWM4     OH2      ODW       1.71640       15.5994           0 -0.978253       1.30000    
     41205 TIP3     3000     SWM4     DOH2     DOH2     -1.71640      0.400000           0   0.00000       0.00000    
     41206 TIP3     3000     SWM4     OM       LPDW     -1.11466       0.00000          -1   0.00000       0.00000    
     41207 TIP3     3000     SWM4     H1       HDW      0.557330       1.00800           0   0.00000       0.00000    
     41208 TIP3     3000     SWM4     H2       HDW      0.557330       1.00800           0   0.00000       0.00000    
     41209 TIP3     3001     SWM4     OH2      ODW       1.71640       15.5994           0 -0.978253       1.30000    
     41210 TIP3     3001     SWM4     DOH2     DOH2     -1.71640      0.400000           0   0.00000       0.00000    
     41211 TIP3     3001     SWM4     OM       LPDW     -1.11466       0.00000          -1   0.00000       0.00000    
     41212 TIP3     3001     SWM4     H1       HDW      0.557330       1.00800           0   0.00000       0.00000    
     41213 TIP3     3001     SWM4     H2       HDW      0.557330       1.00800           0   0.00000       0.00000    
     41214 TIP3     3002     SWM4     OH2      ODW       1.71640       15.5994           0 -0.978253       1.30000    
     41215 TIP3     3002     SWM4     DOH2     DOH2     -1.71640      0.400000           0   0.00000       0.00000    
     41216 TIP3     3002     SWM4     OM       LPDW     -1.11466       0.00000          -1   0.00000       0.00000    
     41217 TIP3     3002     SWM4     H1       HDW      0.557330       1.00800           0   0.00000       0.00000    
     41218 TIP3     3002     SWM4     H2       HDW      0.557330       1.00800           0   0.00000       0.00000    
     41219 TIP3     3003     SWM4     OH2      ODW       1.71640       15.5994           0 -0.978253       1.30000    
     41220 TIP3     3003     SWM4     DOH2     DOH2     -1.71640      0.400000           0   0.00000       0.00000    
     41221 TIP3     3003     SWM4     OM       LPDW     -1.11466       0.00000          -1   0.00000       0.00000    
     41222 TIP3     3003     SWM4     H1       HDW      0.557330       1.00800           0   0.00000       0.00000    
     41223 TIP3     3003     SWM4     H2       HDW      0.557330       1.00800           0   0.00000       0.00000    
     41224 TIP3     3004     SWM4     OH2      ODW       1.71640       15.5994           0 -0.978253       1.30000    
     41225 TIP3     3004     SWM4     DOH2     DOH2     -1.71640      0.400000           0   0.00000       0.00000    
     41226 TIP3     3004     SWM4     OM       LPDW     -1.11466       0.00000          -1   0.00000       0.00000    
     41227 TIP3     3004     SWM4     H1       HDW      0.557330       1.00800           0   0.00000       0.00000    
     41228 TIP3     3004     SWM4     H2       HDW      0.557330       1.00800           0   0.00000       0.00000    
     41229 TIP3     3005     SWM4     OH2      ODW       1.71640       15.5994           0 -0.978253       1.30000    
     41230 TIP3     3005     SWM4     DOH2     DOH2     -1.71640      0.400000           0   0.00000       0.00000    
     41231 TIP3     3005     SWM4     OM       LPDW     -1.11466       0.00000          -1   0.00000       0.00000    
     41232 TIP3     3005     SWM4     H1       HDW      0.557330       1.00800           0   0.00000       0.00000    
     41233 TIP3     3005     SWM4     H2       HDW      0.557330       1.00800           0   0.00000       0.00000    
     41234 TIP3     3006     SWM4     OH2      ODW       1.71640       15.5994           0 -0.978253       1.30000    
     41235 TIP3     3006     SWM4     DOH2     DOH2     -1.71640      0.400000           0   0.00000       0.00000    
     41236 TIP3     3006     SWM4     OM       LPDW     -1.11466       0.00000          -1   0.00000       0.00000    
     41237 TIP3     3006     SWM4     H1       HDW      0.557330       1.00800           0   0.00000       0.00000    
     41238 TIP3     3006     SWM4     H2       HDW      0.557330       1.00800           0   0.00000       0.00000    
     41239 TIP3     3007     SWM4     OH2      ODW       1.71640       15.5994           0 -0.978253       1.30000    
     41240 TIP3     3007     SWM4     DOH2     DOH2     -1.71640      0.400000           0   0.00000       0.00000    
     41241 TIP3     3007     SWM4     OM       LPDW     -1.11466       0.00000          -1   0.00000       0.00000    
     41242 TIP3     3007     SWM4     H1       HDW      0.557330       1.00800           0   0.00000       0.00000    
     41243 TIP3     3007     SWM4     H2       HDW      0.557330       1.00800           0   0.00000       0.00000    
     41244 TIP3     3008     SWM4     OH2      ODW       1.71640       15.5994           0 -0.978253       1.30000    
     41245 TIP3     3008     SWM4     DOH2     DOH2     -1.71640      0.400000           0   0.00000       0.00000    
     41246 TIP3     3008     SWM4     OM       LPDW     -1.11466       0.00000          -1   0.00000       0.00000    
     41247 TIP3     3008     SWM4     H1       HDW      0.557330       1.00800           0   0.00000       0.00000    
     41248 TIP3     3008     SWM4     H2       HDW      0.557330       1.00800           0   0.00000       0.00000    
     41249 TIP3     3009     SWM4     OH2      ODW       1.71640       15.5994           0 -0.978253       1.30000    
     41250 TIP3     3009     SWM4     DOH2     DOH2     -1.71640      0.400000           0   0.00000       0.00000    
     41251 TIP3     3009     SWM4     OM       LPDW     -1.11466       0.00000          -1   0.00000       0.00000    
     41252 TIP3     3009     SWM4     H1       HDW      0.557330       1.00800           0   0.00000       0.00000    
     41253 TIP3     3009     SWM4     H2       HDW      0.557330       1.00800           0   0.00000       0.00000    
     41254 TIP3     3010     SWM4     OH2      ODW       1.71640       15.5994           0 -0.978253       1.30000    
     41255 TIP3     3010     SWM4     DOH2     DOH2     -1.71640      0.400000           0   0.00000       0.00000    
     41256 TIP3     3010     SWM4     OM       LPDW     -1.11466       0.00000          -1   0.00000       0.00000    
     41257 TIP3     3010     SWM4     H1       HDW      0.557330       1.00800           0   0.00000       0.00000    
     41258 TIP3     3010     SWM4     H2       HDW      0.557330       1.00800           0   0.00000       0.00000    
     41259 TIP3     3011     SWM4     OH2      ODW       1.71640       15.5994           0 -0.978253       1.30000    
     41260 TIP3     3011     SWM4     DOH2     DOH2     -1.71640      0.400000           0   0.00000       0.00000    
     41261 TIP3     3011     SWM4     OM       LPDW     -1.11466       0.00000          -1   0.00000       0.00000    
     41262 TIP3     3011     SWM4     H1       HDW      0.557330       1.00800           0   0.00000       0.00000    
     41263 TIP3     3011     SWM4     H2       HDW      0.557330       1.00800           0   0.00000       0.00000    
     41264 TIP3     3012     SWM4     OH2      ODW       1.71640       15.5994           0 -0.978253       1.30000    
     41265 TIP3     3012     SWM4     DOH2     DOH2     -1.71640      0.400000           0   0.00000       0.00000    
     41266 TIP3     3012     SWM4     OM       LPDW     -1.11466       0.00000          -1   0.00000       0.00000    
     41267 TIP3     3012     SWM4     H1       HDW      0.557330       1.00800           0   0.00000       0.00000    
     41268 TIP3     3012     SWM4     H2       HDW      0.557330       1.00800           0   0.00000       0.00000    
     41269 TIP3     3013     SWM4     OH2      ODW       1.71640       15.5994           0 -0.978253       1.30000    
     41270 TIP3     3013     SWM4     DOH2     DOH2     -1.71640      0.400000           0   0.00000       0.00000    
     41271 TIP3     3013     SWM4     OM       LPDW     -1.11466       0.00000          -1   0.00000       0.00000    
     41272 TIP3     3013     SWM4     H1       HDW      0.557330       1.00800           0   0.00000       0.00000    
     41273 TIP3     3013     SWM4     H2       HDW      0.557330       1.00800           0   0.00000       0.00000    
     41274 TIP3     3014     SWM4     OH2      ODW       1.71640       15.5994           0 -0.978253       1.30000    
     41275 TIP3     3014     SWM4     DOH2     DOH2     -1.71640      0.400000           0   0.00000       0.00000    
     41276 TIP3     3014     SWM4     OM       LPDW     -1.11466       0.00000          -1   0.00000       0.00000    
     41277 TIP3     3014     SWM4     H1       HDW      0.557330       1.00800           0   0.00000       0.00000    
     41278 TIP3     3014     SWM4     H2       HDW      0.557330       1.00800           0   0.00000       0.00000    
     41279 TIP3     3015     SWM4     OH2      ODW       1.71640       15.5994           0 -0.978253       1.30000    
     41280 TIP3     3015     SWM4     DOH2     DOH2     -1.71640      0.400000           0   0.00000       0.00000    
     41281 TIP3     3015     SWM4     OM       LPDW     -1.11466       0.00000          -1   0.00000       0.00000    
     41282 TIP3     3015     SWM4     H1       HDW      0.557330       1.00800           0   0.00000       0.00000    
     41283 TIP3     3015     SWM4     H2       HDW      0.557330       1.00800           0   0.00000       0.00000    
     41284 TIP3     3016     SWM4     OH2      ODW       1.71640       15.5994           0 -0.978253       1.30000    
     41285 TIP3     3016     SWM4     DOH2     DOH2     -1.71640      0.400000           0   0.00000       0.00000    
     41286 TIP3     3016     SWM4     OM       LPDW     -1.11466       0.00000          -1   0.00000       0.00000    
     41287 TIP3     3016     SWM4     H1       HDW      0.557330       1.00800           0   0.00000       0.00000    
     41288 TIP3     3016     SWM4     H2       HDW      0.557330       1.00800           0   0.00000       0.00000    
     41289 TIP3     3017     SWM4     OH2      ODW       1.71640       15.5994           0 -0.978253       1.30000    
     41290 TIP3     3017     SWM4     DOH2     DOH2     -1.71640      0.400000           0   0.00000       0.00000    
     41291 TIP3     3017     SWM4     OM       LPDW     -1.11466       0.00000          -1   0.00000       0.00000    
     41292 TIP3     3017     SWM4     H1       HDW      0.557330       1.00800           0   0.00000       0.00000    
     41293 TIP3     3017     SWM4     H2       HDW      0.557330       1.00800           0   0.00000       0.00000    
     41294 TIP3     3018     SWM4     OH2      ODW       1.71640       15.5994           0 -0.978253       1.30000    
     41295 TIP3     3018     SWM4     DOH2     DOH2     -1.71640      0.400000           0   0.00000       0.00000    
     41296 TIP3     3018     SWM4     OM       LPDW     -1.11466       0.00000          -1   0.00000       0.00000    
     41297 TIP3     3018     SWM4     H1       HDW      0.557330       1.00800           0   0.00000       0.00000    
     41298 TIP3     3018     SWM4     H2       HDW      0.557330       1.00800           0   0.00000       0.00000    
     41299 TIP3     3019     SWM4     OH2      ODW       1.71640       15.5994           0 -0.978253       1.30000    
     41300 TIP3     3019     SWM4     DOH2     DOH2     -1.71640      0.400000           0   0.00000       0.00000    
     41301 TIP3     3019     SWM4     OM       LPDW     -1.11466       0.00000          -1   0.00000       0.00000    
     41302 TIP3     3019     SWM4     H1       HDW      0.557330       1.00800           0   0.00000       0.00000    
     41303 TIP3     3019     SWM4     H2       HDW      0.557330       1.00800           0   0.00000       0.00000    
     41304 TIP3     3020     SWM4     OH2      ODW       1.71640       15.5994           0 -0.978253       1.30000    
     41305 TIP3     3020     SWM4     DOH2     DOH2     -1.71640      0.400000           0   0.00000       0.00000    
     41306 TIP3     3020     SWM4     OM       LPDW     -1.11466       0.00000          -1   0.00000       0.00000    
     41307 TIP3     3020     SWM4     H1       HDW      0.557330       1.00800           0   0.00000       0.00000    
     41308 TIP3     3020     SWM4     H2       HDW      0.557330       1.00800           0   0.00000       0.00000    
     41309 TIP3     3021     SWM4     OH2      ODW       1.71640       15.5994           0 -0.978253       1.30000    
     41310 TIP3     3021     SWM4     DOH2     DOH2     -1.71640      0.400000           0   0.00000       0.00000    
     41311 TIP3     3021     SWM4     OM       LPDW     -1.11466       0.00000          -1   0.00000       0.00000    
     41312 TIP3     3021     SWM4     H1       HDW      0.557330       1.00800           0   0.00000       0.00000    
     41313 TIP3     3021     SWM4     H2       HDW      0.557330       1.00800           0   0.00000       0.00000    
     41314 TIP3     3022     SWM4     OH2      ODW       1.71640       15.5994           0 -0.978253       1.30000    
     41315 TIP3     3022     SWM4     DOH2     DOH2     -1.71640      0.400000           0   0.00000       0.00000    
     41316 TIP3     3022     SWM4     OM       LPDW     -1.11466       0.00000          -1   0.00000       0.00000    
     41317 TIP3     3022     SWM4     H1       HDW      0.557330       1.00800           0   0.00000       0.00000    
     41318 TIP3     3022     SWM4     H2       HDW      0.557330       1.00800           0   0.00000       0.00000    
     41319 TIP3     3023     SWM4     OH2      ODW       1.71640       15.5994           0 -0.978253       1.30000    
     41320 TIP3     3023     SWM4     DOH2     DOH2     -1.71640      0.400000           0   0.00000       0.00000    
     41321 TIP3     3023     SWM4     OM       LPDW     -1.11466       0.00000          -1   0.00000       0.00000    
     41322 TIP3     3023     SWM4     H1       HDW      0.557330       1.00800           0   0.00000       0.00000    
     41323 TIP3     3023     SWM4     H2       HDW      0.557330       1.00800           0   0.00000       0.00000    
     41324 TIP3     3024     SWM4     OH2      ODW       1.71640       15.5994           0 -0.978253       1.30000    
     41325 TIP3     3024     SWM4     DOH2     DOH2     -1.71640      0.400000           0   0.00000       0.00000    
     41326 TIP3     3024     SWM4     OM       LPDW     -1.11466       0.00000          -1   0.00000       0.00000    
     41327 TIP3     3024     SWM4     H1       HDW      0.557330       1.00800           0   0.00000       0.00000    
     41328 TIP3     3024     SWM4     H2       HDW      0.557330       1.00800           0   0.00000       0.00000    
     41329 TIP3     3025     SWM4     OH2      ODW       1.71640       15.5994           0 -0.978253       1.30000    
     41330 TIP3     3025     SWM4     DOH2     DOH2     -1.71640      0.400000           0   0.00000       0.00000    
     41331 TIP3     3025     SWM4     OM       LPDW     -1.11466       0.00000          -1   0.00000       0.00000    
     41332 TIP3     3025     SWM4     H1       HDW      0.557330       1.00800           0   0.00000       0.00000    
     41333 TIP3     3025     SWM4     H2       HDW      0.557330       1.00800           0   0.00000       0.00000    
     41334 TIP3     3026     SWM4     OH2      ODW       1.71640       15.5994           0 -0.978253       1.30000    
     41335 TIP3     3026     SWM4     DOH2     DOH2     -1.71640      0.400000           0   0.00000       0.00000    
     41336 TIP3     3026     SWM4     OM       LPDW     -1.11466       0.00000          -1   0.00000       0.00000    
     41337 TIP3     3026     SWM4     H1       HDW      0.557330       1.00800           0   0.00000       0.00000    
     41338 TIP3     3026     SWM4     H2       HDW      0.557330       1.00800           0   0.00000       0.00000    
     41339 TIP3     3027     SWM4     OH2      ODW       1.71640       15.5994           0 -0.978253       1.30000    
     41340 TIP3     3027     SWM4     DOH2     DOH2     -1.71640      0.400000           0   0.00000       0.00000    
     41341 TIP3     3027     SWM4     OM       LPDW     -1.11466       0.00000          -1   0.00000       0.00000    
     41342 TIP3     3027     SWM4     H1       HDW      0.557330       1.00800           0   0.00000       0.00000    
     41343 TIP3     3027     SWM4     H2       HDW      0.557330       1.00800           0   0.00000       0.00000    
     41344 TIP3     3028     SWM4     OH2      ODW       1.71640       15.5994           0 -0.978253       1.30000    
     41345 TIP3     3028     SWM4     DOH2     DOH2     -1.71640      0.400000           0   0.00000       0.00000    
     41346 TIP3     3028     SWM4     OM       LPDW     -1.11466       0.00000          -1   0.00000       0.00000    
     41347 TIP3     3028     SWM4     H1       HDW      0.557330       1.00800           0   0.00000       0.00000    
     41348 TIP3     3028     SWM4     H2       HDW      0.557330       1.00800           0   0.00000       0.00000    
     41349 TIP3     3029     SWM4     OH2      ODW       1.71640       15.5994           0 -0.978253       1.30000    
     41350 TIP3     3029     SWM4     DOH2     DOH2     -1.71640      0.400000           0   0.00000       0.00000    
     41351 TIP3     3029     SWM4     OM       LPDW     -1.11466       0.00000          -1   0.00000       0.00000    
     41352 TIP3     3029     SWM4     H1       HDW      0.557330       1.00800           0   0.00000       0.00000    
     41353 TIP3     3029     SWM4     H2       HDW      0.557330       1.00800           0   0.00000       0.00000    
     41354 TIP3     3030     SWM4     OH2      ODW       1.71640       15.5994           0 -0.978253       1.30000    
     41355 TIP3     3030     SWM4     DOH2     DOH2     -1.71640      0.400000           0   0.00000       0.00000    
     41356 TIP3     3030     SWM4     OM       LPDW     -1.11466       0.00000          -1   0.00000       0.00000    
     41357 TIP3     3030     SWM4     H1       HDW      0.557330       1.00800           0   0.00000       0.00000    
     41358 TIP3     3030     SWM4     H2       HDW      0.557330       1.00800           0   0.00000       0.00000    
     41359 TIP3     3031     SWM4     OH2      ODW       1.71640       15.5994           0 -0.978253       1.30000    
     41360 TIP3     3031     SWM4     DOH2     DOH2     -1.71640      0.400000           0   0.00000       0.00000    
     41361 TIP3     3031     SWM4     OM       LPDW     -1.11466       0.00000          -1   0.00000       0.00000    
     41362 TIP3     3031     SWM4     H1       HDW      0.557330       1.00800           0   0.00000       0.00000    
     41363 TIP3     3031     SWM4     H2       HDW      0.557330       1.00800           0   0.00000       0.00000    
     41364 TIP3     3032     SWM4     OH2      ODW       1.71640       15.5994           0 -0.978253       1.30000    
     41365 TIP3     3032     SWM4     DOH2     DOH2     -1.71640      0.400000           0   0.00000       0.00000    
     41366 TIP3     3032     SWM4     OM       LPDW     -1.11466       0.00000          -1   0.00000       0.00000    
     41367 TIP3     3032     SWM4     H1       HDW      0.557330       1.00800           0   0.00000       0.00000    
     41368 TIP3     3032     SWM4     H2       HDW      0.557330       1.00800           0   0.00000       0.00000    
     41369 TIP3     3033     SWM4     OH2      ODW       1.71640       15.5994           0 -0.978253       1.30000    
     41370 TIP3     3033     SWM4     DOH2     DOH2     -1.71640      0.400000           0   0.00000       0.00000    
     41371 TIP3     3033     SWM4     OM       LPDW     -1.11466       0.00000          -1   0.00000       0.00000    
     41372 TIP3     3033     SWM4     H1       HDW      0.557330       1.00800           0   0.00000       0.00000    
     41373 TIP3     3033     SWM4     H2       HDW      0.557330       1.00800           0   0.00000       0.00000    
     41374 TIP3     3034     SWM4     OH2      ODW       1.71640       15.5994           0 -0.978253       1.30000    
     41375 TIP3     3034     SWM4     DOH2     DOH2     -1.71640      0.400000           0   0.00000       0.00000    
     41376 TIP3     3034     SWM4     OM       LPDW     -1.11466       0.00000          -1   0.00000       0.00000    
     41377 TIP3     3034     SWM4     H1       HDW      0.557330       1.00800           0   0.00000       0.00000    
     41378 TIP3     3034     SWM4     H2       HDW      0.557330       1.00800           0   0.00000       0.00000    
     41379 TIP3     3035     SWM4     OH2      ODW       1.71640       15.5994           0 -0.978253       1.30000    
     41380 TIP3     3035     SWM4     DOH2     DOH2     -1.71640      0.400000           0   0.00000       0.00000    
     41381 TIP3     3035     SWM4     OM       LPDW     -1.11466       0.00000          -1   0.00000       0.00000    
     41382 TIP3     3035     SWM4     H1       HDW      0.557330       1.00800           0   0.00000       0.00000    
     41383 TIP3     3035     SWM4     H2       HDW      0.557330       1.00800           0   0.00000       0.00000    
     41384 TIP3     3036     SWM4     OH2      ODW       1.71640       15.5994           0 -0.978253       1.30000    
     41385 TIP3     3036     SWM4     DOH2     DOH2     -1.71640      0.400000           0   0.00000       0.00000    
     41386 TIP3     3036     SWM4     OM       LPDW     -1.11466       0.00000          -1   0.00000       0.00000    
     41387 TIP3     3036     SWM4     H1       HDW      0.557330       1.00800           0   0.00000       0.00000    
     41388 TIP3     3036     SWM4     H2       HDW      0.557330       1.00800           0   0.00000       0.00000    
     41389 TIP3     3037     SWM4     OH2      ODW       1.71640       15.5994           0 -0.978253       1.30000    
     41390 TIP3     3037     SWM4     DOH2     DOH2     -1.71640      0.400000           0   0.00000       0.00000    
     41391 TIP3     3037     SWM4     OM       LPDW     -1.11466       0.00000          -1   0.00000       0.00000    
     41392 TIP3     3037     SWM4     H1       HDW      0.557330       1.00800           0   0.00000       0.00000    
     41393 TIP3     3037     SWM4     H2       HDW      0.557330       1.00800           0   0.00000       0.00000    
     41394 TIP3     3038     SWM4     OH2      ODW       1.71640       15.5994           0 -0.978253       1.30000    
     41395 TIP3     3038     SWM4     DOH2     DOH2     -1.71640      0.400000           0   0.00000       0.00000    
     41396 TIP3     3038     SWM4     OM       LPDW     -1.11466       0.00000          -1   0.00000       0.00000    
     41397 TIP3     3038     SWM4     H1       HDW      0.557330       1.00800           0   0.00000       0.00000    
     41398 TIP3     3038     SWM4     H2       HDW      0.557330       1.00800           0   0.00000       0.00000    
     41399 TIP3     3039     SWM4     OH2      ODW       1.71640       15.5994           0 -0.978253       1.30000    
     41400 TIP3     3039     SWM4     DOH2     DOH2     -1.71640      0.400000           0   0.00000       0.00000    
     41401 TIP3     3039     SWM4     OM       LPDW     -1.11466       0.00000          -1   0.00000       0.00000    
     41402 TIP3     3039     SWM4     H1       HDW      0.557330       1.00800           0   0.00000       0.00000    
     41403 TIP3     3039     SWM4     H2       HDW      0.557330       1.00800           0   0.00000       0.00000    
     41404 TIP3     3040     SWM4     OH2      ODW       1.71640       15.5994           0 -0.978253       1.30000    
     41405 TIP3     3040     SWM4     DOH2     DOH2     -1.71640      0.400000           0   0.00000       0.00000    
     41406 TIP3     3040     SWM4     OM       LPDW     -1.11466       0.00000          -1   0.00000       0.00000    
     41407 TIP3     3040     SWM4     H1       HDW      0.557330       1.00800           0   0.00000       0.00000    
     41408 TIP3     3040     SWM4     H2       HDW      0.557330       1.00800           0   0.00000       0.00000    
     41409 TIP3     3041     SWM4     OH2      ODW       1.71640       15.5994           0 -0.978253       1.30000    
     41410 TIP3     3041     SWM4     DOH2     DOH2     -1.71640      0.400000           0   0.00000       0.00000    
     41411 TIP3     3041     SWM4     OM       LPDW     -1.11466       0.00000          -1   0.00000       0.00000    
     41412 TIP3     3041     SWM4     H1       HDW      0.557330       1.00800           0   0.00000       0.00000    
     41413 TIP3     3041     SWM4     H2       HDW      0.557330       1.00800           0   0.00000       0.00000    
     41414 TIP3     3042     SWM4     OH2      ODW       1.71640       15.5994           0 -0.978253       1.30000    
     41415 TIP3     3042     SWM4     DOH2     DOH2     -1.71640      0.400000           0   0.00000       0.00000    
     41416 TIP3     3042     SWM4     OM       LPDW     -1.11466       0.00000          -1   0.00000       0.00000    
     41417 TIP3     3042     SWM4     H1       HDW      0.557330       1.00800           0   0.00000       0.00000    
     41418 TIP3     3042     SWM4     H2       HDW      0.557330       1.00800           0   0.00000       0.00000    
     41419 TIP3     3043     SWM4     OH2      ODW       1.71640       15.5994           0 -0.978253       1.30000    
     41420 TIP3     3043     SWM4     DOH2     DOH2     -1.71640      0.400000           0   0.00000       0.00000    
     41421 TIP3     3043     SWM4     OM       LPDW     -1.11466       0.00000          -1   0.00000       0.00000    
     41422 TIP3     3043     SWM4     H1       HDW      0.557330       1.00800           0   0.00000       0.00000    
     41423 TIP3     3043     SWM4     H2       HDW      0.557330       1.00800           0   0.00000       0.00000    
     41424 TIP3     3044     SWM4     OH2      ODW       1.71640       15.5994           0 -0.978253       1.30000    
     41425 TIP3     3044     SWM4     DOH2     DOH2     -1.71640      0.400000           0   0.00000       0.00000    
     41426 TIP3     3044     SWM4     OM       LPDW     -1.11466       0.00000          -1   0.00000       0.00000    
     41427 TIP3     3044     SWM4     H1       HDW      0.557330       1.00800           0   0.00000       0.00000    
     41428 TIP3     3044     SWM4     H2       HDW      0.557330       1.00800           0   0.00000       0.00000    
     41429 TIP3     3045     SWM4     OH2      ODW       1.71640       15.5994           0 -0.978253       1.30000    
     41430 TIP3     3045     SWM4     DOH2     DOH2     -1.71640      0.400000           0   0.00000       0.00000    
     41431 TIP3     3045     SWM4     OM       LPDW     -1.11466       0.00000          -1   0.00000       0.00000    
     41432 TIP3     3045     SWM4     H1       HDW      0.557330       1.00800           0   0.00000       0.00000    
     41433 TIP3     3045     SWM4     H2       HDW      0.557330       1.00800           0   0.00000       0.00000    
     41434 TIP3     3046     SWM4     OH2      ODW       1.71640       15.5994           0 -0.978253       1.30000    
     41435 TIP3     3046     SWM4     DOH2     DOH2     -1.71640      0.400000           0   0.00000       0.00000    
     41436 TIP3     3046     SWM4     OM       LPDW     -1.11466       0.00000          -1   0.00000       0.00000    
     41437 TIP3     3046     SWM4     H1       HDW      0.557330       1.00800           0   0.00000       0.00000    
     41438 TIP3     3046     SWM4     H2       HDW      0.557330       1.00800           0   0.00000       0.00000    
     41439 TIP3     3047     SWM4     OH2      ODW       1.71640       15.5994           0 -0.978253       1.30000    
     41440 TIP3     3047     SWM4     DOH2     DOH2     -1.71640      0.400000           0   0.00000       0.00000    
     41441 TIP3     3047     SWM4     OM       LPDW     -1.11466       0.00000          -1   0.00000       0.00000    
     41442 TIP3     3047     SWM4     H1       HDW      0.557330       1.00800           0   0.00000       0.00000    
     41443 TIP3     3047     SWM4     H2       HDW      0.557330       1.00800           0   0.00000       0.00000    
     41444 TIP3     3048     SWM4     OH2      ODW       1.71640       15.5994           0 -0.978253       1.30000    
     41445 TIP3     3048     SWM4     DOH2     DOH2     -1.71640      0.400000           0   0.00000       0.00000    
     41446 TIP3     3048     SWM4     OM       LPDW     -1.11466       0.00000          -1   0.00000       0.00000    
     41447 TIP3     3048     SWM4     H1       HDW      0.557330       1.00800           0   0.00000       0.00000    
     41448 TIP3     3048     SWM4     H2       HDW      0.557330       1.00800           0   0.00000       0.00000    
     41449 TIP3     3049     SWM4     OH2      ODW       1.71640       15.5994           0 -0.978253       1.30000    
     41450 TIP3     3049     SWM4     DOH2     DOH2     -1.71640      0.400000           0   0.00000       0.00000    
     41451 TIP3     3049     SWM4     OM       LPDW     -1.11466       0.00000          -1   0.00000       0.00000    
     41452 TIP3     3049     SWM4     H1       HDW      0.557330       1.00800           0   0.00000       0.00000    
     41453 TIP3     3049     SWM4     H2       HDW      0.557330       1.00800           0   0.00000       0.00000    
     41454 TIP3     3050     SWM4     OH2      ODW       1.71640       15.5994           0 -0.978253       1.30000    
     41455 TIP3     3050     SWM4     DOH2     DOH2     -1.71640      0.400000           0   0.00000       0.00000    
     41456 TIP3     3050     SWM4     OM       LPDW     -1.11466       0.00000          -1   0.00000       0.00000    
     41457 TIP3     3050     SWM4     H1       HDW      0.557330       1.00800           0   0.00000       0.00000    
     41458 TIP3     3050     SWM4     H2       HDW      0.557330       1.00800           0   0.00000       0.00000    
     41459 TIP3     3051     SWM4     OH2      ODW       1.71640       15.5994           0 -0.978253       1.30000    
     41460 TIP3     3051     SWM4     DOH2     DOH2     -1.71640      0.400000           0   0.00000       0.00000    
     41461 TIP3     3051     SWM4     OM       LPDW     -1.11466       0.00000          -1   0.00000       0.00000    
     41462 TIP3     3051     SWM4     H1       HDW      0.557330       1.00800           0   0.00000       0.00000    
     41463 TIP3     3051     SWM4     H2       HDW      0.557330       1.00800           0   0.00000       0.00000    
     41464 TIP3     3052     SWM4     OH2      ODW       1.71640       15.5994           0 -0.978253       1.30000    
     41465 TIP3     3052     SWM4     DOH2     DOH2     -1.71640      0.400000           0   0.00000       0.00000    
     41466 TIP3     3052     SWM4     OM       LPDW     -1.11466       0.00000          -1   0.00000       0.00000    
     41467 TIP3     3052     SWM4     H1       HDW      0.557330       1.00800           0   0.00000       0.00000    
     41468 TIP3     3052     SWM4     H2       HDW      0.557330       1.00800           0   0.00000       0.00000    
     41469 TIP3     3053     SWM4     OH2      ODW       1.71640       15.5994           0 -0.978253       1.30000    
     41470 TIP3     3053     SWM4     DOH2     DOH2     -1.71640      0.400000           0   0.00000       0.00000    
     41471 TIP3     3053     SWM4     OM       LPDW     -1.11466       0.00000          -1   0.00000       0.00000    
     41472 TIP3     3053     SWM4     H1       HDW      0.557330       1.00800           0   0.00000       0.00000    
     41473 TIP3     3053     SWM4     H2       HDW      0.557330       1.00800           0   0.00000       0.00000    
     41474 TIP3     3054     SWM4     OH2      ODW       1.71640       15.5994           0 -0.978253       1.30000    
     41475 TIP3     3054     SWM4     DOH2     DOH2     -1.71640      0.400000           0   0.00000       0.00000    
     41476 TIP3     3054     SWM4     OM       LPDW     -1.11466       0.00000          -1   0.00000       0.00000    
     41477 TIP3     3054     SWM4     H1       HDW      0.557330       1.00800           0   0.00000       0.00000    
     41478 TIP3     3054     SWM4     H2       HDW      0.557330       1.00800           0   0.00000       0.00000    
     41479 TIP3     3055     SWM4     OH2      ODW       1.71640       15.5994           0 -0.978253       1.30000    
     41480 TIP3     3055     SWM4     DOH2     DOH2     -1.71640      0.400000           0   0.00000       0.00000    
     41481 TIP3     3055     SWM4     OM       LPDW     -1.11466       0.00000          -1   0.00000       0.00000    
     41482 TIP3     3055     SWM4     H1       HDW      0.557330       1.00800           0   0.00000       0.00000    
     41483 TIP3     3055     SWM4     H2       HDW      0.557330       1.00800           0   0.00000       0.00000    
     41484 TIP3     3056     SWM4     OH2      ODW       1.71640       15.5994           0 -0.978253       1.30000    
     41485 TIP3     3056     SWM4     DOH2     DOH2     -1.71640      0.400000           0   0.00000       0.00000    
     41486 TIP3     3056     SWM4     OM       LPDW     -1.11466       0.00000          -1   0.00000       0.00000    
     41487 TIP3     3056     SWM4     H1       HDW      0.557330       1.00800           0   0.00000       0.00000    
     41488 TIP3     3056     SWM4     H2       HDW      0.557330       1.00800           0   0.00000       0.00000    
     41489 TIP3     3057     SWM4     OH2      ODW       1.71640       15.5994           0 -0.978253       1.30000    
     41490 TIP3     3057     SWM4     DOH2     DOH2     -1.71640      0.400000           0   0.00000       0.00000    
     41491 TIP3     3057     SWM4     OM       LPDW     -1.11466       0.00000          -1   0.00000       0.00000    
     41492 TIP3     3057     SWM4     H1       HDW      0.557330       1.00800           0   0.00000       0.00000    
     41493 TIP3     3057     SWM4     H2       HDW      0.557330       1.00800           0   0.00000       0.00000    
     41494 TIP3     3058     SWM4     OH2      ODW       1.71640       15.5994           0 -0.978253       1.30000    
     41495 TIP3     3058     SWM4     DOH2     DOH2     -1.71640      0.400000           0   0.00000       0.00000    
     41496 TIP3     3058     SWM4     OM       LPDW     -1.11466       0.00000          -1   0.00000       0.00000    
     41497 TIP3     3058     SWM4     H1       HDW      0.557330       1.00800           0   0.00000       0.00000    
     41498 TIP3     3058     SWM4     H2       HDW      0.557330       1.00800           0   0.00000       0.00000    
     41499 TIP3     3059     SWM4     OH2      ODW       1.71640       15.5994           0 -0.978253       1.30000    
     41500 TIP3     3059     SWM4     DOH2     DOH2     -1.71640      0.400000           0   0.00000       0.00000    
     41501 TIP3     3059     SWM4     OM       LPDW     -1.11466       0.00000          -1   0.00000       0.00000    
     41502 TIP3     3059     SWM4     H1       HDW      0.557330       1.00800           0   0.00000       0.00000    
     41503 TIP3     3059     SWM4     H2       HDW      0.557330       1.00800           0   0.00000       0.00000    
     41504 TIP3     3060     SWM4     OH2      ODW       1.71640       15.5994           0 -0.978253       1.30000    
     41505 TIP3     3060     SWM4     DOH2     DOH2     -1.71640      0.400000           0   0.00000       0.00000    
     41506 TIP3     3060     SWM4     OM       LPDW     -1.11466       0.00000          -1   0.00000       0.00000    
     41507 TIP3     3060     SWM4     H1       HDW      0.557330       1.00800           0   0.00000       0.00000    
     41508 TIP3     3060     SWM4     H2       HDW      0.557330       1.00800           0   0.00000       0.00000    
     41509 TIP3     3061     SWM4     OH2      ODW       1.71640       15.5994           0 -0.978253       1.30000    
     41510 TIP3     3061     SWM4     DOH2     DOH2     -1.71640      0.400000           0   0.00000       0.00000    
     41511 TIP3     3061     SWM4     OM       LPDW     -1.11466       0.00000          -1   0.00000       0.00000    
     41512 TIP3     3061     SWM4     H1       HDW      0.557330       1.00800           0   0.00000       0.00000    
     41513 TIP3     3061     SWM4     H2       HDW      0.557330       1.00800           0   0.00000       0.00000    
     41514 TIP3     3062     SWM4     OH2      ODW       1.71640       15.5994           0 -0.978253       1.30000    
     41515 TIP3     3062     SWM4     DOH2     DOH2     -1.71640      0.400000           0   0.00000       0.00000    
     41516 TIP3     3062     SWM4     OM       LPDW     -1.11466       0.00000          -1   0.00000       0.00000    
     41517 TIP3     3062     SWM4     H1       HDW      0.557330       1.00800           0   0.00000       0.00000    
     41518 TIP3     3062     SWM4     H2       HDW      0.557330       1.00800           0   0.00000       0.00000    
     41519 TIP3     3063     SWM4     OH2      ODW       1.71640       15.5994           0 -0.978253       1.30000    
     41520 TIP3     3063     SWM4     DOH2     DOH2     -1.71640      0.400000           0   0.00000       0.00000    
     41521 TIP3     3063     SWM4     OM       LPDW     -1.11466       0.00000          -1   0.00000       0.00000    
     41522 TIP3     3063     SWM4     H1       HDW      0.557330       1.00800           0   0.00000       0.00000    
     41523 TIP3     3063     SWM4     H2       HDW      0.557330       1.00800           0   0.00000       0.00000    
     41524 TIP3     3064     SWM4     OH2      ODW       1.71640       15.5994           0 -0.978253       1.30000    
     41525 TIP3     3064     SWM4     DOH2     DOH2     -1.71640      0.400000           0   0.00000       0.00000    
     41526 TIP3     3064     SWM4     OM       LPDW     -1.11466       0.00000          -1   0.00000       0.00000    
     41527 TIP3     3064     SWM4     H1       HDW      0.557330       1.00800           0   0.00000       0.00000    
     41528 TIP3     3064     SWM4     H2       HDW      0.557330       1.00800           0   0.00000       0.00000    
     41529 TIP3     3065     SWM4     OH2      ODW       1.71640       15.5994           0 -0.978253       1.30000    
     41530 TIP3     3065     SWM4     DOH2     DOH2     -1.71640      0.400000           0   0.00000       0.00000    
     41531 TIP3     3065     SWM4     OM       LPDW     -1.11466       0.00000          -1   0.00000       0.00000    
     41532 TIP3     3065     SWM4     H1       HDW      0.557330       1.00800           0   0.00000       0.00000    
     41533 TIP3     3065     SWM4     H2       HDW      0.557330       1.00800           0   0.00000       0.00000    
     41534 TIP3     3066     SWM4     OH2      ODW       1.71640       15.5994           0 -0.978253       1.30000    
     41535 TIP3     3066     SWM4     DOH2     DOH2     -1.71640      0.400000           0   0.00000       0.00000    
     41536 TIP3     3066     SWM4     OM       LPDW     -1.11466       0.00000          -1   0.00000       0.00000    
     41537 TIP3     3066     SWM4     H1       HDW      0.557330       1.00800           0   0.00000       0.00000    
     41538 TIP3     3066     SWM4     H2       HDW      0.557330       1.00800           0   0.00000       0.00000    
     41539 TIP3     3067     SWM4     OH2      ODW       1.71640       15.5994           0 -0.978253       1.30000    
     41540 TIP3     3067     SWM4     DOH2     DOH2     -1.71640      0.400000           0   0.00000       0.00000    
     41541 TIP3     3067     SWM4     OM       LPDW     -1.11466       0.00000          -1   0.00000       0.00000    
     41542 TIP3     3067     SWM4     H1       HDW      0.557330       1.00800           0   0.00000       0.00000    
     41543 TIP3     3067     SWM4     H2       HDW      0.557330       1.00800           0   0.00000       0.00000    
     41544 TIP3     3068     SWM4     OH2      ODW       1.71640       15.5994           0 -0.978253       1.30000    
     41545 TIP3     3068     SWM4     DOH2     DOH2     -1.71640      0.400000           0   0.00000       0.00000    
     41546 TIP3     3068     SWM4     OM       LPDW     -1.11466       0.00000          -1   0.00000       0.00000    
     41547 TIP3     3068     SWM4     H1       HDW      0.557330       1.00800           0   0.00000       0.00000    
     41548 TIP3     3068     SWM4     H2       HDW      0.557330       1.00800           0   0.00000       0.00000    
     41549 TIP3     3069     SWM4     OH2      ODW       1.71640       15.5994           0 -0.978253       1.30000    
     41550 TIP3     3069     SWM4     DOH2     DOH2     -1.71640      0.400000           0   0.00000       0.00000    
     41551 TIP3     3069     SWM4     OM       LPDW     -1.11466       0.00000          -1   0.00000       0.00000    
     41552 TIP3     3069     SWM4     H1       HDW      0.557330       1.00800           0   0.00000       0.00000    
     41553 TIP3     3069     SWM4     H2       HDW      0.557330       1.00800           0   0.00000       0.00000    
     41554 TIP3     3070     SWM4     OH2      ODW       1.71640       15.5994           0 -0.978253       1.30000    
     41555 TIP3     3070     SWM4     DOH2     DOH2     -1.71640      0.400000           0   0.00000       0.00000    
     41556 TIP3     3070     SWM4     OM       LPDW     -1.11466       0.00000          -1   0.00000       0.00000    
     41557 TIP3     3070     SWM4     H1       HDW      0.557330       1.00800           0   0.00000       0.00000    
     41558 TIP3     3070     SWM4     H2       HDW      0.557330       1.00800           0   0.00000       0.00000    
     41559 TIP3     3071     SWM4     OH2      ODW       1.71640       15.5994           0 -0.978253       1.30000    
     41560 TIP3     3071     SWM4     DOH2     DOH2     -1.71640      0.400000           0   0.00000       0.00000    
     41561 TIP3     3071     SWM4     OM       LPDW     -1.11466       0.00000          -1   0.00000       0.00000    
     41562 TIP3     3071     SWM4     H1       HDW      0.557330       1.00800           0   0.00000       0.00000    
     41563 TIP3     3071     SWM4     H2       HDW      0.557330       1.00800           0   0.00000       0.00000    
     41564 TIP3     3072     SWM4     OH2      ODW       1.71640       15.5994           0 -0.978253       1.30000    
     41565 TIP3     3072     SWM4     DOH2     DOH2     -1.71640      0.400000           0   0.00000       0.00000    
     41566 TIP3     3072     SWM4     OM       LPDW     -1.11466       0.00000          -1   0.00000       0.00000    
     41567 TIP3     3072     SWM4     H1       HDW      0.557330       1.00800           0   0.00000       0.00000    
     41568 TIP3     3072     SWM4     H2       HDW      0.557330       1.00800           0   0.00000       0.00000    
     41569 TIP3     3073     SWM4     OH2      ODW       1.71640       15.5994           0 -0.978253       1.30000    
     41570 TIP3     3073     SWM4     DOH2     DOH2     -1.71640      0.400000           0   0.00000       0.00000    
     41571 TIP3     3073     SWM4     OM       LPDW     -1.11466       0.00000          -1   0.00000       0.00000    
     41572 TIP3     3073     SWM4     H1       HDW      0.557330       1.00800           0   0.00000       0.00000    
     41573 TIP3     3073     SWM4     H2       HDW      0.557330       1.00800           0   0.00000       0.00000    
     41574 TIP3     3074     SWM4     OH2      ODW       1.71640       15.5994           0 -0.978253       1.30000    
     41575 TIP3     3074     SWM4     DOH2     DOH2     -1.71640      0.400000           0   0.00000       0.00000    
     41576 TIP3     3074     SWM4     OM       LPDW     -1.11466       0.00000          -1   0.00000       0.00000    
     41577 TIP3     3074     SWM4     H1       HDW      0.557330       1.00800           0   0.00000       0.00000    
     41578 TIP3     3074     SWM4     H2       HDW      0.557330       1.00800           0   0.00000       0.00000    
     41579 TIP3     3075     SWM4     OH2      ODW       1.71640       15.5994           0 -0.978253       1.30000    
     41580 TIP3     3075     SWM4     DOH2     DOH2     -1.71640      0.400000           0   0.00000       0.00000    
     41581 TIP3     3075     SWM4     OM       LPDW     -1.11466       0.00000          -1   0.00000       0.00000    
     41582 TIP3     3075     SWM4     H1       HDW      0.557330       1.00800           0   0.00000       0.00000    
     41583 TIP3     3075     SWM4     H2       HDW      0.557330       1.00800           0   0.00000       0.00000    
     41584 TIP3     3076     SWM4     OH2      ODW       1.71640       15.5994           0 -0.978253       1.30000    
     41585 TIP3     3076     SWM4     DOH2     DOH2     -1.71640      0.400000           0   0.00000       0.00000    
     41586 TIP3     3076     SWM4     OM       LPDW     -1.11466       0.00000          -1   0.00000       0.00000    
     41587 TIP3     3076     SWM4     H1       HDW      0.557330       1.00800           0   0.00000       0.00000    
     41588 TIP3     3076     SWM4     H2       HDW      0.557330       1.00800           0   0.00000       0.00000    
     41589 TIP3     3077     SWM4     OH2      ODW       1.71640       15.5994           0 -0.978253       1.30000    
     41590 TIP3     3077     SWM4     DOH2     DOH2     -1.71640      0.400000           0   0.00000       0.00000    
     41591 TIP3     3077     SWM4     OM       LPDW     -1.11466       0.00000          -1   0.00000       0.00000    
     41592 TIP3     3077     SWM4     H1       HDW      0.557330       1.00800           0   0.00000       0.00000    
     41593 TIP3     3077     SWM4     H2       HDW      0.557330       1.00800           0   0.00000       0.00000    
     41594 TIP3     3078     SWM4     OH2      ODW       1.71640       15.5994           0 -0.978253       1.30000    
     41595 TIP3     3078     SWM4     DOH2     DOH2     -1.71640      0.400000           0   0.00000       0.00000    
     41596 TIP3     3078     SWM4     OM       LPDW     -1.11466       0.00000          -1   0.00000       0.00000    
     41597 TIP3     3078     SWM4     H1       HDW      0.557330       1.00800           0   0.00000       0.00000    
     41598 TIP3     3078     SWM4     H2       HDW      0.557330       1.00800           0   0.00000       0.00000    
     41599 TIP3     3079     SWM4     OH2      ODW       1.71640       15.5994           0 -0.978253       1.30000    
     41600 TIP3     3079     SWM4     DOH2     DOH2     -1.71640      0.400000           0   0.00000       0.00000    
     41601 TIP3     3079     SWM4     OM       LPDW     -1.11466       0.00000          -1   0.00000       0.00000    
     41602 TIP3     3079     SWM4     H1       HDW      0.557330       1.00800           0   0.00000       0.00000    
     41603 TIP3     3079     SWM4     H2       HDW      0.557330       1.00800           0   0.00000       0.00000    
     41604 TIP3     3080     SWM4     OH2      ODW       1.71640       15.5994           0 -0.978253       1.30000    
     41605 TIP3     3080     SWM4     DOH2     DOH2     -1.71640      0.400000           0   0.00000       0.00000    
     41606 TIP3     3080     SWM4     OM       LPDW     -1.11466       0.00000          -1   0.00000       0.00000    
     41607 TIP3     3080     SWM4     H1       HDW      0.557330       1.00800           0   0.00000       0.00000    
     41608 TIP3     3080     SWM4     H2       HDW      0.557330       1.00800           0   0.00000       0.00000    
     41609 TIP3     3081     SWM4     OH2      ODW       1.71640       15.5994           0 -0.978253       1.30000    
     41610 TIP3     3081     SWM4     DOH2     DOH2     -1.71640      0.400000           0   0.00000       0.00000    
     41611 TIP3     3081     SWM4     OM       LPDW     -1.11466       0.00000          -1   0.00000       0.00000    
     41612 TIP3     3081     SWM4     H1       HDW      0.557330       1.00800           0   0.00000       0.00000    
     41613 TIP3     3081     SWM4     H2       HDW      0.557330       1.00800           0   0.00000       0.00000    
     41614 TIP3     3082     SWM4     OH2      ODW       1.71640       15.5994           0 -0.978253       1.30000    
     41615 TIP3     3082     SWM4     DOH2     DOH2     -1.71640      0.400000           0   0.00000       0.00000    
     41616 TIP3     3082     SWM4     OM       LPDW     -1.11466       0.00000          -1   0.00000       0.00000    
     41617 TIP3     3082     SWM4     H1       HDW      0.557330       1.00800           0   0.00000       0.00000    
     41618 TIP3     3082     SWM4     H2       HDW      0.557330       1.00800           0   0.00000       0.00000    
     41619 TIP3     3083     SWM4     OH2      ODW       1.71640       15.5994           0 -0.978253       1.30000    
     41620 TIP3     3083     SWM4     DOH2     DOH2     -1.71640      0.400000           0   0.00000       0.00000    
     41621 TIP3     3083     SWM4     OM       LPDW     -1.11466       0.00000          -1   0.00000       0.00000    
     41622 TIP3     3083     SWM4     H1       HDW      0.557330       1.00800           0   0.00000       0.00000    
     41623 TIP3     3083     SWM4     H2       HDW      0.557330       1.00800           0   0.00000       0.00000    
     41624 TIP3     3084     SWM4     OH2      ODW       1.71640       15.5994           0 -0.978253       1.30000    
     41625 TIP3     3084     SWM4     DOH2     DOH2     -1.71640      0.400000           0   0.00000       0.00000    
     41626 TIP3     3084     SWM4     OM       LPDW     -1.11466       0.00000          -1   0.00000       0.00000    
     41627 TIP3     3084     SWM4     H1       HDW      0.557330       1.00800           0   0.00000       0.00000    
     41628 TIP3     3084     SWM4     H2       HDW      0.557330       1.00800           0   0.00000       0.00000    
     41629 TIP3     3085     SWM4     OH2      ODW       1.71640       15.5994           0 -0.978253       1.30000    
     41630 TIP3     3085     SWM4     DOH2     DOH2     -1.71640      0.400000           0   0.00000       0.00000    
     41631 TIP3     3085     SWM4     OM       LPDW     -1.11466       0.00000          -1   0.00000       0.00000    
     41632 TIP3     3085     SWM4     H1       HDW      0.557330       1.00800           0   0.00000       0.00000    
     41633 TIP3     3085     SWM4     H2       HDW      0.557330       1.00800           0   0.00000       0.00000    
     41634 TIP3     3086     SWM4     OH2      ODW       1.71640       15.5994           0 -0.978253       1.30000    
     41635 TIP3     3086     SWM4     DOH2     DOH2     -1.71640      0.400000           0   0.00000       0.00000    
     41636 TIP3     3086     SWM4     OM       LPDW     -1.11466       0.00000          -1   0.00000       0.00000    
     41637 TIP3     3086     SWM4     H1       HDW      0.557330       1.00800           0   0.00000       0.00000    
     41638 TIP3     3086     SWM4     H2       HDW      0.557330       1.00800           0   0.00000       0.00000    
     41639 TIP3     3087     SWM4     OH2      ODW       1.71640       15.5994           0 -0.978253       1.30000    
     41640 TIP3     3087     SWM4     DOH2     DOH2     -1.71640      0.400000           0   0.00000       0.00000    
     41641 TIP3     3087     SWM4     OM       LPDW     -1.11466       0.00000          -1   0.00000       0.00000    
     41642 TIP3     3087     SWM4     H1       HDW      0.557330       1.00800           0   0.00000       0.00000    
     41643 TIP3     3087     SWM4     H2       HDW      0.557330       1.00800           0   0.00000       0.00000    
     41644 TIP3     3088     SWM4     OH2      ODW       1.71640       15.5994           0 -0.978253       1.30000    
     41645 TIP3     3088     SWM4     DOH2     DOH2     -1.71640      0.400000           0   0.00000       0.00000    
     41646 TIP3     3088     SWM4     OM       LPDW     -1.11466       0.00000          -1   0.00000       0.00000    
     41647 TIP3     3088     SWM4     H1       HDW      0.557330       1.00800           0   0.00000       0.00000    
     41648 TIP3     3088     SWM4     H2       HDW      0.557330       1.00800           0   0.00000       0.00000    
     41649 TIP3     3089     SWM4     OH2      ODW       1.71640       15.5994           0 -0.978253       1.30000    
     41650 TIP3     3089     SWM4     DOH2     DOH2     -1.71640      0.400000           0   0.00000       0.00000    
     41651 TIP3     3089     SWM4     OM       LPDW     -1.11466       0.00000          -1   0.00000       0.00000    
     41652 TIP3     3089     SWM4     H1       HDW      0.557330       1.00800           0   0.00000       0.00000    
     41653 TIP3     3089     SWM4     H2       HDW      0.557330       1.00800           0   0.00000       0.00000    
     41654 TIP3     3090     SWM4     OH2      ODW       1.71640       15.5994           0 -0.978253       1.30000    
     41655 TIP3     3090     SWM4     DOH2     DOH2     -1.71640      0.400000           0   0.00000       0.00000    
     41656 TIP3     3090     SWM4     OM       LPDW     -1.11466       0.00000          -1   0.00000       0.00000    
     41657 TIP3     3090     SWM4     H1       HDW      0.557330       1.00800           0   0.00000       0.00000    
     41658 TIP3     3090     SWM4     H2       HDW      0.557330       1.00800           0   0.00000       0.00000    
     41659 TIP3     3091     SWM4     OH2      ODW       1.71640       15.5994           0 -0.978253       1.30000    
     41660 TIP3     3091     SWM4     DOH2     DOH2     -1.71640      0.400000           0   0.00000       0.00000    
     41661 TIP3     3091     SWM4     OM       LPDW     -1.11466       0.00000          -1   0.00000       0.00000    
     41662 TIP3     3091     SWM4     H1       HDW      0.557330       1.00800           0   0.00000       0.00000    
     41663 TIP3     3091     SWM4     H2       HDW      0.557330       1.00800           0   0.00000       0.00000    
     41664 TIP3     3092     SWM4     OH2      ODW       1.71640       15.5994           0 -0.978253       1.30000    
     41665 TIP3     3092     SWM4     DOH2     DOH2     -1.71640      0.400000           0   0.00000       0.00000    
     41666 TIP3     3092     SWM4     OM       LPDW     -1.11466       0.00000          -1   0.00000       0.00000    
     41667 TIP3     3092     SWM4     H1       HDW      0.557330       1.00800           0   0.00000       0.00000    
     41668 TIP3     3092     SWM4     H2       HDW      0.557330       1.00800           0   0.00000       0.00000    
     41669 TIP3     3093     SWM4     OH2      ODW       1.71640       15.5994           0 -0.978253       1.30000    
     41670 TIP3     3093     SWM4     DOH2     DOH2     -1.71640      0.400000           0   0.00000       0.00000    
     41671 TIP3     3093     SWM4     OM       LPDW     -1.11466       0.00000          -1   0.00000       0.00000    
     41672 TIP3     3093     SWM4     H1       HDW      0.557330       1.00800           0   0.00000       0.00000    
     41673 TIP3     3093     SWM4     H2       HDW      0.557330       1.00800           0   0.00000       0.00000    
     41674 TIP3     3094     SWM4     OH2      ODW       1.71640       15.5994           0 -0.978253       1.30000    
     41675 TIP3     3094     SWM4     DOH2     DOH2     -1.71640      0.400000           0   0.00000       0.00000    
     41676 TIP3     3094     SWM4     OM       LPDW     -1.11466       0.00000          -1   0.00000       0.00000    
     41677 TIP3     3094     SWM4     H1       HDW      0.557330       1.00800           0   0.00000       0.00000    
     41678 TIP3     3094     SWM4     H2       HDW      0.557330       1.00800           0   0.00000       0.00000    
     41679 TIP3     3095     SWM4     OH2      ODW       1.71640       15.5994           0 -0.978253       1.30000    
     41680 TIP3     3095     SWM4     DOH2     DOH2     -1.71640      0.400000           0   0.00000       0.00000    
     41681 TIP3     3095     SWM4     OM       LPDW     -1.11466       0.00000          -1   0.00000       0.00000    
     41682 TIP3     3095     SWM4     H1       HDW      0.557330       1.00800           0   0.00000       0.00000    
     41683 TIP3     3095     SWM4     H2       HDW      0.557330       1.00800           0   0.00000       0.00000    
     41684 TIP3     3096     SWM4     OH2      ODW       1.71640       15.5994           0 -0.978253       1.30000    
     41685 TIP3     3096     SWM4     DOH2     DOH2     -1.71640      0.400000           0   0.00000       0.00000    
     41686 TIP3     3096     SWM4     OM       LPDW     -1.11466       0.00000          -1   0.00000       0.00000    
     41687 TIP3     3096     SWM4     H1       HDW      0.557330       1.00800           0   0.00000       0.00000    
     41688 TIP3     3096     SWM4     H2       HDW      0.557330       1.00800           0   0.00000       0.00000    
     41689 TIP3     3097     SWM4     OH2      ODW       1.71640       15.5994           0 -0.978253       1.30000    
     41690 TIP3     3097     SWM4     DOH2     DOH2     -1.71640      0.400000           0   0.00000       0.00000    
     41691 TIP3     3097     SWM4     OM       LPDW     -1.11466       0.00000          -1   0.00000       0.00000    
     41692 TIP3     3097     SWM4     H1       HDW      0.557330       1.00800           0   0.00000       0.00000    
     41693 TIP3     3097     SWM4     H2       HDW      0.557330       1.00800           0   0.00000       0.00000    
     41694 TIP3     3098     SWM4     OH2      ODW       1.71640       15.5994           0 -0.978253       1.30000    
     41695 TIP3     3098     SWM4     DOH2     DOH2     -1.71640      0.400000           0   0.00000       0.00000    
     41696 TIP3     3098     SWM4     OM       LPDW     -1.11466       0.00000          -1   0.00000       0.00000    
     41697 TIP3     3098     SWM4     H1       HDW      0.557330       1.00800           0   0.00000       0.00000    
     41698 TIP3     3098     SWM4     H2       HDW      0.557330       1.00800           0   0.00000       0.00000    
     41699 TIP3     3099     SWM4     OH2      ODW       1.71640       15.5994           0 -0.978253       1.30000    
     41700 TIP3     3099     SWM4     DOH2     DOH2     -1.71640      0.400000           0   0.00000       0.00000    
     41701 TIP3     3099     SWM4     OM       LPDW     -1.11466       0.00000          -1   0.00000       0.00000    
     41702 TIP3     3099     SWM4     H1       HDW      0.557330       1.00800           0   0.00000       0.00000    
     41703 TIP3     3099     SWM4     H2       HDW      0.557330       1.00800           0   0.00000       0.00000    
     41704 TIP3     3100     SWM4     OH2      ODW       1.71640       15.5994           0 -0.978253       1.30000    
     41705 TIP3     3100     SWM4     DOH2     DOH2     -1.71640      0.400000           0   0.00000       0.00000    
     41706 TIP3     3100     SWM4     OM       LPDW     -1.11466       0.00000          -1   0.00000       0.00000    
     41707 TIP3     3100     SWM4     H1       HDW      0.557330       1.00800           0   0.00000       0.00000    
     41708 TIP3     3100     SWM4     H2       HDW      0.557330       1.00800           0   0.00000       0.00000    
     41709 TIP3     3101     SWM4     OH2      ODW       1.71640       15.5994           0 -0.978253       1.30000    
     41710 TIP3     3101     SWM4     DOH2     DOH2     -1.71640      0.400000           0   0.00000       0.00000    
     41711 TIP3     3101     SWM4     OM       LPDW     -1.11466       0.00000          -1   0.00000       0.00000    
     41712 TIP3     3101     SWM4     H1       HDW      0.557330       1.00800           0   0.00000       0.00000    
     41713 TIP3     3101     SWM4     H2       HDW      0.557330       1.00800           0   0.00000       0.00000    
     41714 TIP3     3102     SWM4     OH2      ODW       1.71640       15.5994           0 -0.978253       1.30000    
     41715 TIP3     3102     SWM4     DOH2     DOH2     -1.71640      0.400000           0   0.00000       0.00000    
     41716 TIP3     3102     SWM4     OM       LPDW     -1.11466       0.00000          -1   0.00000       0.00000    
     41717 TIP3     3102     SWM4     H1       HDW      0.557330       1.00800           0   0.00000       0.00000    
     41718 TIP3     3102     SWM4     H2       HDW      0.557330       1.00800           0   0.00000       0.00000    
     41719 TIP3     3103     SWM4     OH2      ODW       1.71640       15.5994           0 -0.978253       1.30000    
     41720 TIP3     3103     SWM4     DOH2     DOH2     -1.71640      0.400000           0   0.00000       0.00000    
     41721 TIP3     3103     SWM4     OM       LPDW     -1.11466       0.00000          -1   0.00000       0.00000    
     41722 TIP3     3103     SWM4     H1       HDW      0.557330       1.00800           0   0.00000       0.00000    
     41723 TIP3     3103     SWM4     H2       HDW      0.557330       1.00800           0   0.00000       0.00000    
     41724 TIP3     3104     SWM4     OH2      ODW       1.71640       15.5994           0 -0.978253       1.30000    
     41725 TIP3     3104     SWM4     DOH2     DOH2     -1.71640      0.400000           0   0.00000       0.00000    
     41726 TIP3     3104     SWM4     OM       LPDW     -1.11466       0.00000          -1   0.00000       0.00000    
     41727 TIP3     3104     SWM4     H1       HDW      0.557330       1.00800           0   0.00000       0.00000    
     41728 TIP3     3104     SWM4     H2       HDW      0.557330       1.00800           0   0.00000       0.00000    
     41729 TIP3     3105     SWM4     OH2      ODW       1.71640       15.5994           0 -0.978253       1.30000    
     41730 TIP3     3105     SWM4     DOH2     DOH2     -1.71640      0.400000           0   0.00000       0.00000    
     41731 TIP3     3105     SWM4     OM       LPDW     -1.11466       0.00000          -1   0.00000       0.00000    
     41732 TIP3     3105     SWM4     H1       HDW      0.557330       1.00800           0   0.00000       0.00000    
     41733 TIP3     3105     SWM4     H2       HDW      0.557330       1.00800           0   0.00000       0.00000    
     41734 TIP3     3106     SWM4     OH2      ODW       1.71640       15.5994           0 -0.978253       1.30000    
     41735 TIP3     3106     SWM4     DOH2     DOH2     -1.71640      0.400000           0   0.00000       0.00000    
     41736 TIP3     3106     SWM4     OM       LPDW     -1.11466       0.00000          -1   0.00000       0.00000    
     41737 TIP3     3106     SWM4     H1       HDW      0.557330       1.00800           0   0.00000       0.00000    
     41738 TIP3     3106     SWM4     H2       HDW      0.557330       1.00800           0   0.00000       0.00000    
     41739 TIP3     3107     SWM4     OH2      ODW       1.71640       15.5994           0 -0.978253       1.30000    
     41740 TIP3     3107     SWM4     DOH2     DOH2     -1.71640      0.400000           0   0.00000       0.00000    
     41741 TIP3     3107     SWM4     OM       LPDW     -1.11466       0.00000          -1   0.00000       0.00000    
     41742 TIP3     3107     SWM4     H1       HDW      0.557330       1.00800           0   0.00000       0.00000    
     41743 TIP3     3107     SWM4     H2       HDW      0.557330       1.00800           0   0.00000       0.00000    
     41744 TIP3     3108     SWM4     OH2      ODW       1.71640       15.5994           0 -0.978253       1.30000    
     41745 TIP3     3108     SWM4     DOH2     DOH2     -1.71640      0.400000           0   0.00000       0.00000    
     41746 TIP3     3108     SWM4     OM       LPDW     -1.11466       0.00000          -1   0.00000       0.00000    
     41747 TIP3     3108     SWM4     H1       HDW      0.557330       1.00800           0   0.00000       0.00000    
     41748 TIP3     3108     SWM4     H2       HDW      0.557330       1.00800           0   0.00000       0.00000    
     41749 TIP3     3109     SWM4     OH2      ODW       1.71640       15.5994           0 -0.978253       1.30000    
     41750 TIP3     3109     SWM4     DOH2     DOH2     -1.71640      0.400000           0   0.00000       0.00000    
     41751 TIP3     3109     SWM4     OM       LPDW     -1.11466       0.00000          -1   0.00000       0.00000    
     41752 TIP3     3109     SWM4     H1       HDW      0.557330       1.00800           0   0.00000       0.00000    
     41753 TIP3     3109     SWM4     H2       HDW      0.557330       1.00800           0   0.00000       0.00000    
     41754 TIP3     3110     SWM4     OH2      ODW       1.71640       15.5994           0 -0.978253       1.30000    
     41755 TIP3     3110     SWM4     DOH2     DOH2     -1.71640      0.400000           0   0.00000       0.00000    
     41756 TIP3     3110     SWM4     OM       LPDW     -1.11466       0.00000          -1   0.00000       0.00000    
     41757 TIP3     3110     SWM4     H1       HDW      0.557330       1.00800           0   0.00000       0.00000    
     41758 TIP3     3110     SWM4     H2       HDW      0.557330       1.00800           0   0.00000       0.00000    
     41759 TIP3     3111     SWM4     OH2      ODW       1.71640       15.5994           0 -0.978253       1.30000    
     41760 TIP3     3111     SWM4     DOH2     DOH2     -1.71640      0.400000           0   0.00000       0.00000    
     41761 TIP3     3111     SWM4     OM       LPDW     -1.11466       0.00000          -1   0.00000       0.00000    
     41762 TIP3     3111     SWM4     H1       HDW      0.557330       1.00800           0   0.00000       0.00000    
     41763 TIP3     3111     SWM4     H2       HDW      0.557330       1.00800           0   0.00000       0.00000    
     41764 TIP3     3112     SWM4     OH2      ODW       1.71640       15.5994           0 -0.978253       1.30000    
     41765 TIP3     3112     SWM4     DOH2     DOH2     -1.71640      0.400000           0   0.00000       0.00000    
     41766 TIP3     3112     SWM4     OM       LPDW     -1.11466       0.00000          -1   0.00000       0.00000    
     41767 TIP3     3112     SWM4     H1       HDW      0.557330       1.00800           0   0.00000       0.00000    
     41768 TIP3     3112     SWM4     H2       HDW      0.557330       1.00800           0   0.00000       0.00000    
     41769 TIP3     3113     SWM4     OH2      ODW       1.71640       15.5994           0 -0.978253       1.30000    
     41770 TIP3     3113     SWM4     DOH2     DOH2     -1.71640      0.400000           0   0.00000       0.00000    
     41771 TIP3     3113     SWM4     OM       LPDW     -1.11466       0.00000          -1   0.00000       0.00000    
     41772 TIP3     3113     SWM4     H1       HDW      0.557330       1.00800           0   0.00000       0.00000    
     41773 TIP3     3113     SWM4     H2       HDW      0.557330       1.00800           0   0.00000       0.00000    
     41774 TIP3     3114     SWM4     OH2      ODW       1.71640       15.5994           0 -0.978253       1.30000    
     41775 TIP3     3114     SWM4     DOH2     DOH2     -1.71640      0.400000           0   0.00000       0.00000    
     41776 TIP3     3114     SWM4     OM       LPDW     -1.11466       0.00000          -1   0.00000       0.00000    
     41777 TIP3     3114     SWM4     H1       HDW      0.557330       1.00800           0   0.00000       0.00000    
     41778 TIP3     3114     SWM4     H2       HDW      0.557330       1.00800           0   0.00000       0.00000    
     41779 TIP3     3115     SWM4     OH2      ODW       1.71640       15.5994           0 -0.978253       1.30000    
     41780 TIP3     3115     SWM4     DOH2     DOH2     -1.71640      0.400000           0   0.00000       0.00000    
     41781 TIP3     3115     SWM4     OM       LPDW     -1.11466       0.00000          -1   0.00000       0.00000    
     41782 TIP3     3115     SWM4     H1       HDW      0.557330       1.00800           0   0.00000       0.00000    
     41783 TIP3     3115     SWM4     H2       HDW      0.557330       1.00800           0   0.00000       0.00000    
     41784 TIP3     3116     SWM4     OH2      ODW       1.71640       15.5994           0 -0.978253       1.30000    
     41785 TIP3     3116     SWM4     DOH2     DOH2     -1.71640      0.400000           0   0.00000       0.00000    
     41786 TIP3     3116     SWM4     OM       LPDW     -1.11466       0.00000          -1   0.00000       0.00000    
     41787 TIP3     3116     SWM4     H1       HDW      0.557330       1.00800           0   0.00000       0.00000    
     41788 TIP3     3116     SWM4     H2       HDW      0.557330       1.00800           0   0.00000       0.00000    
     41789 TIP3     3117     SWM4     OH2      ODW       1.71640       15.5994           0 -0.978253       1.30000    
     41790 TIP3     3117     SWM4     DOH2     DOH2     -1.71640      0.400000           0   0.00000       0.00000    
     41791 TIP3     3117     SWM4     OM       LPDW     -1.11466       0.00000          -1   0.00000       0.00000    
     41792 TIP3     3117     SWM4     H1       HDW      0.557330       1.00800           0   0.00000       0.00000    
     41793 TIP3     3117     SWM4     H2       HDW      0.557330       1.00800           0   0.00000       0.00000    
     41794 TIP3     3118     SWM4     OH2      ODW       1.71640       15.5994           0 -0.978253       1.30000    
     41795 TIP3     3118     SWM4     DOH2     DOH2     -1.71640      0.400000           0   0.00000       0.00000    
     41796 TIP3     3118     SWM4     OM       LPDW     -1.11466       0.00000          -1   0.00000       0.00000    
     41797 TIP3     3118     SWM4     H1       HDW      0.557330       1.00800           0   0.00000       0.00000    
     41798 TIP3     3118     SWM4     H2       HDW      0.557330       1.00800           0   0.00000       0.00000    
     41799 TIP3     3119     SWM4     OH2      ODW       1.71640       15.5994           0 -0.978253       1.30000    
     41800 TIP3     3119     SWM4     DOH2     DOH2     -1.71640      0.400000           0   0.00000       0.00000    
     41801 TIP3     3119     SWM4     OM       LPDW     -1.11466       0.00000          -1   0.00000       0.00000    
     41802 TIP3     3119     SWM4     H1       HDW      0.557330       1.00800           0   0.00000       0.00000    
     41803 TIP3     3119     SWM4     H2       HDW      0.557330       1.00800           0   0.00000       0.00000    
     41804 TIP3     3120     SWM4     OH2      ODW       1.71640       15.5994           0 -0.978253       1.30000    
     41805 TIP3     3120     SWM4     DOH2     DOH2     -1.71640      0.400000           0   0.00000       0.00000    
     41806 TIP3     3120     SWM4     OM       LPDW     -1.11466       0.00000          -1   0.00000       0.00000    
     41807 TIP3     3120     SWM4     H1       HDW      0.557330       1.00800           0   0.00000       0.00000    
     41808 TIP3     3120     SWM4     H2       HDW      0.557330       1.00800           0   0.00000       0.00000    
     41809 TIP3     3121     SWM4     OH2      ODW       1.71640       15.5994           0 -0.978253       1.30000    
     41810 TIP3     3121     SWM4     DOH2     DOH2     -1.71640      0.400000           0   0.00000       0.00000    
     41811 TIP3     3121     SWM4     OM       LPDW     -1.11466       0.00000          -1   0.00000       0.00000    
     41812 TIP3     3121     SWM4     H1       HDW      0.557330       1.00800           0   0.00000       0.00000    
     41813 TIP3     3121     SWM4     H2       HDW      0.557330       1.00800           0   0.00000       0.00000    
     41814 TIP3     3122     SWM4     OH2      ODW       1.71640       15.5994           0 -0.978253       1.30000    
     41815 TIP3     3122     SWM4     DOH2     DOH2     -1.71640      0.400000           0   0.00000       0.00000    
     41816 TIP3     3122     SWM4     OM       LPDW     -1.11466       0.00000          -1   0.00000       0.00000    
     41817 TIP3     3122     SWM4     H1       HDW      0.557330       1.00800           0   0.00000       0.00000    
     41818 TIP3     3122     SWM4     H2       HDW      0.557330       1.00800           0   0.00000       0.00000    
     41819 TIP3     3123     SWM4     OH2      ODW       1.71640       15.5994           0 -0.978253       1.30000    
     41820 TIP3     3123     SWM4     DOH2     DOH2     -1.71640      0.400000           0   0.00000       0.00000    
     41821 TIP3     3123     SWM4     OM       LPDW     -1.11466       0.00000          -1   0.00000       0.00000    
     41822 TIP3     3123     SWM4     H1       HDW      0.557330       1.00800           0   0.00000       0.00000    
     41823 TIP3     3123     SWM4     H2       HDW      0.557330       1.00800           0   0.00000       0.00000    
     41824 TIP3     3124     SWM4     OH2      ODW       1.71640       15.5994           0 -0.978253       1.30000    
     41825 TIP3     3124     SWM4     DOH2     DOH2     -1.71640      0.400000           0   0.00000       0.00000    
     41826 TIP3     3124     SWM4     OM       LPDW     -1.11466       0.00000          -1   0.00000       0.00000    
     41827 TIP3     3124     SWM4     H1       HDW      0.557330       1.00800           0   0.00000       0.00000    
     41828 TIP3     3124     SWM4     H2       HDW      0.557330       1.00800           0   0.00000       0.00000    
     41829 TIP3     3125     SWM4     OH2      ODW       1.71640       15.5994           0 -0.978253       1.30000    
     41830 TIP3     3125     SWM4     DOH2     DOH2     -1.71640      0.400000           0   0.00000       0.00000    
     41831 TIP3     3125     SWM4     OM       LPDW     -1.11466       0.00000          -1   0.00000       0.00000    
     41832 TIP3     3125     SWM4     H1       HDW      0.557330       1.00800           0   0.00000       0.00000    
     41833 TIP3     3125     SWM4     H2       HDW      0.557330       1.00800           0   0.00000       0.00000    
     41834 TIP3     3126     SWM4     OH2      ODW       1.71640       15.5994           0 -0.978253       1.30000    
     41835 TIP3     3126     SWM4     DOH2     DOH2     -1.71640      0.400000           0   0.00000       0.00000    
     41836 TIP3     3126     SWM4     OM       LPDW     -1.11466       0.00000          -1   0.00000       0.00000    
     41837 TIP3     3126     SWM4     H1       HDW      0.557330       1.00800           0   0.00000       0.00000    
     41838 TIP3     3126     SWM4     H2       HDW      0.557330       1.00800           0   0.00000       0.00000    
     41839 TIP3     3127     SWM4     OH2      ODW       1.71640       15.5994           0 -0.978253       1.30000    
     41840 TIP3     3127     SWM4     DOH2     DOH2     -1.71640      0.400000           0   0.00000       0.00000    
     41841 TIP3     3127     SWM4     OM       LPDW     -1.11466       0.00000          -1   0.00000       0.00000    
     41842 TIP3     3127     SWM4     H1       HDW      0.557330       1.00800           0   0.00000       0.00000    
     41843 TIP3     3127     SWM4     H2       HDW      0.557330       1.00800           0   0.00000       0.00000    
     41844 TIP3     3128     SWM4     OH2      ODW       1.71640       15.5994           0 -0.978253       1.30000    
     41845 TIP3     3128     SWM4     DOH2     DOH2     -1.71640      0.400000           0   0.00000       0.00000    
     41846 TIP3     3128     SWM4     OM       LPDW     -1.11466       0.00000          -1   0.00000       0.00000    
     41847 TIP3     3128     SWM4     H1       HDW      0.557330       1.00800           0   0.00000       0.00000    
     41848 TIP3     3128     SWM4     H2       HDW      0.557330       1.00800           0   0.00000       0.00000    
     41849 TIP3     3129     SWM4     OH2      ODW       1.71640       15.5994           0 -0.978253       1.30000    
     41850 TIP3     3129     SWM4     DOH2     DOH2     -1.71640      0.400000           0   0.00000       0.00000    
     41851 TIP3     3129     SWM4     OM       LPDW     -1.11466       0.00000          -1   0.00000       0.00000    
     41852 TIP3     3129     SWM4     H1       HDW      0.557330       1.00800           0   0.00000       0.00000    
     41853 TIP3     3129     SWM4     H2       HDW      0.557330       1.00800           0   0.00000       0.00000    
     41854 TIP3     3130     SWM4     OH2      ODW       1.71640       15.5994           0 -0.978253       1.30000    
     41855 TIP3     3130     SWM4     DOH2     DOH2     -1.71640      0.400000           0   0.00000       0.00000    
     41856 TIP3     3130     SWM4     OM       LPDW     -1.11466       0.00000          -1   0.00000       0.00000    
     41857 TIP3     3130     SWM4     H1       HDW      0.557330       1.00800           0   0.00000       0.00000    
     41858 TIP3     3130     SWM4     H2       HDW      0.557330       1.00800           0   0.00000       0.00000    
     41859 TIP3     3131     SWM4     OH2      ODW       1.71640       15.5994           0 -0.978253       1.30000    
     41860 TIP3     3131     SWM4     DOH2     DOH2     -1.71640      0.400000           0   0.00000       0.00000    
     41861 TIP3     3131     SWM4     OM       LPDW     -1.11466       0.00000          -1   0.00000       0.00000    
     41862 TIP3     3131     SWM4     H1       HDW      0.557330       1.00800           0   0.00000       0.00000    
     41863 TIP3     3131     SWM4     H2       HDW      0.557330       1.00800           0   0.00000       0.00000    
     41864 TIP3     3132     SWM4     OH2      ODW       1.71640       15.5994           0 -0.978253       1.30000    
     41865 TIP3     3132     SWM4     DOH2     DOH2     -1.71640      0.400000           0   0.00000       0.00000    
     41866 TIP3     3132     SWM4     OM       LPDW     -1.11466       0.00000          -1   0.00000       0.00000    
     41867 TIP3     3132     SWM4     H1       HDW      0.557330       1.00800           0   0.00000       0.00000    
     41868 TIP3     3132     SWM4     H2       HDW      0.557330       1.00800           0   0.00000       0.00000    
     41869 TIP3     3133     SWM4     OH2      ODW       1.71640       15.5994           0 -0.978253       1.30000    
     41870 TIP3     3133     SWM4     DOH2     DOH2     -1.71640      0.400000           0   0.00000       0.00000    
     41871 TIP3     3133     SWM4     OM       LPDW     -1.11466       0.00000          -1   0.00000       0.00000    
     41872 TIP3     3133     SWM4     H1       HDW      0.557330       1.00800           0   0.00000       0.00000    
     41873 TIP3     3133     SWM4     H2       HDW      0.557330       1.00800           0   0.00000       0.00000    
     41874 TIP3     3134     SWM4     OH2      ODW       1.71640       15.5994           0 -0.978253       1.30000    
     41875 TIP3     3134     SWM4     DOH2     DOH2     -1.71640      0.400000           0   0.00000       0.00000    
     41876 TIP3     3134     SWM4     OM       LPDW     -1.11466       0.00000          -1   0.00000       0.00000    
     41877 TIP3     3134     SWM4     H1       HDW      0.557330       1.00800           0   0.00000       0.00000    
     41878 TIP3     3134     SWM4     H2       HDW      0.557330       1.00800           0   0.00000       0.00000    
     41879 TIP3     3135     SWM4     OH2      ODW       1.71640       15.5994           0 -0.978253       1.30000    
     41880 TIP3     3135     SWM4     DOH2     DOH2     -1.71640      0.400000           0   0.00000       0.00000    
     41881 TIP3     3135     SWM4     OM       LPDW     -1.11466       0.00000          -1   0.00000       0.00000    
     41882 TIP3     3135     SWM4     H1       HDW      0.557330       1.00800           0   0.00000       0.00000    
     41883 TIP3     3135     SWM4     H2       HDW      0.557330       1.00800           0   0.00000       0.00000    
     41884 TIP3     3136     SWM4     OH2      ODW       1.71640       15.5994           0 -0.978253       1.30000    
     41885 TIP3     3136     SWM4     DOH2     DOH2     -1.71640      0.400000           0   0.00000       0.00000    
     41886 TIP3     3136     SWM4     OM       LPDW     -1.11466       0.00000          -1   0.00000       0.00000    
     41887 TIP3     3136     SWM4     H1       HDW      0.557330       1.00800           0   0.00000       0.00000    
     41888 TIP3     3136     SWM4     H2       HDW      0.557330       1.00800           0   0.00000       0.00000    
     41889 TIP3     3137     SWM4     OH2      ODW       1.71640       15.5994           0 -0.978253       1.30000    
     41890 TIP3     3137     SWM4     DOH2     DOH2     -1.71640      0.400000           0   0.00000       0.00000    
     41891 TIP3     3137     SWM4     OM       LPDW     -1.11466       0.00000          -1   0.00000       0.00000    
     41892 TIP3     3137     SWM4     H1       HDW      0.557330       1.00800           0   0.00000       0.00000    
     41893 TIP3     3137     SWM4     H2       HDW      0.557330       1.00800           0   0.00000       0.00000    
     41894 TIP3     3138     SWM4     OH2      ODW       1.71640       15.5994           0 -0.978253       1.30000    
     41895 TIP3     3138     SWM4     DOH2     DOH2     -1.71640      0.400000           0   0.00000       0.00000    
     41896 TIP3     3138     SWM4     OM       LPDW     -1.11466       0.00000          -1   0.00000       0.00000    
     41897 TIP3     3138     SWM4     H1       HDW      0.557330       1.00800           0   0.00000       0.00000    
     41898 TIP3     3138     SWM4     H2       HDW      0.557330       1.00800           0   0.00000       0.00000    
     41899 TIP3     3139     SWM4     OH2      ODW       1.71640       15.5994           0 -0.978253       1.30000    
     41900 TIP3     3139     SWM4     DOH2     DOH2     -1.71640      0.400000           0   0.00000       0.00000    
     41901 TIP3     3139     SWM4     OM       LPDW     -1.11466       0.00000          -1   0.00000       0.00000    
     41902 TIP3     3139     SWM4     H1       HDW      0.557330       1.00800           0   0.00000       0.00000    
     41903 TIP3     3139     SWM4     H2       HDW      0.557330       1.00800           0   0.00000       0.00000    
     41904 TIP3     3140     SWM4     OH2      ODW       1.71640       15.5994           0 -0.978253       1.30000    
     41905 TIP3     3140     SWM4     DOH2     DOH2     -1.71640      0.400000           0   0.00000       0.00000    
     41906 TIP3     3140     SWM4     OM       LPDW     -1.11466       0.00000          -1   0.00000       0.00000    
     41907 TIP3     3140     SWM4     H1       HDW      0.557330       1.00800           0   0.00000       0.00000    
     41908 TIP3     3140     SWM4     H2       HDW      0.557330       1.00800           0   0.00000       0.00000    
     41909 TIP3     3141     SWM4     OH2      ODW       1.71640       15.5994           0 -0.978253       1.30000    
     41910 TIP3     3141     SWM4     DOH2     DOH2     -1.71640      0.400000           0   0.00000       0.00000    
     41911 TIP3     3141     SWM4     OM       LPDW     -1.11466       0.00000          -1   0.00000       0.00000    
     41912 TIP3     3141     SWM4     H1       HDW      0.557330       1.00800           0   0.00000       0.00000    
     41913 TIP3     3141     SWM4     H2       HDW      0.557330       1.00800           0   0.00000       0.00000    
     41914 TIP3     3142     SWM4     OH2      ODW       1.71640       15.5994           0 -0.978253       1.30000    
     41915 TIP3     3142     SWM4     DOH2     DOH2     -1.71640      0.400000           0   0.00000       0.00000    
     41916 TIP3     3142     SWM4     OM       LPDW     -1.11466       0.00000          -1   0.00000       0.00000    
     41917 TIP3     3142     SWM4     H1       HDW      0.557330       1.00800           0   0.00000       0.00000    
     41918 TIP3     3142     SWM4     H2       HDW      0.557330       1.00800           0   0.00000       0.00000    
     41919 TIP3     3143     SWM4     OH2      ODW       1.71640       15.5994           0 -0.978253       1.30000    
     41920 TIP3     3143     SWM4     DOH2     DOH2     -1.71640      0.400000           0   0.00000       0.00000    
     41921 TIP3     3143     SWM4     OM       LPDW     -1.11466       0.00000          -1   0.00000       0.00000    
     41922 TIP3     3143     SWM4     H1       HDW      0.557330       1.00800           0   0.00000       0.00000    
     41923 TIP3     3143     SWM4     H2       HDW      0.557330       1.00800           0   0.00000       0.00000    
     41924 TIP3     3144     SWM4     OH2      ODW       1.71640       15.5994           0 -0.978253       1.30000    
     41925 TIP3     3144     SWM4     DOH2     DOH2     -1.71640      0.400000           0   0.00000       0.00000    
     41926 TIP3     3144     SWM4     OM       LPDW     -1.11466       0.00000          -1   0.00000       0.00000    
     41927 TIP3     3144     SWM4     H1       HDW      0.557330       1.00800           0   0.00000       0.00000    
     41928 TIP3     3144     SWM4     H2       HDW      0.557330       1.00800           0   0.00000       0.00000    
     41929 TIP3     3145     SWM4     OH2      ODW       1.71640       15.5994           0 -0.978253       1.30000    
     41930 TIP3     3145     SWM4     DOH2     DOH2     -1.71640      0.400000           0   0.00000       0.00000    
     41931 TIP3     3145     SWM4     OM       LPDW     -1.11466       0.00000          -1   0.00000       0.00000    
     41932 TIP3     3145     SWM4     H1       HDW      0.557330       1.00800           0   0.00000       0.00000    
     41933 TIP3     3145     SWM4     H2       HDW      0.557330       1.00800           0   0.00000       0.00000    
     41934 TIP3     3146     SWM4     OH2      ODW       1.71640       15.5994           0 -0.978253       1.30000    
     41935 TIP3     3146     SWM4     DOH2     DOH2     -1.71640      0.400000           0   0.00000       0.00000    
     41936 TIP3     3146     SWM4     OM       LPDW     -1.11466       0.00000          -1   0.00000       0.00000    
     41937 TIP3     3146     SWM4     H1       HDW      0.557330       1.00800           0   0.00000       0.00000    
     41938 TIP3     3146     SWM4     H2       HDW      0.557330       1.00800           0   0.00000       0.00000    
     41939 TIP3     3147     SWM4     OH2      ODW       1.71640       15.5994           0 -0.978253       1.30000    
     41940 TIP3     3147     SWM4     DOH2     DOH2     -1.71640      0.400000           0   0.00000       0.00000    
     41941 TIP3     3147     SWM4     OM       LPDW     -1.11466       0.00000          -1   0.00000       0.00000    
     41942 TIP3     3147     SWM4     H1       HDW      0.557330       1.00800           0   0.00000       0.00000    
     41943 TIP3     3147     SWM4     H2       HDW      0.557330       1.00800           0   0.00000       0.00000    
     41944 TIP3     3148     SWM4     OH2      ODW       1.71640       15.5994           0 -0.978253       1.30000    
     41945 TIP3     3148     SWM4     DOH2     DOH2     -1.71640      0.400000           0   0.00000       0.00000    
     41946 TIP3     3148     SWM4     OM       LPDW     -1.11466       0.00000          -1   0.00000       0.00000    
     41947 TIP3     3148     SWM4     H1       HDW      0.557330       1.00800           0   0.00000       0.00000    
     41948 TIP3     3148     SWM4     H2       HDW      0.557330       1.00800           0   0.00000       0.00000    
     41949 TIP3     3149     SWM4     OH2      ODW       1.71640       15.5994           0 -0.978253       1.30000    
     41950 TIP3     3149     SWM4     DOH2     DOH2     -1.71640      0.400000           0   0.00000       0.00000    
     41951 TIP3     3149     SWM4     OM       LPDW     -1.11466       0.00000          -1   0.00000       0.00000    
     41952 TIP3     3149     SWM4     H1       HDW      0.557330       1.00800           0   0.00000       0.00000    
     41953 TIP3     3149     SWM4     H2       HDW      0.557330       1.00800           0   0.00000       0.00000    
     41954 TIP3     3150     SWM4     OH2      ODW       1.71640       15.5994           0 -0.978253       1.30000    
     41955 TIP3     3150     SWM4     DOH2     DOH2     -1.71640      0.400000           0   0.00000       0.00000    
     41956 TIP3     3150     SWM4     OM       LPDW     -1.11466       0.00000          -1   0.00000       0.00000    
     41957 TIP3     3150     SWM4     H1       HDW      0.557330       1.00800           0   0.00000       0.00000    
     41958 TIP3     3150     SWM4     H2       HDW      0.557330       1.00800           0   0.00000       0.00000    
     41959 TIP3     3151     SWM4     OH2      ODW       1.71640       15.5994           0 -0.978253       1.30000    
     41960 TIP3     3151     SWM4     DOH2     DOH2     -1.71640      0.400000           0   0.00000       0.00000    
     41961 TIP3     3151     SWM4     OM       LPDW     -1.11466       0.00000          -1   0.00000       0.00000    
     41962 TIP3     3151     SWM4     H1       HDW      0.557330       1.00800           0   0.00000       0.00000    
     41963 TIP3     3151     SWM4     H2       HDW      0.557330       1.00800           0   0.00000       0.00000    
     41964 TIP3     3152     SWM4     OH2      ODW       1.71640       15.5994           0 -0.978253       1.30000    
     41965 TIP3     3152     SWM4     DOH2     DOH2     -1.71640      0.400000           0   0.00000       0.00000    
     41966 TIP3     3152     SWM4     OM       LPDW     -1.11466       0.00000          -1   0.00000       0.00000    
     41967 TIP3     3152     SWM4     H1       HDW      0.557330       1.00800           0   0.00000       0.00000    
     41968 TIP3     3152     SWM4     H2       HDW      0.557330       1.00800           0   0.00000       0.00000    
     41969 TIP3     3153     SWM4     OH2      ODW       1.71640       15.5994           0 -0.978253       1.30000    
     41970 TIP3     3153     SWM4     DOH2     DOH2     -1.71640      0.400000           0   0.00000       0.00000    
     41971 TIP3     3153     SWM4     OM       LPDW     -1.11466       0.00000          -1   0.00000       0.00000    
     41972 TIP3     3153     SWM4     H1       HDW      0.557330       1.00800           0   0.00000       0.00000    
     41973 TIP3     3153     SWM4     H2       HDW      0.557330       1.00800           0   0.00000       0.00000    
     41974 TIP3     3154     SWM4     OH2      ODW       1.71640       15.5994           0 -0.978253       1.30000    
     41975 TIP3     3154     SWM4     DOH2     DOH2     -1.71640      0.400000           0   0.00000       0.00000    
     41976 TIP3     3154     SWM4     OM       LPDW     -1.11466       0.00000          -1   0.00000       0.00000    
     41977 TIP3     3154     SWM4     H1       HDW      0.557330       1.00800           0   0.00000       0.00000    
     41978 TIP3     3154     SWM4     H2       HDW      0.557330       1.00800           0   0.00000       0.00000    
     41979 TIP3     3155     SWM4     OH2      ODW       1.71640       15.5994           0 -0.978253       1.30000    
     41980 TIP3     3155     SWM4     DOH2     DOH2     -1.71640      0.400000           0   0.00000       0.00000    
     41981 TIP3     3155     SWM4     OM       LPDW     -1.11466       0.00000          -1   0.00000       0.00000    
     41982 TIP3     3155     SWM4     H1       HDW      0.557330       1.00800           0   0.00000       0.00000    
     41983 TIP3     3155     SWM4     H2       HDW      0.557330       1.00800           0   0.00000       0.00000    
     41984 TIP3     3156     SWM4     OH2      ODW       1.71640       15.5994           0 -0.978253       1.30000    
     41985 TIP3     3156     SWM4     DOH2     DOH2     -1.71640      0.400000           0   0.00000       0.00000    
     41986 TIP3     3156     SWM4     OM       LPDW     -1.11466       0.00000          -1   0.00000       0.00000    
     41987 TIP3     3156     SWM4     H1       HDW      0.557330       1.00800           0   0.00000       0.00000    
     41988 TIP3     3156     SWM4     H2       HDW      0.557330       1.00800           0   0.00000       0.00000    
     41989 TIP3     3157     SWM4     OH2      ODW       1.71640       15.5994           0 -0.978253       1.30000    
     41990 TIP3     3157     SWM4     DOH2     DOH2     -1.71640      0.400000           0   0.00000       0.00000    
     41991 TIP3     3157     SWM4     OM       LPDW     -1.11466       0.00000          -1   0.00000       0.00000    
     41992 TIP3     3157     SWM4     H1       HDW      0.557330       1.00800           0   0.00000       0.00000    
     41993 TIP3     3157     SWM4     H2       HDW      0.557330       1.00800           0   0.00000       0.00000    
     41994 TIP3     3158     SWM4     OH2      ODW       1.71640       15.5994           0 -0.978253       1.30000    
     41995 TIP3     3158     SWM4     DOH2     DOH2     -1.71640      0.400000           0   0.00000       0.00000    
     41996 TIP3     3158     SWM4     OM       LPDW     -1.11466       0.00000          -1   0.00000       0.00000    
     41997 TIP3     3158     SWM4     H1       HDW      0.557330       1.00800           0   0.00000       0.00000    
     41998 TIP3     3158     SWM4     H2       HDW      0.557330       1.00800           0   0.00000       0.00000    
     41999 TIP3     3159     SWM4     OH2      ODW       1.71640       15.5994           0 -0.978253       1.30000    
     42000 TIP3     3159     SWM4     DOH2     DOH2     -1.71640      0.400000           0   0.00000       0.00000    
     42001 TIP3     3159     SWM4     OM       LPDW     -1.11466       0.00000          -1   0.00000       0.00000    
     42002 TIP3     3159     SWM4     H1       HDW      0.557330       1.00800           0   0.00000       0.00000    
     42003 TIP3     3159     SWM4     H2       HDW      0.557330       1.00800           0   0.00000       0.00000    
     42004 TIP3     3160     SWM4     OH2      ODW       1.71640       15.5994           0 -0.978253       1.30000    
     42005 TIP3     3160     SWM4     DOH2     DOH2     -1.71640      0.400000           0   0.00000       0.00000    
     42006 TIP3     3160     SWM4     OM       LPDW     -1.11466       0.00000          -1   0.00000       0.00000    
     42007 TIP3     3160     SWM4     H1       HDW      0.557330       1.00800           0   0.00000       0.00000    
     42008 TIP3     3160     SWM4     H2       HDW      0.557330       1.00800           0   0.00000       0.00000    
     42009 TIP3     3161     SWM4     OH2      ODW       1.71640       15.5994           0 -0.978253       1.30000    
     42010 TIP3     3161     SWM4     DOH2     DOH2     -1.71640      0.400000           0   0.00000       0.00000    
     42011 TIP3     3161     SWM4     OM       LPDW     -1.11466       0.00000          -1   0.00000       0.00000    
     42012 TIP3     3161     SWM4     H1       HDW      0.557330       1.00800           0   0.00000       0.00000    
     42013 TIP3     3161     SWM4     H2       HDW      0.557330       1.00800           0   0.00000       0.00000    
     42014 TIP3     3162     SWM4     OH2      ODW       1.71640       15.5994           0 -0.978253       1.30000    
     42015 TIP3     3162     SWM4     DOH2     DOH2     -1.71640      0.400000           0   0.00000       0.00000    
     42016 TIP3     3162     SWM4     OM       LPDW     -1.11466       0.00000          -1   0.00000       0.00000    
     42017 TIP3     3162     SWM4     H1       HDW      0.557330       1.00800           0   0.00000       0.00000    
     42018 TIP3     3162     SWM4     H2       HDW      0.557330       1.00800           0   0.00000       0.00000    
     42019 TIP3     3163     SWM4     OH2      ODW       1.71640       15.5994           0 -0.978253       1.30000    
     42020 TIP3     3163     SWM4     DOH2     DOH2     -1.71640      0.400000           0   0.00000       0.00000    
     42021 TIP3     3163     SWM4     OM       LPDW     -1.11466       0.00000          -1   0.00000       0.00000    
     42022 TIP3     3163     SWM4     H1       HDW      0.557330       1.00800           0   0.00000       0.00000    
     42023 TIP3     3163     SWM4     H2       HDW      0.557330       1.00800           0   0.00000       0.00000    
     42024 TIP3     3164     SWM4     OH2      ODW       1.71640       15.5994           0 -0.978253       1.30000    
     42025 TIP3     3164     SWM4     DOH2     DOH2     -1.71640      0.400000           0   0.00000       0.00000    
     42026 TIP3     3164     SWM4     OM       LPDW     -1.11466       0.00000          -1   0.00000       0.00000    
     42027 TIP3     3164     SWM4     H1       HDW      0.557330       1.00800           0   0.00000       0.00000    
     42028 TIP3     3164     SWM4     H2       HDW      0.557330       1.00800           0   0.00000       0.00000    
     42029 TIP3     3165     SWM4     OH2      ODW       1.71640       15.5994           0 -0.978253       1.30000    
     42030 TIP3     3165     SWM4     DOH2     DOH2     -1.71640      0.400000           0   0.00000       0.00000    
     42031 TIP3     3165     SWM4     OM       LPDW     -1.11466       0.00000          -1   0.00000       0.00000    
     42032 TIP3     3165     SWM4     H1       HDW      0.557330       1.00800           0   0.00000       0.00000    
     42033 TIP3     3165     SWM4     H2       HDW      0.557330       1.00800           0   0.00000       0.00000    
     42034 TIP3     3166     SWM4     OH2      ODW       1.71640       15.5994           0 -0.978253       1.30000    
     42035 TIP3     3166     SWM4     DOH2     DOH2     -1.71640      0.400000           0   0.00000       0.00000    
     42036 TIP3     3166     SWM4     OM       LPDW     -1.11466       0.00000          -1   0.00000       0.00000    
     42037 TIP3     3166     SWM4     H1       HDW      0.557330       1.00800           0   0.00000       0.00000    
     42038 TIP3     3166     SWM4     H2       HDW      0.557330       1.00800           0   0.00000       0.00000    
     42039 TIP3     3167     SWM4     OH2      ODW       1.71640       15.5994           0 -0.978253       1.30000    
     42040 TIP3     3167     SWM4     DOH2     DOH2     -1.71640      0.400000           0   0.00000       0.00000    
     42041 TIP3     3167     SWM4     OM       LPDW     -1.11466       0.00000          -1   0.00000       0.00000    
     42042 TIP3     3167     SWM4     H1       HDW      0.557330       1.00800           0   0.00000       0.00000    
     42043 TIP3     3167     SWM4     H2       HDW      0.557330       1.00800           0   0.00000       0.00000    
     42044 TIP3     3168     SWM4     OH2      ODW       1.71640       15.5994           0 -0.978253       1.30000    
     42045 TIP3     3168     SWM4     DOH2     DOH2     -1.71640      0.400000           0   0.00000       0.00000    
     42046 TIP3     3168     SWM4     OM       LPDW     -1.11466       0.00000          -1   0.00000       0.00000    
     42047 TIP3     3168     SWM4     H1       HDW      0.557330       1.00800           0   0.00000       0.00000    
     42048 TIP3     3168     SWM4     H2       HDW      0.557330       1.00800           0   0.00000       0.00000    
     42049 TIP3     3169     SWM4     OH2      ODW       1.71640       15.5994           0 -0.978253       1.30000    
     42050 TIP3     3169     SWM4     DOH2     DOH2     -1.71640      0.400000           0   0.00000       0.00000    
     42051 TIP3     3169     SWM4     OM       LPDW     -1.11466       0.00000          -1   0.00000       0.00000    
     42052 TIP3     3169     SWM4     H1       HDW      0.557330       1.00800           0   0.00000       0.00000    
     42053 TIP3     3169     SWM4     H2       HDW      0.557330       1.00800           0   0.00000       0.00000    
     42054 TIP3     3170     SWM4     OH2      ODW       1.71640       15.5994           0 -0.978253       1.30000    
     42055 TIP3     3170     SWM4     DOH2     DOH2     -1.71640      0.400000           0   0.00000       0.00000    
     42056 TIP3     3170     SWM4     OM       LPDW     -1.11466       0.00000          -1   0.00000       0.00000    
     42057 TIP3     3170     SWM4     H1       HDW      0.557330       1.00800           0   0.00000       0.00000    
     42058 TIP3     3170     SWM4     H2       HDW      0.557330       1.00800           0   0.00000       0.00000    
     42059 TIP3     3171     SWM4     OH2      ODW       1.71640       15.5994           0 -0.978253       1.30000    
     42060 TIP3     3171     SWM4     DOH2     DOH2     -1.71640      0.400000           0   0.00000       0.00000    
     42061 TIP3     3171     SWM4     OM       LPDW     -1.11466       0.00000          -1   0.00000       0.00000    
     42062 TIP3     3171     SWM4     H1       HDW      0.557330       1.00800           0   0.00000       0.00000    
     42063 TIP3     3171     SWM4     H2       HDW      0.557330       1.00800           0   0.00000       0.00000    
     42064 TIP3     3172     SWM4     OH2      ODW       1.71640       15.5994           0 -0.978253       1.30000    
     42065 TIP3     3172     SWM4     DOH2     DOH2     -1.71640      0.400000           0   0.00000       0.00000    
     42066 TIP3     3172     SWM4     OM       LPDW     -1.11466       0.00000          -1   0.00000       0.00000    
     42067 TIP3     3172     SWM4     H1       HDW      0.557330       1.00800           0   0.00000       0.00000    
     42068 TIP3     3172     SWM4     H2       HDW      0.557330       1.00800           0   0.00000       0.00000    
     42069 TIP3     3173     SWM4     OH2      ODW       1.71640       15.5994           0 -0.978253       1.30000    
     42070 TIP3     3173     SWM4     DOH2     DOH2     -1.71640      0.400000           0   0.00000       0.00000    
     42071 TIP3     3173     SWM4     OM       LPDW     -1.11466       0.00000          -1   0.00000       0.00000    
     42072 TIP3     3173     SWM4     H1       HDW      0.557330       1.00800           0   0.00000       0.00000    
     42073 TIP3     3173     SWM4     H2       HDW      0.557330       1.00800           0   0.00000       0.00000    
     42074 TIP3     3174     SWM4     OH2      ODW       1.71640       15.5994           0 -0.978253       1.30000    
     42075 TIP3     3174     SWM4     DOH2     DOH2     -1.71640      0.400000           0   0.00000       0.00000    
     42076 TIP3     3174     SWM4     OM       LPDW     -1.11466       0.00000          -1   0.00000       0.00000    
     42077 TIP3     3174     SWM4     H1       HDW      0.557330       1.00800           0   0.00000       0.00000    
     42078 TIP3     3174     SWM4     H2       HDW      0.557330       1.00800           0   0.00000       0.00000    
     42079 TIP3     3175     SWM4     OH2      ODW       1.71640       15.5994           0 -0.978253       1.30000    
     42080 TIP3     3175     SWM4     DOH2     DOH2     -1.71640      0.400000           0   0.00000       0.00000    
     42081 TIP3     3175     SWM4     OM       LPDW     -1.11466       0.00000          -1   0.00000       0.00000    
     42082 TIP3     3175     SWM4     H1       HDW      0.557330       1.00800           0   0.00000       0.00000    
     42083 TIP3     3175     SWM4     H2       HDW      0.557330       1.00800           0   0.00000       0.00000    
     42084 TIP3     3176     SWM4     OH2      ODW       1.71640       15.5994           0 -0.978253       1.30000    
     42085 TIP3     3176     SWM4     DOH2     DOH2     -1.71640      0.400000           0   0.00000       0.00000    
     42086 TIP3     3176     SWM4     OM       LPDW     -1.11466       0.00000          -1   0.00000       0.00000    
     42087 TIP3     3176     SWM4     H1       HDW      0.557330       1.00800           0   0.00000       0.00000    
     42088 TIP3     3176     SWM4     H2       HDW      0.557330       1.00800           0   0.00000       0.00000    
     42089 TIP3     3177     SWM4     OH2      ODW       1.71640       15.5994           0 -0.978253       1.30000    
     42090 TIP3     3177     SWM4     DOH2     DOH2     -1.71640      0.400000           0   0.00000       0.00000    
     42091 TIP3     3177     SWM4     OM       LPDW     -1.11466       0.00000          -1   0.00000       0.00000    
     42092 TIP3     3177     SWM4     H1       HDW      0.557330       1.00800           0   0.00000       0.00000    
     42093 TIP3     3177     SWM4     H2       HDW      0.557330       1.00800           0   0.00000       0.00000    
     42094 TIP3     3178     SWM4     OH2      ODW       1.71640       15.5994           0 -0.978253       1.30000    
     42095 TIP3     3178     SWM4     DOH2     DOH2     -1.71640      0.400000           0   0.00000       0.00000    
     42096 TIP3     3178     SWM4     OM       LPDW     -1.11466       0.00000          -1   0.00000       0.00000    
     42097 TIP3     3178     SWM4     H1       HDW      0.557330       1.00800           0   0.00000       0.00000    
     42098 TIP3     3178     SWM4     H2       HDW      0.557330       1.00800           0   0.00000       0.00000    
     42099 TIP3     3179     SWM4     OH2      ODW       1.71640       15.5994           0 -0.978253       1.30000    
     42100 TIP3     3179     SWM4     DOH2     DOH2     -1.71640      0.400000           0   0.00000       0.00000    
     42101 TIP3     3179     SWM4     OM       LPDW     -1.11466       0.00000          -1   0.00000       0.00000    
     42102 TIP3     3179     SWM4     H1       HDW      0.557330       1.00800           0   0.00000       0.00000    
     42103 TIP3     3179     SWM4     H2       HDW      0.557330       1.00800           0   0.00000       0.00000    
     42104 TIP3     3180     SWM4     OH2      ODW       1.71640       15.5994           0 -0.978253       1.30000    
     42105 TIP3     3180     SWM4     DOH2     DOH2     -1.71640      0.400000           0   0.00000       0.00000    
     42106 TIP3     3180     SWM4     OM       LPDW     -1.11466       0.00000          -1   0.00000       0.00000    
     42107 TIP3     3180     SWM4     H1       HDW      0.557330       1.00800           0   0.00000       0.00000    
     42108 TIP3     3180     SWM4     H2       HDW      0.557330       1.00800           0   0.00000       0.00000    
     42109 TIP3     3181     SWM4     OH2      ODW       1.71640       15.5994           0 -0.978253       1.30000    
     42110 TIP3     3181     SWM4     DOH2     DOH2     -1.71640      0.400000           0   0.00000       0.00000    
     42111 TIP3     3181     SWM4     OM       LPDW     -1.11466       0.00000          -1   0.00000       0.00000    
     42112 TIP3     3181     SWM4     H1       HDW      0.557330       1.00800           0   0.00000       0.00000    
     42113 TIP3     3181     SWM4     H2       HDW      0.557330       1.00800           0   0.00000       0.00000    
     42114 TIP3     3182     SWM4     OH2      ODW       1.71640       15.5994           0 -0.978253       1.30000    
     42115 TIP3     3182     SWM4     DOH2     DOH2     -1.71640      0.400000           0   0.00000       0.00000    
     42116 TIP3     3182     SWM4     OM       LPDW     -1.11466       0.00000          -1   0.00000       0.00000    
     42117 TIP3     3182     SWM4     H1       HDW      0.557330       1.00800           0   0.00000       0.00000    
     42118 TIP3     3182     SWM4     H2       HDW      0.557330       1.00800           0   0.00000       0.00000    
     42119 TIP3     3183     SWM4     OH2      ODW       1.71640       15.5994           0 -0.978253       1.30000    
     42120 TIP3     3183     SWM4     DOH2     DOH2     -1.71640      0.400000           0   0.00000       0.00000    
     42121 TIP3     3183     SWM4     OM       LPDW     -1.11466       0.00000          -1   0.00000       0.00000    
     42122 TIP3     3183     SWM4     H1       HDW      0.557330       1.00800           0   0.00000       0.00000    
     42123 TIP3     3183     SWM4     H2       HDW      0.557330       1.00800           0   0.00000       0.00000    
     42124 TIP3     3184     SWM4     OH2      ODW       1.71640       15.5994           0 -0.978253       1.30000    
     42125 TIP3     3184     SWM4     DOH2     DOH2     -1.71640      0.400000           0   0.00000       0.00000    
     42126 TIP3     3184     SWM4     OM       LPDW     -1.11466       0.00000          -1   0.00000       0.00000    
     42127 TIP3     3184     SWM4     H1       HDW      0.557330       1.00800           0   0.00000       0.00000    
     42128 TIP3     3184     SWM4     H2       HDW      0.557330       1.00800           0   0.00000       0.00000    
     42129 TIP3     3185     SWM4     OH2      ODW       1.71640       15.5994           0 -0.978253       1.30000    
     42130 TIP3     3185     SWM4     DOH2     DOH2     -1.71640      0.400000           0   0.00000       0.00000    
     42131 TIP3     3185     SWM4     OM       LPDW     -1.11466       0.00000          -1   0.00000       0.00000    
     42132 TIP3     3185     SWM4     H1       HDW      0.557330       1.00800           0   0.00000       0.00000    
     42133 TIP3     3185     SWM4     H2       HDW      0.557330       1.00800           0   0.00000       0.00000    
     42134 TIP3     3186     SWM4     OH2      ODW       1.71640       15.5994           0 -0.978253       1.30000    
     42135 TIP3     3186     SWM4     DOH2     DOH2     -1.71640      0.400000           0   0.00000       0.00000    
     42136 TIP3     3186     SWM4     OM       LPDW     -1.11466       0.00000          -1   0.00000       0.00000    
     42137 TIP3     3186     SWM4     H1       HDW      0.557330       1.00800           0   0.00000       0.00000    
     42138 TIP3     3186     SWM4     H2       HDW      0.557330       1.00800           0   0.00000       0.00000    
     42139 TIP3     3187     SWM4     OH2      ODW       1.71640       15.5994           0 -0.978253       1.30000    
     42140 TIP3     3187     SWM4     DOH2     DOH2     -1.71640      0.400000           0   0.00000       0.00000    
     42141 TIP3     3187     SWM4     OM       LPDW     -1.11466       0.00000          -1   0.00000       0.00000    
     42142 TIP3     3187     SWM4     H1       HDW      0.557330       1.00800           0   0.00000       0.00000    
     42143 TIP3     3187     SWM4     H2       HDW      0.557330       1.00800           0   0.00000       0.00000    
     42144 TIP3     3188     SWM4     OH2      ODW       1.71640       15.5994           0 -0.978253       1.30000    
     42145 TIP3     3188     SWM4     DOH2     DOH2     -1.71640      0.400000           0   0.00000       0.00000    
     42146 TIP3     3188     SWM4     OM       LPDW     -1.11466       0.00000          -1   0.00000       0.00000    
     42147 TIP3     3188     SWM4     H1       HDW      0.557330       1.00800           0   0.00000       0.00000    
     42148 TIP3     3188     SWM4     H2       HDW      0.557330       1.00800           0   0.00000       0.00000    
     42149 TIP3     3189     SWM4     OH2      ODW       1.71640       15.5994           0 -0.978253       1.30000    
     42150 TIP3     3189     SWM4     DOH2     DOH2     -1.71640      0.400000           0   0.00000       0.00000    
     42151 TIP3     3189     SWM4     OM       LPDW     -1.11466       0.00000          -1   0.00000       0.00000    
     42152 TIP3     3189     SWM4     H1       HDW      0.557330       1.00800           0   0.00000       0.00000    
     42153 TIP3     3189     SWM4     H2       HDW      0.557330       1.00800           0   0.00000       0.00000    
     42154 TIP3     3190     SWM4     OH2      ODW       1.71640       15.5994           0 -0.978253       1.30000    
     42155 TIP3     3190     SWM4     DOH2     DOH2     -1.71640      0.400000           0   0.00000       0.00000    
     42156 TIP3     3190     SWM4     OM       LPDW     -1.11466       0.00000          -1   0.00000       0.00000    
     42157 TIP3     3190     SWM4     H1       HDW      0.557330       1.00800           0   0.00000       0.00000    
     42158 TIP3     3190     SWM4     H2       HDW      0.557330       1.00800           0   0.00000       0.00000    
     42159 TIP3     3191     SWM4     OH2      ODW       1.71640       15.5994           0 -0.978253       1.30000    
     42160 TIP3     3191     SWM4     DOH2     DOH2     -1.71640      0.400000           0   0.00000       0.00000    
     42161 TIP3     3191     SWM4     OM       LPDW     -1.11466       0.00000          -1   0.00000       0.00000    
     42162 TIP3     3191     SWM4     H1       HDW      0.557330       1.00800           0   0.00000       0.00000    
     42163 TIP3     3191     SWM4     H2       HDW      0.557330       1.00800           0   0.00000       0.00000    
     42164 TIP3     3192     SWM4     OH2      ODW       1.71640       15.5994           0 -0.978253       1.30000    
     42165 TIP3     3192     SWM4     DOH2     DOH2     -1.71640      0.400000           0   0.00000       0.00000    
     42166 TIP3     3192     SWM4     OM       LPDW     -1.11466       0.00000          -1   0.00000       0.00000    
     42167 TIP3     3192     SWM4     H1       HDW      0.557330       1.00800           0   0.00000       0.00000    
     42168 TIP3     3192     SWM4     H2       HDW      0.557330       1.00800           0   0.00000       0.00000    
     42169 TIP3     3193     SWM4     OH2      ODW       1.71640       15.5994           0 -0.978253       1.30000    
     42170 TIP3     3193     SWM4     DOH2     DOH2     -1.71640      0.400000           0   0.00000       0.00000    
     42171 TIP3     3193     SWM4     OM       LPDW     -1.11466       0.00000          -1   0.00000       0.00000    
     42172 TIP3     3193     SWM4     H1       HDW      0.557330       1.00800           0   0.00000       0.00000    
     42173 TIP3     3193     SWM4     H2       HDW      0.557330       1.00800           0   0.00000       0.00000    
     42174 TIP3     3194     SWM4     OH2      ODW       1.71640       15.5994           0 -0.978253       1.30000    
     42175 TIP3     3194     SWM4     DOH2     DOH2     -1.71640      0.400000           0   0.00000       0.00000    
     42176 TIP3     3194     SWM4     OM       LPDW     -1.11466       0.00000          -1   0.00000       0.00000    
     42177 TIP3     3194     SWM4     H1       HDW      0.557330       1.00800           0   0.00000       0.00000    
     42178 TIP3     3194     SWM4     H2       HDW      0.557330       1.00800           0   0.00000       0.00000    
     42179 TIP3     3195     SWM4     OH2      ODW       1.71640       15.5994           0 -0.978253       1.30000    
     42180 TIP3     3195     SWM4     DOH2     DOH2     -1.71640      0.400000           0   0.00000       0.00000    
     42181 TIP3     3195     SWM4     OM       LPDW     -1.11466       0.00000          -1   0.00000       0.00000    
     42182 TIP3     3195     SWM4     H1       HDW      0.557330       1.00800           0   0.00000       0.00000    
     42183 TIP3     3195     SWM4     H2       HDW      0.557330       1.00800           0   0.00000       0.00000    
     42184 TIP3     3196     SWM4     OH2      ODW       1.71640       15.5994           0 -0.978253       1.30000    
     42185 TIP3     3196     SWM4     DOH2     DOH2     -1.71640      0.400000           0   0.00000       0.00000    
     42186 TIP3     3196     SWM4     OM       LPDW     -1.11466       0.00000          -1   0.00000       0.00000    
     42187 TIP3     3196     SWM4     H1       HDW      0.557330       1.00800           0   0.00000       0.00000    
     42188 TIP3     3196     SWM4     H2       HDW      0.557330       1.00800           0   0.00000       0.00000    
     42189 TIP3     3197     SWM4     OH2      ODW       1.71640       15.5994           0 -0.978253       1.30000    
     42190 TIP3     3197     SWM4     DOH2     DOH2     -1.71640      0.400000           0   0.00000       0.00000    
     42191 TIP3     3197     SWM4     OM       LPDW     -1.11466       0.00000          -1   0.00000       0.00000    
     42192 TIP3     3197     SWM4     H1       HDW      0.557330       1.00800           0   0.00000       0.00000    
     42193 TIP3     3197     SWM4     H2       HDW      0.557330       1.00800           0   0.00000       0.00000    
     42194 TIP3     3198     SWM4     OH2      ODW       1.71640       15.5994           0 -0.978253       1.30000    
     42195 TIP3     3198     SWM4     DOH2     DOH2     -1.71640      0.400000           0   0.00000       0.00000    
     42196 TIP3     3198     SWM4     OM       LPDW     -1.11466       0.00000          -1   0.00000       0.00000    
     42197 TIP3     3198     SWM4     H1       HDW      0.557330       1.00800           0   0.00000       0.00000    
     42198 TIP3     3198     SWM4     H2       HDW      0.557330       1.00800           0   0.00000       0.00000    
     42199 TIP3     3199     SWM4     OH2      ODW       1.71640       15.5994           0 -0.978253       1.30000    
     42200 TIP3     3199     SWM4     DOH2     DOH2     -1.71640      0.400000           0   0.00000       0.00000    
     42201 TIP3     3199     SWM4     OM       LPDW     -1.11466       0.00000          -1   0.00000       0.00000    
     42202 TIP3     3199     SWM4     H1       HDW      0.557330       1.00800           0   0.00000       0.00000    
     42203 TIP3     3199     SWM4     H2       HDW      0.557330       1.00800           0   0.00000       0.00000    
     42204 TIP3     3200     SWM4     OH2      ODW       1.71640       15.5994           0 -0.978253       1.30000    
     42205 TIP3     3200     SWM4     DOH2     DOH2     -1.71640      0.400000           0   0.00000       0.00000    
     42206 TIP3     3200     SWM4     OM       LPDW     -1.11466       0.00000          -1   0.00000       0.00000    
     42207 TIP3     3200     SWM4     H1       HDW      0.557330       1.00800           0   0.00000       0.00000    
     42208 TIP3     3200     SWM4     H2       HDW      0.557330       1.00800           0   0.00000       0.00000    
     42209 TIP3     3201     SWM4     OH2      ODW       1.71640       15.5994           0 -0.978253       1.30000    
     42210 TIP3     3201     SWM4     DOH2     DOH2     -1.71640      0.400000           0   0.00000       0.00000    
     42211 TIP3     3201     SWM4     OM       LPDW     -1.11466       0.00000          -1   0.00000       0.00000    
     42212 TIP3     3201     SWM4     H1       HDW      0.557330       1.00800           0   0.00000       0.00000    
     42213 TIP3     3201     SWM4     H2       HDW      0.557330       1.00800           0   0.00000       0.00000    
     42214 TIP3     3202     SWM4     OH2      ODW       1.71640       15.5994           0 -0.978253       1.30000    
     42215 TIP3     3202     SWM4     DOH2     DOH2     -1.71640      0.400000           0   0.00000       0.00000    
     42216 TIP3     3202     SWM4     OM       LPDW     -1.11466       0.00000          -1   0.00000       0.00000    
     42217 TIP3     3202     SWM4     H1       HDW      0.557330       1.00800           0   0.00000       0.00000    
     42218 TIP3     3202     SWM4     H2       HDW      0.557330       1.00800           0   0.00000       0.00000    
     42219 TIP3     3203     SWM4     OH2      ODW       1.71640       15.5994           0 -0.978253       1.30000    
     42220 TIP3     3203     SWM4     DOH2     DOH2     -1.71640      0.400000           0   0.00000       0.00000    
     42221 TIP3     3203     SWM4     OM       LPDW     -1.11466       0.00000          -1   0.00000       0.00000    
     42222 TIP3     3203     SWM4     H1       HDW      0.557330       1.00800           0   0.00000       0.00000    
     42223 TIP3     3203     SWM4     H2       HDW      0.557330       1.00800           0   0.00000       0.00000    
     42224 TIP3     3204     SWM4     OH2      ODW       1.71640       15.5994           0 -0.978253       1.30000    
     42225 TIP3     3204     SWM4     DOH2     DOH2     -1.71640      0.400000           0   0.00000       0.00000    
     42226 TIP3     3204     SWM4     OM       LPDW     -1.11466       0.00000          -1   0.00000       0.00000    
     42227 TIP3     3204     SWM4     H1       HDW      0.557330       1.00800           0   0.00000       0.00000    
     42228 TIP3     3204     SWM4     H2       HDW      0.557330       1.00800           0   0.00000       0.00000    
     42229 TIP3     3205     SWM4     OH2      ODW       1.71640       15.5994           0 -0.978253       1.30000    
     42230 TIP3     3205     SWM4     DOH2     DOH2     -1.71640      0.400000           0   0.00000       0.00000    
     42231 TIP3     3205     SWM4     OM       LPDW     -1.11466       0.00000          -1   0.00000       0.00000    
     42232 TIP3     3205     SWM4     H1       HDW      0.557330       1.00800           0   0.00000       0.00000    
     42233 TIP3     3205     SWM4     H2       HDW      0.557330       1.00800           0   0.00000       0.00000    
     42234 TIP3     3206     SWM4     OH2      ODW       1.71640       15.5994           0 -0.978253       1.30000    
     42235 TIP3     3206     SWM4     DOH2     DOH2     -1.71640      0.400000           0   0.00000       0.00000    
     42236 TIP3     3206     SWM4     OM       LPDW     -1.11466       0.00000          -1   0.00000       0.00000    
     42237 TIP3     3206     SWM4     H1       HDW      0.557330       1.00800           0   0.00000       0.00000    
     42238 TIP3     3206     SWM4     H2       HDW      0.557330       1.00800           0   0.00000       0.00000    
     42239 TIP3     3207     SWM4     OH2      ODW       1.71640       15.5994           0 -0.978253       1.30000    
     42240 TIP3     3207     SWM4     DOH2     DOH2     -1.71640      0.400000           0   0.00000       0.00000    
     42241 TIP3     3207     SWM4     OM       LPDW     -1.11466       0.00000          -1   0.00000       0.00000    
     42242 TIP3     3207     SWM4     H1       HDW      0.557330       1.00800           0   0.00000       0.00000    
     42243 TIP3     3207     SWM4     H2       HDW      0.557330       1.00800           0   0.00000       0.00000    
     42244 TIP3     3208     SWM4     OH2      ODW       1.71640       15.5994           0 -0.978253       1.30000    
     42245 TIP3     3208     SWM4     DOH2     DOH2     -1.71640      0.400000           0   0.00000       0.00000    
     42246 TIP3     3208     SWM4     OM       LPDW     -1.11466       0.00000          -1   0.00000       0.00000    
     42247 TIP3     3208     SWM4     H1       HDW      0.557330       1.00800           0   0.00000       0.00000    
     42248 TIP3     3208     SWM4     H2       HDW      0.557330       1.00800           0   0.00000       0.00000    
     42249 TIP3     3209     SWM4     OH2      ODW       1.71640       15.5994           0 -0.978253       1.30000    
     42250 TIP3     3209     SWM4     DOH2     DOH2     -1.71640      0.400000           0   0.00000       0.00000    
     42251 TIP3     3209     SWM4     OM       LPDW     -1.11466       0.00000          -1   0.00000       0.00000    
     42252 TIP3     3209     SWM4     H1       HDW      0.557330       1.00800           0   0.00000       0.00000    
     42253 TIP3     3209     SWM4     H2       HDW      0.557330       1.00800           0   0.00000       0.00000    
     42254 TIP3     3210     SWM4     OH2      ODW       1.71640       15.5994           0 -0.978253       1.30000    
     42255 TIP3     3210     SWM4     DOH2     DOH2     -1.71640      0.400000           0   0.00000       0.00000    
     42256 TIP3     3210     SWM4     OM       LPDW     -1.11466       0.00000          -1   0.00000       0.00000    
     42257 TIP3     3210     SWM4     H1       HDW      0.557330       1.00800           0   0.00000       0.00000    
     42258 TIP3     3210     SWM4     H2       HDW      0.557330       1.00800           0   0.00000       0.00000    
     42259 TIP3     3211     SWM4     OH2      ODW       1.71640       15.5994           0 -0.978253       1.30000    
     42260 TIP3     3211     SWM4     DOH2     DOH2     -1.71640      0.400000           0   0.00000       0.00000    
     42261 TIP3     3211     SWM4     OM       LPDW     -1.11466       0.00000          -1   0.00000       0.00000    
     42262 TIP3     3211     SWM4     H1       HDW      0.557330       1.00800           0   0.00000       0.00000    
     42263 TIP3     3211     SWM4     H2       HDW      0.557330       1.00800           0   0.00000       0.00000    
     42264 TIP3     3212     SWM4     OH2      ODW       1.71640       15.5994           0 -0.978253       1.30000    
     42265 TIP3     3212     SWM4     DOH2     DOH2     -1.71640      0.400000           0   0.00000       0.00000    
     42266 TIP3     3212     SWM4     OM       LPDW     -1.11466       0.00000          -1   0.00000       0.00000    
     42267 TIP3     3212     SWM4     H1       HDW      0.557330       1.00800           0   0.00000       0.00000    
     42268 TIP3     3212     SWM4     H2       HDW      0.557330       1.00800           0   0.00000       0.00000    
     42269 TIP3     3213     SWM4     OH2      ODW       1.71640       15.5994           0 -0.978253       1.30000    
     42270 TIP3     3213     SWM4     DOH2     DOH2     -1.71640      0.400000           0   0.00000       0.00000    
     42271 TIP3     3213     SWM4     OM       LPDW     -1.11466       0.00000          -1   0.00000       0.00000    
     42272 TIP3     3213     SWM4     H1       HDW      0.557330       1.00800           0   0.00000       0.00000    
     42273 TIP3     3213     SWM4     H2       HDW      0.557330       1.00800           0   0.00000       0.00000    
     42274 TIP3     3214     SWM4     OH2      ODW       1.71640       15.5994           0 -0.978253       1.30000    
     42275 TIP3     3214     SWM4     DOH2     DOH2     -1.71640      0.400000           0   0.00000       0.00000    
     42276 TIP3     3214     SWM4     OM       LPDW     -1.11466       0.00000          -1   0.00000       0.00000    
     42277 TIP3     3214     SWM4     H1       HDW      0.557330       1.00800           0   0.00000       0.00000    
     42278 TIP3     3214     SWM4     H2       HDW      0.557330       1.00800           0   0.00000       0.00000    
     42279 TIP3     3215     SWM4     OH2      ODW       1.71640       15.5994           0 -0.978253       1.30000    
     42280 TIP3     3215     SWM4     DOH2     DOH2     -1.71640      0.400000           0   0.00000       0.00000    
     42281 TIP3     3215     SWM4     OM       LPDW     -1.11466       0.00000          -1   0.00000       0.00000    
     42282 TIP3     3215     SWM4     H1       HDW      0.557330       1.00800           0   0.00000       0.00000    
     42283 TIP3     3215     SWM4     H2       HDW      0.557330       1.00800           0   0.00000       0.00000    
     42284 TIP3     3216     SWM4     OH2      ODW       1.71640       15.5994           0 -0.978253       1.30000    
     42285 TIP3     3216     SWM4     DOH2     DOH2     -1.71640      0.400000           0   0.00000       0.00000    
     42286 TIP3     3216     SWM4     OM       LPDW     -1.11466       0.00000          -1   0.00000       0.00000    
     42287 TIP3     3216     SWM4     H1       HDW      0.557330       1.00800           0   0.00000       0.00000    
     42288 TIP3     3216     SWM4     H2       HDW      0.557330       1.00800           0   0.00000       0.00000    
     42289 TIP3     3217     SWM4     OH2      ODW       1.71640       15.5994           0 -0.978253       1.30000    
     42290 TIP3     3217     SWM4     DOH2     DOH2     -1.71640      0.400000           0   0.00000       0.00000    
     42291 TIP3     3217     SWM4     OM       LPDW     -1.11466       0.00000          -1   0.00000       0.00000    
     42292 TIP3     3217     SWM4     H1       HDW      0.557330       1.00800           0   0.00000       0.00000    
     42293 TIP3     3217     SWM4     H2       HDW      0.557330       1.00800           0   0.00000       0.00000    
     42294 TIP3     3218     SWM4     OH2      ODW       1.71640       15.5994           0 -0.978253       1.30000    
     42295 TIP3     3218     SWM4     DOH2     DOH2     -1.71640      0.400000           0   0.00000       0.00000    
     42296 TIP3     3218     SWM4     OM       LPDW     -1.11466       0.00000          -1   0.00000       0.00000    
     42297 TIP3     3218     SWM4     H1       HDW      0.557330       1.00800           0   0.00000       0.00000    
     42298 TIP3     3218     SWM4     H2       HDW      0.557330       1.00800           0   0.00000       0.00000    
     42299 TIP3     3219     SWM4     OH2      ODW       1.71640       15.5994           0 -0.978253       1.30000    
     42300 TIP3     3219     SWM4     DOH2     DOH2     -1.71640      0.400000           0   0.00000       0.00000    
     42301 TIP3     3219     SWM4     OM       LPDW     -1.11466       0.00000          -1   0.00000       0.00000    
     42302 TIP3     3219     SWM4     H1       HDW      0.557330       1.00800           0   0.00000       0.00000    
     42303 TIP3     3219     SWM4     H2       HDW      0.557330       1.00800           0   0.00000       0.00000    
     42304 TIP3     3220     SWM4     OH2      ODW       1.71640       15.5994           0 -0.978253       1.30000    
     42305 TIP3     3220     SWM4     DOH2     DOH2     -1.71640      0.400000           0   0.00000       0.00000    
     42306 TIP3     3220     SWM4     OM       LPDW     -1.11466       0.00000          -1   0.00000       0.00000    
     42307 TIP3     3220     SWM4     H1       HDW      0.557330       1.00800           0   0.00000       0.00000    
     42308 TIP3     3220     SWM4     H2       HDW      0.557330       1.00800           0   0.00000       0.00000    
     42309 TIP3     3221     SWM4     OH2      ODW       1.71640       15.5994           0 -0.978253       1.30000    
     42310 TIP3     3221     SWM4     DOH2     DOH2     -1.71640      0.400000           0   0.00000       0.00000    
     42311 TIP3     3221     SWM4     OM       LPDW     -1.11466       0.00000          -1   0.00000       0.00000    
     42312 TIP3     3221     SWM4     H1       HDW      0.557330       1.00800           0   0.00000       0.00000    
     42313 TIP3     3221     SWM4     H2       HDW      0.557330       1.00800           0   0.00000       0.00000    
     42314 TIP3     3222     SWM4     OH2      ODW       1.71640       15.5994           0 -0.978253       1.30000    
     42315 TIP3     3222     SWM4     DOH2     DOH2     -1.71640      0.400000           0   0.00000       0.00000    
     42316 TIP3     3222     SWM4     OM       LPDW     -1.11466       0.00000          -1   0.00000       0.00000    
     42317 TIP3     3222     SWM4     H1       HDW      0.557330       1.00800           0   0.00000       0.00000    
     42318 TIP3     3222     SWM4     H2       HDW      0.557330       1.00800           0   0.00000       0.00000    
     42319 TIP3     3223     SWM4     OH2      ODW       1.71640       15.5994           0 -0.978253       1.30000    
     42320 TIP3     3223     SWM4     DOH2     DOH2     -1.71640      0.400000           0   0.00000       0.00000    
     42321 TIP3     3223     SWM4     OM       LPDW     -1.11466       0.00000          -1   0.00000       0.00000    
     42322 TIP3     3223     SWM4     H1       HDW      0.557330       1.00800           0   0.00000       0.00000    
     42323 TIP3     3223     SWM4     H2       HDW      0.557330       1.00800           0   0.00000       0.00000    
     42324 TIP3     3224     SWM4     OH2      ODW       1.71640       15.5994           0 -0.978253       1.30000    
     42325 TIP3     3224     SWM4     DOH2     DOH2     -1.71640      0.400000           0   0.00000       0.00000    
     42326 TIP3     3224     SWM4     OM       LPDW     -1.11466       0.00000          -1   0.00000       0.00000    
     42327 TIP3     3224     SWM4     H1       HDW      0.557330       1.00800           0   0.00000       0.00000    
     42328 TIP3     3224     SWM4     H2       HDW      0.557330       1.00800           0   0.00000       0.00000    
     42329 TIP3     3225     SWM4     OH2      ODW       1.71640       15.5994           0 -0.978253       1.30000    
     42330 TIP3     3225     SWM4     DOH2     DOH2     -1.71640      0.400000           0   0.00000       0.00000    
     42331 TIP3     3225     SWM4     OM       LPDW     -1.11466       0.00000          -1   0.00000       0.00000    
     42332 TIP3     3225     SWM4     H1       HDW      0.557330       1.00800           0   0.00000       0.00000    
     42333 TIP3     3225     SWM4     H2       HDW      0.557330       1.00800           0   0.00000       0.00000    
     42334 TIP3     3226     SWM4     OH2      ODW       1.71640       15.5994           0 -0.978253       1.30000    
     42335 TIP3     3226     SWM4     DOH2     DOH2     -1.71640      0.400000           0   0.00000       0.00000    
     42336 TIP3     3226     SWM4     OM       LPDW     -1.11466       0.00000          -1   0.00000       0.00000    
     42337 TIP3     3226     SWM4     H1       HDW      0.557330       1.00800           0   0.00000       0.00000    
     42338 TIP3     3226     SWM4     H2       HDW      0.557330       1.00800           0   0.00000       0.00000    
     42339 TIP3     3227     SWM4     OH2      ODW       1.71640       15.5994           0 -0.978253       1.30000    
     42340 TIP3     3227     SWM4     DOH2     DOH2     -1.71640      0.400000           0   0.00000       0.00000    
     42341 TIP3     3227     SWM4     OM       LPDW     -1.11466       0.00000          -1   0.00000       0.00000    
     42342 TIP3     3227     SWM4     H1       HDW      0.557330       1.00800           0   0.00000       0.00000    
     42343 TIP3     3227     SWM4     H2       HDW      0.557330       1.00800           0   0.00000       0.00000    
     42344 TIP3     3228     SWM4     OH2      ODW       1.71640       15.5994           0 -0.978253       1.30000    
     42345 TIP3     3228     SWM4     DOH2     DOH2     -1.71640      0.400000           0   0.00000       0.00000    
     42346 TIP3     3228     SWM4     OM       LPDW     -1.11466       0.00000          -1   0.00000       0.00000    
     42347 TIP3     3228     SWM4     H1       HDW      0.557330       1.00800           0   0.00000       0.00000    
     42348 TIP3     3228     SWM4     H2       HDW      0.557330       1.00800           0   0.00000       0.00000    
     42349 TIP3     3229     SWM4     OH2      ODW       1.71640       15.5994           0 -0.978253       1.30000    
     42350 TIP3     3229     SWM4     DOH2     DOH2     -1.71640      0.400000           0   0.00000       0.00000    
     42351 TIP3     3229     SWM4     OM       LPDW     -1.11466       0.00000          -1   0.00000       0.00000    
     42352 TIP3     3229     SWM4     H1       HDW      0.557330       1.00800           0   0.00000       0.00000    
     42353 TIP3     3229     SWM4     H2       HDW      0.557330       1.00800           0   0.00000       0.00000    
     42354 TIP3     3230     SWM4     OH2      ODW       1.71640       15.5994           0 -0.978253       1.30000    
     42355 TIP3     3230     SWM4     DOH2     DOH2     -1.71640      0.400000           0   0.00000       0.00000    
     42356 TIP3     3230     SWM4     OM       LPDW     -1.11466       0.00000          -1   0.00000       0.00000    
     42357 TIP3     3230     SWM4     H1       HDW      0.557330       1.00800           0   0.00000       0.00000    
     42358 TIP3     3230     SWM4     H2       HDW      0.557330       1.00800           0   0.00000       0.00000    
     42359 TIP3     3231     SWM4     OH2      ODW       1.71640       15.5994           0 -0.978253       1.30000    
     42360 TIP3     3231     SWM4     DOH2     DOH2     -1.71640      0.400000           0   0.00000       0.00000    
     42361 TIP3     3231     SWM4     OM       LPDW     -1.11466       0.00000          -1   0.00000       0.00000    
     42362 TIP3     3231     SWM4     H1       HDW      0.557330       1.00800           0   0.00000       0.00000    
     42363 TIP3     3231     SWM4     H2       HDW      0.557330       1.00800           0   0.00000       0.00000    
     42364 TIP3     3232     SWM4     OH2      ODW       1.71640       15.5994           0 -0.978253       1.30000    
     42365 TIP3     3232     SWM4     DOH2     DOH2     -1.71640      0.400000           0   0.00000       0.00000    
     42366 TIP3     3232     SWM4     OM       LPDW     -1.11466       0.00000          -1   0.00000       0.00000    
     42367 TIP3     3232     SWM4     H1       HDW      0.557330       1.00800           0   0.00000       0.00000    
     42368 TIP3     3232     SWM4     H2       HDW      0.557330       1.00800           0   0.00000       0.00000    
     42369 TIP3     3233     SWM4     OH2      ODW       1.71640       15.5994           0 -0.978253       1.30000    
     42370 TIP3     3233     SWM4     DOH2     DOH2     -1.71640      0.400000           0   0.00000       0.00000    
     42371 TIP3     3233     SWM4     OM       LPDW     -1.11466       0.00000          -1   0.00000       0.00000    
     42372 TIP3     3233     SWM4     H1       HDW      0.557330       1.00800           0   0.00000       0.00000    
     42373 TIP3     3233     SWM4     H2       HDW      0.557330       1.00800           0   0.00000       0.00000    
     42374 TIP3     3234     SWM4     OH2      ODW       1.71640       15.5994           0 -0.978253       1.30000    
     42375 TIP3     3234     SWM4     DOH2     DOH2     -1.71640      0.400000           0   0.00000       0.00000    
     42376 TIP3     3234     SWM4     OM       LPDW     -1.11466       0.00000          -1   0.00000       0.00000    
     42377 TIP3     3234     SWM4     H1       HDW      0.557330       1.00800           0   0.00000       0.00000    
     42378 TIP3     3234     SWM4     H2       HDW      0.557330       1.00800           0   0.00000       0.00000    
     42379 TIP3     3235     SWM4     OH2      ODW       1.71640       15.5994           0 -0.978253       1.30000    
     42380 TIP3     3235     SWM4     DOH2     DOH2     -1.71640      0.400000           0   0.00000       0.00000    
     42381 TIP3     3235     SWM4     OM       LPDW     -1.11466       0.00000          -1   0.00000       0.00000    
     42382 TIP3     3235     SWM4     H1       HDW      0.557330       1.00800           0   0.00000       0.00000    
     42383 TIP3     3235     SWM4     H2       HDW      0.557330       1.00800           0   0.00000       0.00000    
     42384 TIP3     3236     SWM4     OH2      ODW       1.71640       15.5994           0 -0.978253       1.30000    
     42385 TIP3     3236     SWM4     DOH2     DOH2     -1.71640      0.400000           0   0.00000       0.00000    
     42386 TIP3     3236     SWM4     OM       LPDW     -1.11466       0.00000          -1   0.00000       0.00000    
     42387 TIP3     3236     SWM4     H1       HDW      0.557330       1.00800           0   0.00000       0.00000    
     42388 TIP3     3236     SWM4     H2       HDW      0.557330       1.00800           0   0.00000       0.00000    
     42389 TIP3     3237     SWM4     OH2      ODW       1.71640       15.5994           0 -0.978253       1.30000    
     42390 TIP3     3237     SWM4     DOH2     DOH2     -1.71640      0.400000           0   0.00000       0.00000    
     42391 TIP3     3237     SWM4     OM       LPDW     -1.11466       0.00000          -1   0.00000       0.00000    
     42392 TIP3     3237     SWM4     H1       HDW      0.557330       1.00800           0   0.00000       0.00000    
     42393 TIP3     3237     SWM4     H2       HDW      0.557330       1.00800           0   0.00000       0.00000    
     42394 TIP3     3238     SWM4     OH2      ODW       1.71640       15.5994           0 -0.978253       1.30000    
     42395 TIP3     3238     SWM4     DOH2     DOH2     -1.71640      0.400000           0   0.00000       0.00000    
     42396 TIP3     3238     SWM4     OM       LPDW     -1.11466       0.00000          -1   0.00000       0.00000    
     42397 TIP3     3238     SWM4     H1       HDW      0.557330       1.00800           0   0.00000       0.00000    
     42398 TIP3     3238     SWM4     H2       HDW      0.557330       1.00800           0   0.00000       0.00000    
     42399 TIP3     3239     SWM4     OH2      ODW       1.71640       15.5994           0 -0.978253       1.30000    
     42400 TIP3     3239     SWM4     DOH2     DOH2     -1.71640      0.400000           0   0.00000       0.00000    
     42401 TIP3     3239     SWM4     OM       LPDW     -1.11466       0.00000          -1   0.00000       0.00000    
     42402 TIP3     3239     SWM4     H1       HDW      0.557330       1.00800           0   0.00000       0.00000    
     42403 TIP3     3239     SWM4     H2       HDW      0.557330       1.00800           0   0.00000       0.00000    
     42404 TIP3     3240     SWM4     OH2      ODW       1.71640       15.5994           0 -0.978253       1.30000    
     42405 TIP3     3240     SWM4     DOH2     DOH2     -1.71640      0.400000           0   0.00000       0.00000    
     42406 TIP3     3240     SWM4     OM       LPDW     -1.11466       0.00000          -1   0.00000       0.00000    
     42407 TIP3     3240     SWM4     H1       HDW      0.557330       1.00800           0   0.00000       0.00000    
     42408 TIP3     3240     SWM4     H2       HDW      0.557330       1.00800           0   0.00000       0.00000    
     42409 TIP3     3241     SWM4     OH2      ODW       1.71640       15.5994           0 -0.978253       1.30000    
     42410 TIP3     3241     SWM4     DOH2     DOH2     -1.71640      0.400000           0   0.00000       0.00000    
     42411 TIP3     3241     SWM4     OM       LPDW     -1.11466       0.00000          -1   0.00000       0.00000    
     42412 TIP3     3241     SWM4     H1       HDW      0.557330       1.00800           0   0.00000       0.00000    
     42413 TIP3     3241     SWM4     H2       HDW      0.557330       1.00800           0   0.00000       0.00000    
     42414 TIP3     3242     SWM4     OH2      ODW       1.71640       15.5994           0 -0.978253       1.30000    
     42415 TIP3     3242     SWM4     DOH2     DOH2     -1.71640      0.400000           0   0.00000       0.00000    
     42416 TIP3     3242     SWM4     OM       LPDW     -1.11466       0.00000          -1   0.00000       0.00000    
     42417 TIP3     3242     SWM4     H1       HDW      0.557330       1.00800           0   0.00000       0.00000    
     42418 TIP3     3242     SWM4     H2       HDW      0.557330       1.00800           0   0.00000       0.00000    
     42419 TIP3     3243     SWM4     OH2      ODW       1.71640       15.5994           0 -0.978253       1.30000    
     42420 TIP3     3243     SWM4     DOH2     DOH2     -1.71640      0.400000           0   0.00000       0.00000    
     42421 TIP3     3243     SWM4     OM       LPDW     -1.11466       0.00000          -1   0.00000       0.00000    
     42422 TIP3     3243     SWM4     H1       HDW      0.557330       1.00800           0   0.00000       0.00000    
     42423 TIP3     3243     SWM4     H2       HDW      0.557330       1.00800           0   0.00000       0.00000    
     42424 TIP3     3244     SWM4     OH2      ODW       1.71640       15.5994           0 -0.978253       1.30000    
     42425 TIP3     3244     SWM4     DOH2     DOH2     -1.71640      0.400000           0   0.00000       0.00000    
     42426 TIP3     3244     SWM4     OM       LPDW     -1.11466       0.00000          -1   0.00000       0.00000    
     42427 TIP3     3244     SWM4     H1       HDW      0.557330       1.00800           0   0.00000       0.00000    
     42428 TIP3     3244     SWM4     H2       HDW      0.557330       1.00800           0   0.00000       0.00000    
     42429 TIP3     3245     SWM4     OH2      ODW       1.71640       15.5994           0 -0.978253       1.30000    
     42430 TIP3     3245     SWM4     DOH2     DOH2     -1.71640      0.400000           0   0.00000       0.00000    
     42431 TIP3     3245     SWM4     OM       LPDW     -1.11466       0.00000          -1   0.00000       0.00000    
     42432 TIP3     3245     SWM4     H1       HDW      0.557330       1.00800           0   0.00000       0.00000    
     42433 TIP3     3245     SWM4     H2       HDW      0.557330       1.00800           0   0.00000       0.00000    
     42434 TIP3     3246     SWM4     OH2      ODW       1.71640       15.5994           0 -0.978253       1.30000    
     42435 TIP3     3246     SWM4     DOH2     DOH2     -1.71640      0.400000           0   0.00000       0.00000    
     42436 TIP3     3246     SWM4     OM       LPDW     -1.11466       0.00000          -1   0.00000       0.00000    
     42437 TIP3     3246     SWM4     H1       HDW      0.557330       1.00800           0   0.00000       0.00000    
     42438 TIP3     3246     SWM4     H2       HDW      0.557330       1.00800           0   0.00000       0.00000    
     42439 TIP3     3247     SWM4     OH2      ODW       1.71640       15.5994           0 -0.978253       1.30000    
     42440 TIP3     3247     SWM4     DOH2     DOH2     -1.71640      0.400000           0   0.00000       0.00000    
     42441 TIP3     3247     SWM4     OM       LPDW     -1.11466       0.00000          -1   0.00000       0.00000    
     42442 TIP3     3247     SWM4     H1       HDW      0.557330       1.00800           0   0.00000       0.00000    
     42443 TIP3     3247     SWM4     H2       HDW      0.557330       1.00800           0   0.00000       0.00000    
     42444 TIP3     3248     SWM4     OH2      ODW       1.71640       15.5994           0 -0.978253       1.30000    
     42445 TIP3     3248     SWM4     DOH2     DOH2     -1.71640      0.400000           0   0.00000       0.00000    
     42446 TIP3     3248     SWM4     OM       LPDW     -1.11466       0.00000          -1   0.00000       0.00000    
     42447 TIP3     3248     SWM4     H1       HDW      0.557330       1.00800           0   0.00000       0.00000    
     42448 TIP3     3248     SWM4     H2       HDW      0.557330       1.00800           0   0.00000       0.00000    
     42449 TIP3     3249     SWM4     OH2      ODW       1.71640       15.5994           0 -0.978253       1.30000    
     42450 TIP3     3249     SWM4     DOH2     DOH2     -1.71640      0.400000           0   0.00000       0.00000    
     42451 TIP3     3249     SWM4     OM       LPDW     -1.11466       0.00000          -1   0.00000       0.00000    
     42452 TIP3     3249     SWM4     H1       HDW      0.557330       1.00800           0   0.00000       0.00000    
     42453 TIP3     3249     SWM4     H2       HDW      0.557330       1.00800           0   0.00000       0.00000    
     42454 TIP3     3250     SWM4     OH2      ODW       1.71640       15.5994           0 -0.978253       1.30000    
     42455 TIP3     3250     SWM4     DOH2     DOH2     -1.71640      0.400000           0   0.00000       0.00000    
     42456 TIP3     3250     SWM4     OM       LPDW     -1.11466       0.00000          -1   0.00000       0.00000    
     42457 TIP3     3250     SWM4     H1       HDW      0.557330       1.00800           0   0.00000       0.00000    
     42458 TIP3     3250     SWM4     H2       HDW      0.557330       1.00800           0   0.00000       0.00000    
     42459 TIP3     3251     SWM4     OH2      ODW       1.71640       15.5994           0 -0.978253       1.30000    
     42460 TIP3     3251     SWM4     DOH2     DOH2     -1.71640      0.400000           0   0.00000       0.00000    
     42461 TIP3     3251     SWM4     OM       LPDW     -1.11466       0.00000          -1   0.00000       0.00000    
     42462 TIP3     3251     SWM4     H1       HDW      0.557330       1.00800           0   0.00000       0.00000    
     42463 TIP3     3251     SWM4     H2       HDW      0.557330       1.00800           0   0.00000       0.00000    
     42464 TIP3     3252     SWM4     OH2      ODW       1.71640       15.5994           0 -0.978253       1.30000    
     42465 TIP3     3252     SWM4     DOH2     DOH2     -1.71640      0.400000           0   0.00000       0.00000    
     42466 TIP3     3252     SWM4     OM       LPDW     -1.11466       0.00000          -1   0.00000       0.00000    
     42467 TIP3     3252     SWM4     H1       HDW      0.557330       1.00800           0   0.00000       0.00000    
     42468 TIP3     3252     SWM4     H2       HDW      0.557330       1.00800           0   0.00000       0.00000    
     42469 TIP3     3253     SWM4     OH2      ODW       1.71640       15.5994           0 -0.978253       1.30000    
     42470 TIP3     3253     SWM4     DOH2     DOH2     -1.71640      0.400000           0   0.00000       0.00000    
     42471 TIP3     3253     SWM4     OM       LPDW     -1.11466       0.00000          -1   0.00000       0.00000    
     42472 TIP3     3253     SWM4     H1       HDW      0.557330       1.00800           0   0.00000       0.00000    
     42473 TIP3     3253     SWM4     H2       HDW      0.557330       1.00800           0   0.00000       0.00000    
     42474 TIP3     3254     SWM4     OH2      ODW       1.71640       15.5994           0 -0.978253       1.30000    
     42475 TIP3     3254     SWM4     DOH2     DOH2     -1.71640      0.400000           0   0.00000       0.00000    
     42476 TIP3     3254     SWM4     OM       LPDW     -1.11466       0.00000          -1   0.00000       0.00000    
     42477 TIP3     3254     SWM4     H1       HDW      0.557330       1.00800           0   0.00000       0.00000    
     42478 TIP3     3254     SWM4     H2       HDW      0.557330       1.00800           0   0.00000       0.00000    
     42479 TIP3     3255     SWM4     OH2      ODW       1.71640       15.5994           0 -0.978253       1.30000    
     42480 TIP3     3255     SWM4     DOH2     DOH2     -1.71640      0.400000           0   0.00000       0.00000    
     42481 TIP3     3255     SWM4     OM       LPDW     -1.11466       0.00000          -1   0.00000       0.00000    
     42482 TIP3     3255     SWM4     H1       HDW      0.557330       1.00800           0   0.00000       0.00000    
     42483 TIP3     3255     SWM4     H2       HDW      0.557330       1.00800           0   0.00000       0.00000    
     42484 TIP3     3256     SWM4     OH2      ODW       1.71640       15.5994           0 -0.978253       1.30000    
     42485 TIP3     3256     SWM4     DOH2     DOH2     -1.71640      0.400000           0   0.00000       0.00000    
     42486 TIP3     3256     SWM4     OM       LPDW     -1.11466       0.00000          -1   0.00000       0.00000    
     42487 TIP3     3256     SWM4     H1       HDW      0.557330       1.00800           0   0.00000       0.00000    
     42488 TIP3     3256     SWM4     H2       HDW      0.557330       1.00800           0   0.00000       0.00000    
     42489 TIP3     3257     SWM4     OH2      ODW       1.71640       15.5994           0 -0.978253       1.30000    
     42490 TIP3     3257     SWM4     DOH2     DOH2     -1.71640      0.400000           0   0.00000       0.00000    
     42491 TIP3     3257     SWM4     OM       LPDW     -1.11466       0.00000          -1   0.00000       0.00000    
     42492 TIP3     3257     SWM4     H1       HDW      0.557330       1.00800           0   0.00000       0.00000    
     42493 TIP3     3257     SWM4     H2       HDW      0.557330       1.00800           0   0.00000       0.00000    
     42494 TIP3     3258     SWM4     OH2      ODW       1.71640       15.5994           0 -0.978253       1.30000    
     42495 TIP3     3258     SWM4     DOH2     DOH2     -1.71640      0.400000           0   0.00000       0.00000    
     42496 TIP3     3258     SWM4     OM       LPDW     -1.11466       0.00000          -1   0.00000       0.00000    
     42497 TIP3     3258     SWM4     H1       HDW      0.557330       1.00800           0   0.00000       0.00000    
     42498 TIP3     3258     SWM4     H2       HDW      0.557330       1.00800           0   0.00000       0.00000    
     42499 TIP3     3259     SWM4     OH2      ODW       1.71640       15.5994           0 -0.978253       1.30000    
     42500 TIP3     3259     SWM4     DOH2     DOH2     -1.71640      0.400000           0   0.00000       0.00000    
     42501 TIP3     3259     SWM4     OM       LPDW     -1.11466       0.00000          -1   0.00000       0.00000    
     42502 TIP3     3259     SWM4     H1       HDW      0.557330       1.00800           0   0.00000       0.00000    
     42503 TIP3     3259     SWM4     H2       HDW      0.557330       1.00800           0   0.00000       0.00000    
     42504 TIP3     3260     SWM4     OH2      ODW       1.71640       15.5994           0 -0.978253       1.30000    
     42505 TIP3     3260     SWM4     DOH2     DOH2     -1.71640      0.400000           0   0.00000       0.00000    
     42506 TIP3     3260     SWM4     OM       LPDW     -1.11466       0.00000          -1   0.00000       0.00000    
     42507 TIP3     3260     SWM4     H1       HDW      0.557330       1.00800           0   0.00000       0.00000    
     42508 TIP3     3260     SWM4     H2       HDW      0.557330       1.00800           0   0.00000       0.00000    
     42509 TIP3     3261     SWM4     OH2      ODW       1.71640       15.5994           0 -0.978253       1.30000    
     42510 TIP3     3261     SWM4     DOH2     DOH2     -1.71640      0.400000           0   0.00000       0.00000    
     42511 TIP3     3261     SWM4     OM       LPDW     -1.11466       0.00000          -1   0.00000       0.00000    
     42512 TIP3     3261     SWM4     H1       HDW      0.557330       1.00800           0   0.00000       0.00000    
     42513 TIP3     3261     SWM4     H2       HDW      0.557330       1.00800           0   0.00000       0.00000    
     42514 TIP3     3262     SWM4     OH2      ODW       1.71640       15.5994           0 -0.978253       1.30000    
     42515 TIP3     3262     SWM4     DOH2     DOH2     -1.71640      0.400000           0   0.00000       0.00000    
     42516 TIP3     3262     SWM4     OM       LPDW     -1.11466       0.00000          -1   0.00000       0.00000    
     42517 TIP3     3262     SWM4     H1       HDW      0.557330       1.00800           0   0.00000       0.00000    
     42518 TIP3     3262     SWM4     H2       HDW      0.557330       1.00800           0   0.00000       0.00000    
     42519 TIP3     3263     SWM4     OH2      ODW       1.71640       15.5994           0 -0.978253       1.30000    
     42520 TIP3     3263     SWM4     DOH2     DOH2     -1.71640      0.400000           0   0.00000       0.00000    
     42521 TIP3     3263     SWM4     OM       LPDW     -1.11466       0.00000          -1   0.00000       0.00000    
     42522 TIP3     3263     SWM4     H1       HDW      0.557330       1.00800           0   0.00000       0.00000    
     42523 TIP3     3263     SWM4     H2       HDW      0.557330       1.00800           0   0.00000       0.00000    
     42524 TIP3     3264     SWM4     OH2      ODW       1.71640       15.5994           0 -0.978253       1.30000    
     42525 TIP3     3264     SWM4     DOH2     DOH2     -1.71640      0.400000           0   0.00000       0.00000    
     42526 TIP3     3264     SWM4     OM       LPDW     -1.11466       0.00000          -1   0.00000       0.00000    
     42527 TIP3     3264     SWM4     H1       HDW      0.557330       1.00800           0   0.00000       0.00000    
     42528 TIP3     3264     SWM4     H2       HDW      0.557330       1.00800           0   0.00000       0.00000    
     42529 TIP3     3265     SWM4     OH2      ODW       1.71640       15.5994           0 -0.978253       1.30000    
     42530 TIP3     3265     SWM4     DOH2     DOH2     -1.71640      0.400000           0   0.00000       0.00000    
     42531 TIP3     3265     SWM4     OM       LPDW     -1.11466       0.00000          -1   0.00000       0.00000    
     42532 TIP3     3265     SWM4     H1       HDW      0.557330       1.00800           0   0.00000       0.00000    
     42533 TIP3     3265     SWM4     H2       HDW      0.557330       1.00800           0   0.00000       0.00000    
     42534 TIP3     3266     SWM4     OH2      ODW       1.71640       15.5994           0 -0.978253       1.30000    
     42535 TIP3     3266     SWM4     DOH2     DOH2     -1.71640      0.400000           0   0.00000       0.00000    
     42536 TIP3     3266     SWM4     OM       LPDW     -1.11466       0.00000          -1   0.00000       0.00000    
     42537 TIP3     3266     SWM4     H1       HDW      0.557330       1.00800           0   0.00000       0.00000    
     42538 TIP3     3266     SWM4     H2       HDW      0.557330       1.00800           0   0.00000       0.00000    
     42539 TIP3     3267     SWM4     OH2      ODW       1.71640       15.5994           0 -0.978253       1.30000    
     42540 TIP3     3267     SWM4     DOH2     DOH2     -1.71640      0.400000           0   0.00000       0.00000    
     42541 TIP3     3267     SWM4     OM       LPDW     -1.11466       0.00000          -1   0.00000       0.00000    
     42542 TIP3     3267     SWM4     H1       HDW      0.557330       1.00800           0   0.00000       0.00000    
     42543 TIP3     3267     SWM4     H2       HDW      0.557330       1.00800           0   0.00000       0.00000    
     42544 TIP3     3268     SWM4     OH2      ODW       1.71640       15.5994           0 -0.978253       1.30000    
     42545 TIP3     3268     SWM4     DOH2     DOH2     -1.71640      0.400000           0   0.00000       0.00000    
     42546 TIP3     3268     SWM4     OM       LPDW     -1.11466       0.00000          -1   0.00000       0.00000    
     42547 TIP3     3268     SWM4     H1       HDW      0.557330       1.00800           0   0.00000       0.00000    
     42548 TIP3     3268     SWM4     H2       HDW      0.557330       1.00800           0   0.00000       0.00000    
     42549 TIP3     3269     SWM4     OH2      ODW       1.71640       15.5994           0 -0.978253       1.30000    
     42550 TIP3     3269     SWM4     DOH2     DOH2     -1.71640      0.400000           0   0.00000       0.00000    
     42551 TIP3     3269     SWM4     OM       LPDW     -1.11466       0.00000          -1   0.00000       0.00000    
     42552 TIP3     3269     SWM4     H1       HDW      0.557330       1.00800           0   0.00000       0.00000    
     42553 TIP3     3269     SWM4     H2       HDW      0.557330       1.00800           0   0.00000       0.00000    
     42554 TIP3     3270     SWM4     OH2      ODW       1.71640       15.5994           0 -0.978253       1.30000    
     42555 TIP3     3270     SWM4     DOH2     DOH2     -1.71640      0.400000           0   0.00000       0.00000    
     42556 TIP3     3270     SWM4     OM       LPDW     -1.11466       0.00000          -1   0.00000       0.00000    
     42557 TIP3     3270     SWM4     H1       HDW      0.557330       1.00800           0   0.00000       0.00000    
     42558 TIP3     3270     SWM4     H2       HDW      0.557330       1.00800           0   0.00000       0.00000    
     42559 TIP3     3271     SWM4     OH2      ODW       1.71640       15.5994           0 -0.978253       1.30000    
     42560 TIP3     3271     SWM4     DOH2     DOH2     -1.71640      0.400000           0   0.00000       0.00000    
     42561 TIP3     3271     SWM4     OM       LPDW     -1.11466       0.00000          -1   0.00000       0.00000    
     42562 TIP3     3271     SWM4     H1       HDW      0.557330       1.00800           0   0.00000       0.00000    
     42563 TIP3     3271     SWM4     H2       HDW      0.557330       1.00800           0   0.00000       0.00000    
     42564 TIP3     3272     SWM4     OH2      ODW       1.71640       15.5994           0 -0.978253       1.30000    
     42565 TIP3     3272     SWM4     DOH2     DOH2     -1.71640      0.400000           0   0.00000       0.00000    
     42566 TIP3     3272     SWM4     OM       LPDW     -1.11466       0.00000          -1   0.00000       0.00000    
     42567 TIP3     3272     SWM4     H1       HDW      0.557330       1.00800           0   0.00000       0.00000    
     42568 TIP3     3272     SWM4     H2       HDW      0.557330       1.00800           0   0.00000       0.00000    
     42569 TIP3     3273     SWM4     OH2      ODW       1.71640       15.5994           0 -0.978253       1.30000    
     42570 TIP3     3273     SWM4     DOH2     DOH2     -1.71640      0.400000           0   0.00000       0.00000    
     42571 TIP3     3273     SWM4     OM       LPDW     -1.11466       0.00000          -1   0.00000       0.00000    
     42572 TIP3     3273     SWM4     H1       HDW      0.557330       1.00800           0   0.00000       0.00000    
     42573 TIP3     3273     SWM4     H2       HDW      0.557330       1.00800           0   0.00000       0.00000    
     42574 TIP3     3274     SWM4     OH2      ODW       1.71640       15.5994           0 -0.978253       1.30000    
     42575 TIP3     3274     SWM4     DOH2     DOH2     -1.71640      0.400000           0   0.00000       0.00000    
     42576 TIP3     3274     SWM4     OM       LPDW     -1.11466       0.00000          -1   0.00000       0.00000    
     42577 TIP3     3274     SWM4     H1       HDW      0.557330       1.00800           0   0.00000       0.00000    
     42578 TIP3     3274     SWM4     H2       HDW      0.557330       1.00800           0   0.00000       0.00000    
     42579 TIP3     3275     SWM4     OH2      ODW       1.71640       15.5994           0 -0.978253       1.30000    
     42580 TIP3     3275     SWM4     DOH2     DOH2     -1.71640      0.400000           0   0.00000       0.00000    
     42581 TIP3     3275     SWM4     OM       LPDW     -1.11466       0.00000          -1   0.00000       0.00000    
     42582 TIP3     3275     SWM4     H1       HDW      0.557330       1.00800           0   0.00000       0.00000    
     42583 TIP3     3275     SWM4     H2       HDW      0.557330       1.00800           0   0.00000       0.00000    
     42584 TIP3     3276     SWM4     OH2      ODW       1.71640       15.5994           0 -0.978253       1.30000    
     42585 TIP3     3276     SWM4     DOH2     DOH2     -1.71640      0.400000           0   0.00000       0.00000    
     42586 TIP3     3276     SWM4     OM       LPDW     -1.11466       0.00000          -1   0.00000       0.00000    
     42587 TIP3     3276     SWM4     H1       HDW      0.557330       1.00800           0   0.00000       0.00000    
     42588 TIP3     3276     SWM4     H2       HDW      0.557330       1.00800           0   0.00000       0.00000    
     42589 TIP3     3277     SWM4     OH2      ODW       1.71640       15.5994           0 -0.978253       1.30000    
     42590 TIP3     3277     SWM4     DOH2     DOH2     -1.71640      0.400000           0   0.00000       0.00000    
     42591 TIP3     3277     SWM4     OM       LPDW     -1.11466       0.00000          -1   0.00000       0.00000    
     42592 TIP3     3277     SWM4     H1       HDW      0.557330       1.00800           0   0.00000       0.00000    
     42593 TIP3     3277     SWM4     H2       HDW      0.557330       1.00800           0   0.00000       0.00000    
     42594 TIP3     3278     SWM4     OH2      ODW       1.71640       15.5994           0 -0.978253       1.30000    
     42595 TIP3     3278     SWM4     DOH2     DOH2     -1.71640      0.400000           0   0.00000       0.00000    
     42596 TIP3     3278     SWM4     OM       LPDW     -1.11466       0.00000          -1   0.00000       0.00000    
     42597 TIP3     3278     SWM4     H1       HDW      0.557330       1.00800           0   0.00000       0.00000    
     42598 TIP3     3278     SWM4     H2       HDW      0.557330       1.00800           0   0.00000       0.00000    
     42599 TIP3     3279     SWM4     OH2      ODW       1.71640       15.5994           0 -0.978253       1.30000    
     42600 TIP3     3279     SWM4     DOH2     DOH2     -1.71640      0.400000           0   0.00000       0.00000    
     42601 TIP3     3279     SWM4     OM       LPDW     -1.11466       0.00000          -1   0.00000       0.00000    
     42602 TIP3     3279     SWM4     H1       HDW      0.557330       1.00800           0   0.00000       0.00000    
     42603 TIP3     3279     SWM4     H2       HDW      0.557330       1.00800           0   0.00000       0.00000    
     42604 TIP3     3280     SWM4     OH2      ODW       1.71640       15.5994           0 -0.978253       1.30000    
     42605 TIP3     3280     SWM4     DOH2     DOH2     -1.71640      0.400000           0   0.00000       0.00000    
     42606 TIP3     3280     SWM4     OM       LPDW     -1.11466       0.00000          -1   0.00000       0.00000    
     42607 TIP3     3280     SWM4     H1       HDW      0.557330       1.00800           0   0.00000       0.00000    
     42608 TIP3     3280     SWM4     H2       HDW      0.557330       1.00800           0   0.00000       0.00000    
     42609 TIP3     3281     SWM4     OH2      ODW       1.71640       15.5994           0 -0.978253       1.30000    
     42610 TIP3     3281     SWM4     DOH2     DOH2     -1.71640      0.400000           0   0.00000       0.00000    
     42611 TIP3     3281     SWM4     OM       LPDW     -1.11466       0.00000          -1   0.00000       0.00000    
     42612 TIP3     3281     SWM4     H1       HDW      0.557330       1.00800           0   0.00000       0.00000    
     42613 TIP3     3281     SWM4     H2       HDW      0.557330       1.00800           0   0.00000       0.00000    
     42614 TIP3     3282     SWM4     OH2      ODW       1.71640       15.5994           0 -0.978253       1.30000    
     42615 TIP3     3282     SWM4     DOH2     DOH2     -1.71640      0.400000           0   0.00000       0.00000    
     42616 TIP3     3282     SWM4     OM       LPDW     -1.11466       0.00000          -1   0.00000       0.00000    
     42617 TIP3     3282     SWM4     H1       HDW      0.557330       1.00800           0   0.00000       0.00000    
     42618 TIP3     3282     SWM4     H2       HDW      0.557330       1.00800           0   0.00000       0.00000    
     42619 TIP3     3283     SWM4     OH2      ODW       1.71640       15.5994           0 -0.978253       1.30000    
     42620 TIP3     3283     SWM4     DOH2     DOH2     -1.71640      0.400000           0   0.00000       0.00000    
     42621 TIP3     3283     SWM4     OM       LPDW     -1.11466       0.00000          -1   0.00000       0.00000    
     42622 TIP3     3283     SWM4     H1       HDW      0.557330       1.00800           0   0.00000       0.00000    
     42623 TIP3     3283     SWM4     H2       HDW      0.557330       1.00800           0   0.00000       0.00000    
     42624 TIP3     3284     SWM4     OH2      ODW       1.71640       15.5994           0 -0.978253       1.30000    
     42625 TIP3     3284     SWM4     DOH2     DOH2     -1.71640      0.400000           0   0.00000       0.00000    
     42626 TIP3     3284     SWM4     OM       LPDW     -1.11466       0.00000          -1   0.00000       0.00000    
     42627 TIP3     3284     SWM4     H1       HDW      0.557330       1.00800           0   0.00000       0.00000    
     42628 TIP3     3284     SWM4     H2       HDW      0.557330       1.00800           0   0.00000       0.00000    
     42629 TIP3     3285     SWM4     OH2      ODW       1.71640       15.5994           0 -0.978253       1.30000    
     42630 TIP3     3285     SWM4     DOH2     DOH2     -1.71640      0.400000           0   0.00000       0.00000    
     42631 TIP3     3285     SWM4     OM       LPDW     -1.11466       0.00000          -1   0.00000       0.00000    
     42632 TIP3     3285     SWM4     H1       HDW      0.557330       1.00800           0   0.00000       0.00000    
     42633 TIP3     3285     SWM4     H2       HDW      0.557330       1.00800           0   0.00000       0.00000    
     42634 TIP3     3286     SWM4     OH2      ODW       1.71640       15.5994           0 -0.978253       1.30000    
     42635 TIP3     3286     SWM4     DOH2     DOH2     -1.71640      0.400000           0   0.00000       0.00000    
     42636 TIP3     3286     SWM4     OM       LPDW     -1.11466       0.00000          -1   0.00000       0.00000    
     42637 TIP3     3286     SWM4     H1       HDW      0.557330       1.00800           0   0.00000       0.00000    
     42638 TIP3     3286     SWM4     H2       HDW      0.557330       1.00800           0   0.00000       0.00000    
     42639 TIP3     3287     SWM4     OH2      ODW       1.71640       15.5994           0 -0.978253       1.30000    
     42640 TIP3     3287     SWM4     DOH2     DOH2     -1.71640      0.400000           0   0.00000       0.00000    
     42641 TIP3     3287     SWM4     OM       LPDW     -1.11466       0.00000          -1   0.00000       0.00000    
     42642 TIP3     3287     SWM4     H1       HDW      0.557330       1.00800           0   0.00000       0.00000    
     42643 TIP3     3287     SWM4     H2       HDW      0.557330       1.00800           0   0.00000       0.00000    
     42644 TIP3     3288     SWM4     OH2      ODW       1.71640       15.5994           0 -0.978253       1.30000    
     42645 TIP3     3288     SWM4     DOH2     DOH2     -1.71640      0.400000           0   0.00000       0.00000    
     42646 TIP3     3288     SWM4     OM       LPDW     -1.11466       0.00000          -1   0.00000       0.00000    
     42647 TIP3     3288     SWM4     H1       HDW      0.557330       1.00800           0   0.00000       0.00000    
     42648 TIP3     3288     SWM4     H2       HDW      0.557330       1.00800           0   0.00000       0.00000    
     42649 TIP3     3289     SWM4     OH2      ODW       1.71640       15.5994           0 -0.978253       1.30000    
     42650 TIP3     3289     SWM4     DOH2     DOH2     -1.71640      0.400000           0   0.00000       0.00000    
     42651 TIP3     3289     SWM4     OM       LPDW     -1.11466       0.00000          -1   0.00000       0.00000    
     42652 TIP3     3289     SWM4     H1       HDW      0.557330       1.00800           0   0.00000       0.00000    
     42653 TIP3     3289     SWM4     H2       HDW      0.557330       1.00800           0   0.00000       0.00000    
     42654 TIP3     3290     SWM4     OH2      ODW       1.71640       15.5994           0 -0.978253       1.30000    
     42655 TIP3     3290     SWM4     DOH2     DOH2     -1.71640      0.400000           0   0.00000       0.00000    
     42656 TIP3     3290     SWM4     OM       LPDW     -1.11466       0.00000          -1   0.00000       0.00000    
     42657 TIP3     3290     SWM4     H1       HDW      0.557330       1.00800           0   0.00000       0.00000    
     42658 TIP3     3290     SWM4     H2       HDW      0.557330       1.00800           0   0.00000       0.00000    
     42659 TIP3     3291     SWM4     OH2      ODW       1.71640       15.5994           0 -0.978253       1.30000    
     42660 TIP3     3291     SWM4     DOH2     DOH2     -1.71640      0.400000           0   0.00000       0.00000    
     42661 TIP3     3291     SWM4     OM       LPDW     -1.11466       0.00000          -1   0.00000       0.00000    
     42662 TIP3     3291     SWM4     H1       HDW      0.557330       1.00800           0   0.00000       0.00000    
     42663 TIP3     3291     SWM4     H2       HDW      0.557330       1.00800           0   0.00000       0.00000    
     42664 TIP3     3292     SWM4     OH2      ODW       1.71640       15.5994           0 -0.978253       1.30000    
     42665 TIP3     3292     SWM4     DOH2     DOH2     -1.71640      0.400000           0   0.00000       0.00000    
     42666 TIP3     3292     SWM4     OM       LPDW     -1.11466       0.00000          -1   0.00000       0.00000    
     42667 TIP3     3292     SWM4     H1       HDW      0.557330       1.00800           0   0.00000       0.00000    
     42668 TIP3     3292     SWM4     H2       HDW      0.557330       1.00800           0   0.00000       0.00000    
     42669 TIP3     3293     SWM4     OH2      ODW       1.71640       15.5994           0 -0.978253       1.30000    
     42670 TIP3     3293     SWM4     DOH2     DOH2     -1.71640      0.400000           0   0.00000       0.00000    
     42671 TIP3     3293     SWM4     OM       LPDW     -1.11466       0.00000          -1   0.00000       0.00000    
     42672 TIP3     3293     SWM4     H1       HDW      0.557330       1.00800           0   0.00000       0.00000    
     42673 TIP3     3293     SWM4     H2       HDW      0.557330       1.00800           0   0.00000       0.00000    
     42674 TIP3     3294     SWM4     OH2      ODW       1.71640       15.5994           0 -0.978253       1.30000    
     42675 TIP3     3294     SWM4     DOH2     DOH2     -1.71640      0.400000           0   0.00000       0.00000    
     42676 TIP3     3294     SWM4     OM       LPDW     -1.11466       0.00000          -1   0.00000       0.00000    
     42677 TIP3     3294     SWM4     H1       HDW      0.557330       1.00800           0   0.00000       0.00000    
     42678 TIP3     3294     SWM4     H2       HDW      0.557330       1.00800           0   0.00000       0.00000    
     42679 TIP3     3295     SWM4     OH2      ODW       1.71640       15.5994           0 -0.978253       1.30000    
     42680 TIP3     3295     SWM4     DOH2     DOH2     -1.71640      0.400000           0   0.00000       0.00000    
     42681 TIP3     3295     SWM4     OM       LPDW     -1.11466       0.00000          -1   0.00000       0.00000    
     42682 TIP3     3295     SWM4     H1       HDW      0.557330       1.00800           0   0.00000       0.00000    
     42683 TIP3     3295     SWM4     H2       HDW      0.557330       1.00800           0   0.00000       0.00000    
     42684 TIP3     3296     SWM4     OH2      ODW       1.71640       15.5994           0 -0.978253       1.30000    
     42685 TIP3     3296     SWM4     DOH2     DOH2     -1.71640      0.400000           0   0.00000       0.00000    
     42686 TIP3     3296     SWM4     OM       LPDW     -1.11466       0.00000          -1   0.00000       0.00000    
     42687 TIP3     3296     SWM4     H1       HDW      0.557330       1.00800           0   0.00000       0.00000    
     42688 TIP3     3296     SWM4     H2       HDW      0.557330       1.00800           0   0.00000       0.00000    
     42689 TIP3     3297     SWM4     OH2      ODW       1.71640       15.5994           0 -0.978253       1.30000    
     42690 TIP3     3297     SWM4     DOH2     DOH2     -1.71640      0.400000           0   0.00000       0.00000    
     42691 TIP3     3297     SWM4     OM       LPDW     -1.11466       0.00000          -1   0.00000       0.00000    
     42692 TIP3     3297     SWM4     H1       HDW      0.557330       1.00800           0   0.00000       0.00000    
     42693 TIP3     3297     SWM4     H2       HDW      0.557330       1.00800           0   0.00000       0.00000    
     42694 TIP3     3298     SWM4     OH2      ODW       1.71640       15.5994           0 -0.978253       1.30000    
     42695 TIP3     3298     SWM4     DOH2     DOH2     -1.71640      0.400000           0   0.00000       0.00000    
     42696 TIP3     3298     SWM4     OM       LPDW     -1.11466       0.00000          -1   0.00000       0.00000    
     42697 TIP3     3298     SWM4     H1       HDW      0.557330       1.00800           0   0.00000       0.00000    
     42698 TIP3     3298     SWM4     H2       HDW      0.557330       1.00800           0   0.00000       0.00000    
     42699 TIP3     3299     SWM4     OH2      ODW       1.71640       15.5994           0 -0.978253       1.30000    
     42700 TIP3     3299     SWM4     DOH2     DOH2     -1.71640      0.400000           0   0.00000       0.00000    
     42701 TIP3     3299     SWM4     OM       LPDW     -1.11466       0.00000          -1   0.00000       0.00000    
     42702 TIP3     3299     SWM4     H1       HDW      0.557330       1.00800           0   0.00000       0.00000    
     42703 TIP3     3299     SWM4     H2       HDW      0.557330       1.00800           0   0.00000       0.00000    
     42704 TIP3     3300     SWM4     OH2      ODW       1.71640       15.5994           0 -0.978253       1.30000    
     42705 TIP3     3300     SWM4     DOH2     DOH2     -1.71640      0.400000           0   0.00000       0.00000    
     42706 TIP3     3300     SWM4     OM       LPDW     -1.11466       0.00000          -1   0.00000       0.00000    
     42707 TIP3     3300     SWM4     H1       HDW      0.557330       1.00800           0   0.00000       0.00000    
     42708 TIP3     3300     SWM4     H2       HDW      0.557330       1.00800           0   0.00000       0.00000    
     42709 TIP3     3301     SWM4     OH2      ODW       1.71640       15.5994           0 -0.978253       1.30000    
     42710 TIP3     3301     SWM4     DOH2     DOH2     -1.71640      0.400000           0   0.00000       0.00000    
     42711 TIP3     3301     SWM4     OM       LPDW     -1.11466       0.00000          -1   0.00000       0.00000    
     42712 TIP3     3301     SWM4     H1       HDW      0.557330       1.00800           0   0.00000       0.00000    
     42713 TIP3     3301     SWM4     H2       HDW      0.557330       1.00800           0   0.00000       0.00000    
     42714 TIP3     3302     SWM4     OH2      ODW       1.71640       15.5994           0 -0.978253       1.30000    
     42715 TIP3     3302     SWM4     DOH2     DOH2     -1.71640      0.400000           0   0.00000       0.00000    
     42716 TIP3     3302     SWM4     OM       LPDW     -1.11466       0.00000          -1   0.00000       0.00000    
     42717 TIP3     3302     SWM4     H1       HDW      0.557330       1.00800           0   0.00000       0.00000    
     42718 TIP3     3302     SWM4     H2       HDW      0.557330       1.00800           0   0.00000       0.00000    
     42719 TIP3     3303     SWM4     OH2      ODW       1.71640       15.5994           0 -0.978253       1.30000    
     42720 TIP3     3303     SWM4     DOH2     DOH2     -1.71640      0.400000           0   0.00000       0.00000    
     42721 TIP3     3303     SWM4     OM       LPDW     -1.11466       0.00000          -1   0.00000       0.00000    
     42722 TIP3     3303     SWM4     H1       HDW      0.557330       1.00800           0   0.00000       0.00000    
     42723 TIP3     3303     SWM4     H2       HDW      0.557330       1.00800           0   0.00000       0.00000    
     42724 TIP3     3304     SWM4     OH2      ODW       1.71640       15.5994           0 -0.978253       1.30000    
     42725 TIP3     3304     SWM4     DOH2     DOH2     -1.71640      0.400000           0   0.00000       0.00000    
     42726 TIP3     3304     SWM4     OM       LPDW     -1.11466       0.00000          -1   0.00000       0.00000    
     42727 TIP3     3304     SWM4     H1       HDW      0.557330       1.00800           0   0.00000       0.00000    
     42728 TIP3     3304     SWM4     H2       HDW      0.557330       1.00800           0   0.00000       0.00000    
     42729 TIP3     3305     SWM4     OH2      ODW       1.71640       15.5994           0 -0.978253       1.30000    
     42730 TIP3     3305     SWM4     DOH2     DOH2     -1.71640      0.400000           0   0.00000       0.00000    
     42731 TIP3     3305     SWM4     OM       LPDW     -1.11466       0.00000          -1   0.00000       0.00000    
     42732 TIP3     3305     SWM4     H1       HDW      0.557330       1.00800           0   0.00000       0.00000    
     42733 TIP3     3305     SWM4     H2       HDW      0.557330       1.00800           0   0.00000       0.00000    
     42734 TIP3     3306     SWM4     OH2      ODW       1.71640       15.5994           0 -0.978253       1.30000    
     42735 TIP3     3306     SWM4     DOH2     DOH2     -1.71640      0.400000           0   0.00000       0.00000    
     42736 TIP3     3306     SWM4     OM       LPDW     -1.11466       0.00000          -1   0.00000       0.00000    
     42737 TIP3     3306     SWM4     H1       HDW      0.557330       1.00800           0   0.00000       0.00000    
     42738 TIP3     3306     SWM4     H2       HDW      0.557330       1.00800           0   0.00000       0.00000    
     42739 TIP3     3307     SWM4     OH2      ODW       1.71640       15.5994           0 -0.978253       1.30000    
     42740 TIP3     3307     SWM4     DOH2     DOH2     -1.71640      0.400000           0   0.00000       0.00000    
     42741 TIP3     3307     SWM4     OM       LPDW     -1.11466       0.00000          -1   0.00000       0.00000    
     42742 TIP3     3307     SWM4     H1       HDW      0.557330       1.00800           0   0.00000       0.00000    
     42743 TIP3     3307     SWM4     H2       HDW      0.557330       1.00800           0   0.00000       0.00000    
     42744 TIP3     3308     SWM4     OH2      ODW       1.71640       15.5994           0 -0.978253       1.30000    
     42745 TIP3     3308     SWM4     DOH2     DOH2     -1.71640      0.400000           0   0.00000       0.00000    
     42746 TIP3     3308     SWM4     OM       LPDW     -1.11466       0.00000          -1   0.00000       0.00000    
     42747 TIP3     3308     SWM4     H1       HDW      0.557330       1.00800           0   0.00000       0.00000    
     42748 TIP3     3308     SWM4     H2       HDW      0.557330       1.00800           0   0.00000       0.00000    
     42749 TIP3     3309     SWM4     OH2      ODW       1.71640       15.5994           0 -0.978253       1.30000    
     42750 TIP3     3309     SWM4     DOH2     DOH2     -1.71640      0.400000           0   0.00000       0.00000    
     42751 TIP3     3309     SWM4     OM       LPDW     -1.11466       0.00000          -1   0.00000       0.00000    
     42752 TIP3     3309     SWM4     H1       HDW      0.557330       1.00800           0   0.00000       0.00000    
     42753 TIP3     3309     SWM4     H2       HDW      0.557330       1.00800           0   0.00000       0.00000    
     42754 TIP3     3310     SWM4     OH2      ODW       1.71640       15.5994           0 -0.978253       1.30000    
     42755 TIP3     3310     SWM4     DOH2     DOH2     -1.71640      0.400000           0   0.00000       0.00000    
     42756 TIP3     3310     SWM4     OM       LPDW     -1.11466       0.00000          -1   0.00000       0.00000    
     42757 TIP3     3310     SWM4     H1       HDW      0.557330       1.00800           0   0.00000       0.00000    
     42758 TIP3     3310     SWM4     H2       HDW      0.557330       1.00800           0   0.00000       0.00000    
     42759 TIP3     3311     SWM4     OH2      ODW       1.71640       15.5994           0 -0.978253       1.30000    
     42760 TIP3     3311     SWM4     DOH2     DOH2     -1.71640      0.400000           0   0.00000       0.00000    
     42761 TIP3     3311     SWM4     OM       LPDW     -1.11466       0.00000          -1   0.00000       0.00000    
     42762 TIP3     3311     SWM4     H1       HDW      0.557330       1.00800           0   0.00000       0.00000    
     42763 TIP3     3311     SWM4     H2       HDW      0.557330       1.00800           0   0.00000       0.00000    
     42764 TIP3     3312     SWM4     OH2      ODW       1.71640       15.5994           0 -0.978253       1.30000    
     42765 TIP3     3312     SWM4     DOH2     DOH2     -1.71640      0.400000           0   0.00000       0.00000    
     42766 TIP3     3312     SWM4     OM       LPDW     -1.11466       0.00000          -1   0.00000       0.00000    
     42767 TIP3     3312     SWM4     H1       HDW      0.557330       1.00800           0   0.00000       0.00000    
     42768 TIP3     3312     SWM4     H2       HDW      0.557330       1.00800           0   0.00000       0.00000    
     42769 TIP3     3313     SWM4     OH2      ODW       1.71640       15.5994           0 -0.978253       1.30000    
     42770 TIP3     3313     SWM4     DOH2     DOH2     -1.71640      0.400000           0   0.00000       0.00000    
     42771 TIP3     3313     SWM4     OM       LPDW     -1.11466       0.00000          -1   0.00000       0.00000    
     42772 TIP3     3313     SWM4     H1       HDW      0.557330       1.00800           0   0.00000       0.00000    
     42773 TIP3     3313     SWM4     H2       HDW      0.557330       1.00800           0   0.00000       0.00000    
     42774 TIP3     3314     SWM4     OH2      ODW       1.71640       15.5994           0 -0.978253       1.30000    
     42775 TIP3     3314     SWM4     DOH2     DOH2     -1.71640      0.400000           0   0.00000       0.00000    
     42776 TIP3     3314     SWM4     OM       LPDW     -1.11466       0.00000          -1   0.00000       0.00000    
     42777 TIP3     3314     SWM4     H1       HDW      0.557330       1.00800           0   0.00000       0.00000    
     42778 TIP3     3314     SWM4     H2       HDW      0.557330       1.00800           0   0.00000       0.00000    
     42779 TIP3     3315     SWM4     OH2      ODW       1.71640       15.5994           0 -0.978253       1.30000    
     42780 TIP3     3315     SWM4     DOH2     DOH2     -1.71640      0.400000           0   0.00000       0.00000    
     42781 TIP3     3315     SWM4     OM       LPDW     -1.11466       0.00000          -1   0.00000       0.00000    
     42782 TIP3     3315     SWM4     H1       HDW      0.557330       1.00800           0   0.00000       0.00000    
     42783 TIP3     3315     SWM4     H2       HDW      0.557330       1.00800           0   0.00000       0.00000    
     42784 TIP3     3316     SWM4     OH2      ODW       1.71640       15.5994           0 -0.978253       1.30000    
     42785 TIP3     3316     SWM4     DOH2     DOH2     -1.71640      0.400000           0   0.00000       0.00000    
     42786 TIP3     3316     SWM4     OM       LPDW     -1.11466       0.00000          -1   0.00000       0.00000    
     42787 TIP3     3316     SWM4     H1       HDW      0.557330       1.00800           0   0.00000       0.00000    
     42788 TIP3     3316     SWM4     H2       HDW      0.557330       1.00800           0   0.00000       0.00000    
     42789 TIP3     3317     SWM4     OH2      ODW       1.71640       15.5994           0 -0.978253       1.30000    
     42790 TIP3     3317     SWM4     DOH2     DOH2     -1.71640      0.400000           0   0.00000       0.00000    
     42791 TIP3     3317     SWM4     OM       LPDW     -1.11466       0.00000          -1   0.00000       0.00000    
     42792 TIP3     3317     SWM4     H1       HDW      0.557330       1.00800           0   0.00000       0.00000    
     42793 TIP3     3317     SWM4     H2       HDW      0.557330       1.00800           0   0.00000       0.00000    
     42794 TIP3     3318     SWM4     OH2      ODW       1.71640       15.5994           0 -0.978253       1.30000    
     42795 TIP3     3318     SWM4     DOH2     DOH2     -1.71640      0.400000           0   0.00000       0.00000    
     42796 TIP3     3318     SWM4     OM       LPDW     -1.11466       0.00000          -1   0.00000       0.00000    
     42797 TIP3     3318     SWM4     H1       HDW      0.557330       1.00800           0   0.00000       0.00000    
     42798 TIP3     3318     SWM4     H2       HDW      0.557330       1.00800           0   0.00000       0.00000    
     42799 TIP3     3319     SWM4     OH2      ODW       1.71640       15.5994           0 -0.978253       1.30000    
     42800 TIP3     3319     SWM4     DOH2     DOH2     -1.71640      0.400000           0   0.00000       0.00000    
     42801 TIP3     3319     SWM4     OM       LPDW     -1.11466       0.00000          -1   0.00000       0.00000    
     42802 TIP3     3319     SWM4     H1       HDW      0.557330       1.00800           0   0.00000       0.00000    
     42803 TIP3     3319     SWM4     H2       HDW      0.557330       1.00800           0   0.00000       0.00000    
     42804 TIP3     3320     SWM4     OH2      ODW       1.71640       15.5994           0 -0.978253       1.30000    
     42805 TIP3     3320     SWM4     DOH2     DOH2     -1.71640      0.400000           0   0.00000       0.00000    
     42806 TIP3     3320     SWM4     OM       LPDW     -1.11466       0.00000          -1   0.00000       0.00000    
     42807 TIP3     3320     SWM4     H1       HDW      0.557330       1.00800           0   0.00000       0.00000    
     42808 TIP3     3320     SWM4     H2       HDW      0.557330       1.00800           0   0.00000       0.00000    
     42809 TIP3     3321     SWM4     OH2      ODW       1.71640       15.5994           0 -0.978253       1.30000    
     42810 TIP3     3321     SWM4     DOH2     DOH2     -1.71640      0.400000           0   0.00000       0.00000    
     42811 TIP3     3321     SWM4     OM       LPDW     -1.11466       0.00000          -1   0.00000       0.00000    
     42812 TIP3     3321     SWM4     H1       HDW      0.557330       1.00800           0   0.00000       0.00000    
     42813 TIP3     3321     SWM4     H2       HDW      0.557330       1.00800           0   0.00000       0.00000    
     42814 TIP3     3322     SWM4     OH2      ODW       1.71640       15.5994           0 -0.978253       1.30000    
     42815 TIP3     3322     SWM4     DOH2     DOH2     -1.71640      0.400000           0   0.00000       0.00000    
     42816 TIP3     3322     SWM4     OM       LPDW     -1.11466       0.00000          -1   0.00000       0.00000    
     42817 TIP3     3322     SWM4     H1       HDW      0.557330       1.00800           0   0.00000       0.00000    
     42818 TIP3     3322     SWM4     H2       HDW      0.557330       1.00800           0   0.00000       0.00000    
     42819 TIP3     3323     SWM4     OH2      ODW       1.71640       15.5994           0 -0.978253       1.30000    
     42820 TIP3     3323     SWM4     DOH2     DOH2     -1.71640      0.400000           0   0.00000       0.00000    
     42821 TIP3     3323     SWM4     OM       LPDW     -1.11466       0.00000          -1   0.00000       0.00000    
     42822 TIP3     3323     SWM4     H1       HDW      0.557330       1.00800           0   0.00000       0.00000    
     42823 TIP3     3323     SWM4     H2       HDW      0.557330       1.00800           0   0.00000       0.00000    
     42824 TIP3     3324     SWM4     OH2      ODW       1.71640       15.5994           0 -0.978253       1.30000    
     42825 TIP3     3324     SWM4     DOH2     DOH2     -1.71640      0.400000           0   0.00000       0.00000    
     42826 TIP3     3324     SWM4     OM       LPDW     -1.11466       0.00000          -1   0.00000       0.00000    
     42827 TIP3     3324     SWM4     H1       HDW      0.557330       1.00800           0   0.00000       0.00000    
     42828 TIP3     3324     SWM4     H2       HDW      0.557330       1.00800           0   0.00000       0.00000    
     42829 TIP3     3325     SWM4     OH2      ODW       1.71640       15.5994           0 -0.978253       1.30000    
     42830 TIP3     3325     SWM4     DOH2     DOH2     -1.71640      0.400000           0   0.00000       0.00000    
     42831 TIP3     3325     SWM4     OM       LPDW     -1.11466       0.00000          -1   0.00000       0.00000    
     42832 TIP3     3325     SWM4     H1       HDW      0.557330       1.00800           0   0.00000       0.00000    
     42833 TIP3     3325     SWM4     H2       HDW      0.557330       1.00800           0   0.00000       0.00000    
     42834 TIP3     3326     SWM4     OH2      ODW       1.71640       15.5994           0 -0.978253       1.30000    
     42835 TIP3     3326     SWM4     DOH2     DOH2     -1.71640      0.400000           0   0.00000       0.00000    
     42836 TIP3     3326     SWM4     OM       LPDW     -1.11466       0.00000          -1   0.00000       0.00000    
     42837 TIP3     3326     SWM4     H1       HDW      0.557330       1.00800           0   0.00000       0.00000    
     42838 TIP3     3326     SWM4     H2       HDW      0.557330       1.00800           0   0.00000       0.00000    
     42839 TIP3     3327     SWM4     OH2      ODW       1.71640       15.5994           0 -0.978253       1.30000    
     42840 TIP3     3327     SWM4     DOH2     DOH2     -1.71640      0.400000           0   0.00000       0.00000    
     42841 TIP3     3327     SWM4     OM       LPDW     -1.11466       0.00000          -1   0.00000       0.00000    
     42842 TIP3     3327     SWM4     H1       HDW      0.557330       1.00800           0   0.00000       0.00000    
     42843 TIP3     3327     SWM4     H2       HDW      0.557330       1.00800           0   0.00000       0.00000    
     42844 TIP3     3328     SWM4     OH2      ODW       1.71640       15.5994           0 -0.978253       1.30000    
     42845 TIP3     3328     SWM4     DOH2     DOH2     -1.71640      0.400000           0   0.00000       0.00000    
     42846 TIP3     3328     SWM4     OM       LPDW     -1.11466       0.00000          -1   0.00000       0.00000    
     42847 TIP3     3328     SWM4     H1       HDW      0.557330       1.00800           0   0.00000       0.00000    
     42848 TIP3     3328     SWM4     H2       HDW      0.557330       1.00800           0   0.00000       0.00000    
     42849 TIP3     3329     SWM4     OH2      ODW       1.71640       15.5994           0 -0.978253       1.30000    
     42850 TIP3     3329     SWM4     DOH2     DOH2     -1.71640      0.400000           0   0.00000       0.00000    
     42851 TIP3     3329     SWM4     OM       LPDW     -1.11466       0.00000          -1   0.00000       0.00000    
     42852 TIP3     3329     SWM4     H1       HDW      0.557330       1.00800           0   0.00000       0.00000    
     42853 TIP3     3329     SWM4     H2       HDW      0.557330       1.00800           0   0.00000       0.00000    
     42854 TIP3     3330     SWM4     OH2      ODW       1.71640       15.5994           0 -0.978253       1.30000    
     42855 TIP3     3330     SWM4     DOH2     DOH2     -1.71640      0.400000           0   0.00000       0.00000    
     42856 TIP3     3330     SWM4     OM       LPDW     -1.11466       0.00000          -1   0.00000       0.00000    
     42857 TIP3     3330     SWM4     H1       HDW      0.557330       1.00800           0   0.00000       0.00000    
     42858 TIP3     3330     SWM4     H2       HDW      0.557330       1.00800           0   0.00000       0.00000    
     42859 TIP3     3331     SWM4     OH2      ODW       1.71640       15.5994           0 -0.978253       1.30000    
     42860 TIP3     3331     SWM4     DOH2     DOH2     -1.71640      0.400000           0   0.00000       0.00000    
     42861 TIP3     3331     SWM4     OM       LPDW     -1.11466       0.00000          -1   0.00000       0.00000    
     42862 TIP3     3331     SWM4     H1       HDW      0.557330       1.00800           0   0.00000       0.00000    
     42863 TIP3     3331     SWM4     H2       HDW      0.557330       1.00800           0   0.00000       0.00000    
     42864 TIP3     3332     SWM4     OH2      ODW       1.71640       15.5994           0 -0.978253       1.30000    
     42865 TIP3     3332     SWM4     DOH2     DOH2     -1.71640      0.400000           0   0.00000       0.00000    
     42866 TIP3     3332     SWM4     OM       LPDW     -1.11466       0.00000          -1   0.00000       0.00000    
     42867 TIP3     3332     SWM4     H1       HDW      0.557330       1.00800           0   0.00000       0.00000    
     42868 TIP3     3332     SWM4     H2       HDW      0.557330       1.00800           0   0.00000       0.00000    
     42869 TIP3     3333     SWM4     OH2      ODW       1.71640       15.5994           0 -0.978253       1.30000    
     42870 TIP3     3333     SWM4     DOH2     DOH2     -1.71640      0.400000           0   0.00000       0.00000    
     42871 TIP3     3333     SWM4     OM       LPDW     -1.11466       0.00000          -1   0.00000       0.00000    
     42872 TIP3     3333     SWM4     H1       HDW      0.557330       1.00800           0   0.00000       0.00000    
     42873 TIP3     3333     SWM4     H2       HDW      0.557330       1.00800           0   0.00000       0.00000    
     42874 TIP3     3334     SWM4     OH2      ODW       1.71640       15.5994           0 -0.978253       1.30000    
     42875 TIP3     3334     SWM4     DOH2     DOH2     -1.71640      0.400000           0   0.00000       0.00000    
     42876 TIP3     3334     SWM4     OM       LPDW     -1.11466       0.00000          -1   0.00000       0.00000    
     42877 TIP3     3334     SWM4     H1       HDW      0.557330       1.00800           0   0.00000       0.00000    
     42878 TIP3     3334     SWM4     H2       HDW      0.557330       1.00800           0   0.00000       0.00000    
     42879 TIP3     3335     SWM4     OH2      ODW       1.71640       15.5994           0 -0.978253       1.30000    
     42880 TIP3     3335     SWM4     DOH2     DOH2     -1.71640      0.400000           0   0.00000       0.00000    
     42881 TIP3     3335     SWM4     OM       LPDW     -1.11466       0.00000          -1   0.00000       0.00000    
     42882 TIP3     3335     SWM4     H1       HDW      0.557330       1.00800           0   0.00000       0.00000    
     42883 TIP3     3335     SWM4     H2       HDW      0.557330       1.00800           0   0.00000       0.00000    
     42884 TIP3     3336     SWM4     OH2      ODW       1.71640       15.5994           0 -0.978253       1.30000    
     42885 TIP3     3336     SWM4     DOH2     DOH2     -1.71640      0.400000           0   0.00000       0.00000    
     42886 TIP3     3336     SWM4     OM       LPDW     -1.11466       0.00000          -1   0.00000       0.00000    
     42887 TIP3     3336     SWM4     H1       HDW      0.557330       1.00800           0   0.00000       0.00000    
     42888 TIP3     3336     SWM4     H2       HDW      0.557330       1.00800           0   0.00000       0.00000    
     42889 TIP3     3337     SWM4     OH2      ODW       1.71640       15.5994           0 -0.978253       1.30000    
     42890 TIP3     3337     SWM4     DOH2     DOH2     -1.71640      0.400000           0   0.00000       0.00000    
     42891 TIP3     3337     SWM4     OM       LPDW     -1.11466       0.00000          -1   0.00000       0.00000    
     42892 TIP3     3337     SWM4     H1       HDW      0.557330       1.00800           0   0.00000       0.00000    
     42893 TIP3     3337     SWM4     H2       HDW      0.557330       1.00800           0   0.00000       0.00000    
     42894 TIP3     3338     SWM4     OH2      ODW       1.71640       15.5994           0 -0.978253       1.30000    
     42895 TIP3     3338     SWM4     DOH2     DOH2     -1.71640      0.400000           0   0.00000       0.00000    
     42896 TIP3     3338     SWM4     OM       LPDW     -1.11466       0.00000          -1   0.00000       0.00000    
     42897 TIP3     3338     SWM4     H1       HDW      0.557330       1.00800           0   0.00000       0.00000    
     42898 TIP3     3338     SWM4     H2       HDW      0.557330       1.00800           0   0.00000       0.00000    
     42899 TIP3     3339     SWM4     OH2      ODW       1.71640       15.5994           0 -0.978253       1.30000    
     42900 TIP3     3339     SWM4     DOH2     DOH2     -1.71640      0.400000           0   0.00000       0.00000    
     42901 TIP3     3339     SWM4     OM       LPDW     -1.11466       0.00000          -1   0.00000       0.00000    
     42902 TIP3     3339     SWM4     H1       HDW      0.557330       1.00800           0   0.00000       0.00000    
     42903 TIP3     3339     SWM4     H2       HDW      0.557330       1.00800           0   0.00000       0.00000    
     42904 TIP3     3340     SWM4     OH2      ODW       1.71640       15.5994           0 -0.978253       1.30000    
     42905 TIP3     3340     SWM4     DOH2     DOH2     -1.71640      0.400000           0   0.00000       0.00000    
     42906 TIP3     3340     SWM4     OM       LPDW     -1.11466       0.00000          -1   0.00000       0.00000    
     42907 TIP3     3340     SWM4     H1       HDW      0.557330       1.00800           0   0.00000       0.00000    
     42908 TIP3     3340     SWM4     H2       HDW      0.557330       1.00800           0   0.00000       0.00000    
     42909 TIP3     3341     SWM4     OH2      ODW       1.71640       15.5994           0 -0.978253       1.30000    
     42910 TIP3     3341     SWM4     DOH2     DOH2     -1.71640      0.400000           0   0.00000       0.00000    
     42911 TIP3     3341     SWM4     OM       LPDW     -1.11466       0.00000          -1   0.00000       0.00000    
     42912 TIP3     3341     SWM4     H1       HDW      0.557330       1.00800           0   0.00000       0.00000    
     42913 TIP3     3341     SWM4     H2       HDW      0.557330       1.00800           0   0.00000       0.00000    
     42914 TIP3     3342     SWM4     OH2      ODW       1.71640       15.5994           0 -0.978253       1.30000    
     42915 TIP3     3342     SWM4     DOH2     DOH2     -1.71640      0.400000           0   0.00000       0.00000    
     42916 TIP3     3342     SWM4     OM       LPDW     -1.11466       0.00000          -1   0.00000       0.00000    
     42917 TIP3     3342     SWM4     H1       HDW      0.557330       1.00800           0   0.00000       0.00000    
     42918 TIP3     3342     SWM4     H2       HDW      0.557330       1.00800           0   0.00000       0.00000    
     42919 TIP3     3343     SWM4     OH2      ODW       1.71640       15.5994           0 -0.978253       1.30000    
     42920 TIP3     3343     SWM4     DOH2     DOH2     -1.71640      0.400000           0   0.00000       0.00000    
     42921 TIP3     3343     SWM4     OM       LPDW     -1.11466       0.00000          -1   0.00000       0.00000    
     42922 TIP3     3343     SWM4     H1       HDW      0.557330       1.00800           0   0.00000       0.00000    
     42923 TIP3     3343     SWM4     H2       HDW      0.557330       1.00800           0   0.00000       0.00000    
     42924 TIP3     3344     SWM4     OH2      ODW       1.71640       15.5994           0 -0.978253       1.30000    
     42925 TIP3     3344     SWM4     DOH2     DOH2     -1.71640      0.400000           0   0.00000       0.00000    
     42926 TIP3     3344     SWM4     OM       LPDW     -1.11466       0.00000          -1   0.00000       0.00000    
     42927 TIP3     3344     SWM4     H1       HDW      0.557330       1.00800           0   0.00000       0.00000    
     42928 TIP3     3344     SWM4     H2       HDW      0.557330       1.00800           0   0.00000       0.00000    
     42929 TIP3     3345     SWM4     OH2      ODW       1.71640       15.5994           0 -0.978253       1.30000    
     42930 TIP3     3345     SWM4     DOH2     DOH2     -1.71640      0.400000           0   0.00000       0.00000    
     42931 TIP3     3345     SWM4     OM       LPDW     -1.11466       0.00000          -1   0.00000       0.00000    
     42932 TIP3     3345     SWM4     H1       HDW      0.557330       1.00800           0   0.00000       0.00000    
     42933 TIP3     3345     SWM4     H2       HDW      0.557330       1.00800           0   0.00000       0.00000    
     42934 TIP3     3346     SWM4     OH2      ODW       1.71640       15.5994           0 -0.978253       1.30000    
     42935 TIP3     3346     SWM4     DOH2     DOH2     -1.71640      0.400000           0   0.00000       0.00000    
     42936 TIP3     3346     SWM4     OM       LPDW     -1.11466       0.00000          -1   0.00000       0.00000    
     42937 TIP3     3346     SWM4     H1       HDW      0.557330       1.00800           0   0.00000       0.00000    
     42938 TIP3     3346     SWM4     H2       HDW      0.557330       1.00800           0   0.00000       0.00000    
     42939 TIP3     3347     SWM4     OH2      ODW       1.71640       15.5994           0 -0.978253       1.30000    
     42940 TIP3     3347     SWM4     DOH2     DOH2     -1.71640      0.400000           0   0.00000       0.00000    
     42941 TIP3     3347     SWM4     OM       LPDW     -1.11466       0.00000          -1   0.00000       0.00000    
     42942 TIP3     3347     SWM4     H1       HDW      0.557330       1.00800           0   0.00000       0.00000    
     42943 TIP3     3347     SWM4     H2       HDW      0.557330       1.00800           0   0.00000       0.00000    
     42944 TIP3     3348     SWM4     OH2      ODW       1.71640       15.5994           0 -0.978253       1.30000    
     42945 TIP3     3348     SWM4     DOH2     DOH2     -1.71640      0.400000           0   0.00000       0.00000    
     42946 TIP3     3348     SWM4     OM       LPDW     -1.11466       0.00000          -1   0.00000       0.00000    
     42947 TIP3     3348     SWM4     H1       HDW      0.557330       1.00800           0   0.00000       0.00000    
     42948 TIP3     3348     SWM4     H2       HDW      0.557330       1.00800           0   0.00000       0.00000    
     42949 TIP3     3349     SWM4     OH2      ODW       1.71640       15.5994           0 -0.978253       1.30000    
     42950 TIP3     3349     SWM4     DOH2     DOH2     -1.71640      0.400000           0   0.00000       0.00000    
     42951 TIP3     3349     SWM4     OM       LPDW     -1.11466       0.00000          -1   0.00000       0.00000    
     42952 TIP3     3349     SWM4     H1       HDW      0.557330       1.00800           0   0.00000       0.00000    
     42953 TIP3     3349     SWM4     H2       HDW      0.557330       1.00800           0   0.00000       0.00000    
     42954 TIP3     3350     SWM4     OH2      ODW       1.71640       15.5994           0 -0.978253       1.30000    
     42955 TIP3     3350     SWM4     DOH2     DOH2     -1.71640      0.400000           0   0.00000       0.00000    
     42956 TIP3     3350     SWM4     OM       LPDW     -1.11466       0.00000          -1   0.00000       0.00000    
     42957 TIP3     3350     SWM4     H1       HDW      0.557330       1.00800           0   0.00000       0.00000    
     42958 TIP3     3350     SWM4     H2       HDW      0.557330       1.00800           0   0.00000       0.00000    
     42959 TIP3     3351     SWM4     OH2      ODW       1.71640       15.5994           0 -0.978253       1.30000    
     42960 TIP3     3351     SWM4     DOH2     DOH2     -1.71640      0.400000           0   0.00000       0.00000    
     42961 TIP3     3351     SWM4     OM       LPDW     -1.11466       0.00000          -1   0.00000       0.00000    
     42962 TIP3     3351     SWM4     H1       HDW      0.557330       1.00800           0   0.00000       0.00000    
     42963 TIP3     3351     SWM4     H2       HDW      0.557330       1.00800           0   0.00000       0.00000    
     42964 TIP3     3352     SWM4     OH2      ODW       1.71640       15.5994           0 -0.978253       1.30000    
     42965 TIP3     3352     SWM4     DOH2     DOH2     -1.71640      0.400000           0   0.00000       0.00000    
     42966 TIP3     3352     SWM4     OM       LPDW     -1.11466       0.00000          -1   0.00000       0.00000    
     42967 TIP3     3352     SWM4     H1       HDW      0.557330       1.00800           0   0.00000       0.00000    
     42968 TIP3     3352     SWM4     H2       HDW      0.557330       1.00800           0   0.00000       0.00000    
     42969 TIP3     3353     SWM4     OH2      ODW       1.71640       15.5994           0 -0.978253       1.30000    
     42970 TIP3     3353     SWM4     DOH2     DOH2     -1.71640      0.400000           0   0.00000       0.00000    
     42971 TIP3     3353     SWM4     OM       LPDW     -1.11466       0.00000          -1   0.00000       0.00000    
     42972 TIP3     3353     SWM4     H1       HDW      0.557330       1.00800           0   0.00000       0.00000    
     42973 TIP3     3353     SWM4     H2       HDW      0.557330       1.00800           0   0.00000       0.00000    
     42974 TIP3     3354     SWM4     OH2      ODW       1.71640       15.5994           0 -0.978253       1.30000    
     42975 TIP3     3354     SWM4     DOH2     DOH2     -1.71640      0.400000           0   0.00000       0.00000    
     42976 TIP3     3354     SWM4     OM       LPDW     -1.11466       0.00000          -1   0.00000       0.00000    
     42977 TIP3     3354     SWM4     H1       HDW      0.557330       1.00800           0   0.00000       0.00000    
     42978 TIP3     3354     SWM4     H2       HDW      0.557330       1.00800           0   0.00000       0.00000    
     42979 TIP3     3355     SWM4     OH2      ODW       1.71640       15.5994           0 -0.978253       1.30000    
     42980 TIP3     3355     SWM4     DOH2     DOH2     -1.71640      0.400000           0   0.00000       0.00000    
     42981 TIP3     3355     SWM4     OM       LPDW     -1.11466       0.00000          -1   0.00000       0.00000    
     42982 TIP3     3355     SWM4     H1       HDW      0.557330       1.00800           0   0.00000       0.00000    
     42983 TIP3     3355     SWM4     H2       HDW      0.557330       1.00800           0   0.00000       0.00000    
     42984 TIP3     3356     SWM4     OH2      ODW       1.71640       15.5994           0 -0.978253       1.30000    
     42985 TIP3     3356     SWM4     DOH2     DOH2     -1.71640      0.400000           0   0.00000       0.00000    
     42986 TIP3     3356     SWM4     OM       LPDW     -1.11466       0.00000          -1   0.00000       0.00000    
     42987 TIP3     3356     SWM4     H1       HDW      0.557330       1.00800           0   0.00000       0.00000    
     42988 TIP3     3356     SWM4     H2       HDW      0.557330       1.00800           0   0.00000       0.00000    
     42989 TIP3     3357     SWM4     OH2      ODW       1.71640       15.5994           0 -0.978253       1.30000    
     42990 TIP3     3357     SWM4     DOH2     DOH2     -1.71640      0.400000           0   0.00000       0.00000    
     42991 TIP3     3357     SWM4     OM       LPDW     -1.11466       0.00000          -1   0.00000       0.00000    
     42992 TIP3     3357     SWM4     H1       HDW      0.557330       1.00800           0   0.00000       0.00000    
     42993 TIP3     3357     SWM4     H2       HDW      0.557330       1.00800           0   0.00000       0.00000    
     42994 TIP3     3358     SWM4     OH2      ODW       1.71640       15.5994           0 -0.978253       1.30000    
     42995 TIP3     3358     SWM4     DOH2     DOH2     -1.71640      0.400000           0   0.00000       0.00000    
     42996 TIP3     3358     SWM4     OM       LPDW     -1.11466       0.00000          -1   0.00000       0.00000    
     42997 TIP3     3358     SWM4     H1       HDW      0.557330       1.00800           0   0.00000       0.00000    
     42998 TIP3     3358     SWM4     H2       HDW      0.557330       1.00800           0   0.00000       0.00000    
     42999 TIP3     3359     SWM4     OH2      ODW       1.71640       15.5994           0 -0.978253       1.30000    
     43000 TIP3     3359     SWM4     DOH2     DOH2     -1.71640      0.400000           0   0.00000       0.00000    
     43001 TIP3     3359     SWM4     OM       LPDW     -1.11466       0.00000          -1   0.00000       0.00000    
     43002 TIP3     3359     SWM4     H1       HDW      0.557330       1.00800           0   0.00000       0.00000    
     43003 TIP3     3359     SWM4     H2       HDW      0.557330       1.00800           0   0.00000       0.00000    
     43004 TIP3     3360     SWM4     OH2      ODW       1.71640       15.5994           0 -0.978253       1.30000    
     43005 TIP3     3360     SWM4     DOH2     DOH2     -1.71640      0.400000           0   0.00000       0.00000    
     43006 TIP3     3360     SWM4     OM       LPDW     -1.11466       0.00000          -1   0.00000       0.00000    
     43007 TIP3     3360     SWM4     H1       HDW      0.557330       1.00800           0   0.00000       0.00000    
     43008 TIP3     3360     SWM4     H2       HDW      0.557330       1.00800           0   0.00000       0.00000    
     43009 TIP3     3361     SWM4     OH2      ODW       1.71640       15.5994           0 -0.978253       1.30000    
     43010 TIP3     3361     SWM4     DOH2     DOH2     -1.71640      0.400000           0   0.00000       0.00000    
     43011 TIP3     3361     SWM4     OM       LPDW     -1.11466       0.00000          -1   0.00000       0.00000    
     43012 TIP3     3361     SWM4     H1       HDW      0.557330       1.00800           0   0.00000       0.00000    
     43013 TIP3     3361     SWM4     H2       HDW      0.557330       1.00800           0   0.00000       0.00000    
     43014 TIP3     3362     SWM4     OH2      ODW       1.71640       15.5994           0 -0.978253       1.30000    
     43015 TIP3     3362     SWM4     DOH2     DOH2     -1.71640      0.400000           0   0.00000       0.00000    
     43016 TIP3     3362     SWM4     OM       LPDW     -1.11466       0.00000          -1   0.00000       0.00000    
     43017 TIP3     3362     SWM4     H1       HDW      0.557330       1.00800           0   0.00000       0.00000    
     43018 TIP3     3362     SWM4     H2       HDW      0.557330       1.00800           0   0.00000       0.00000    
     43019 TIP3     3363     SWM4     OH2      ODW       1.71640       15.5994           0 -0.978253       1.30000    
     43020 TIP3     3363     SWM4     DOH2     DOH2     -1.71640      0.400000           0   0.00000       0.00000    
     43021 TIP3     3363     SWM4     OM       LPDW     -1.11466       0.00000          -1   0.00000       0.00000    
     43022 TIP3     3363     SWM4     H1       HDW      0.557330       1.00800           0   0.00000       0.00000    
     43023 TIP3     3363     SWM4     H2       HDW      0.557330       1.00800           0   0.00000       0.00000    
     43024 TIP3     3364     SWM4     OH2      ODW       1.71640       15.5994           0 -0.978253       1.30000    
     43025 TIP3     3364     SWM4     DOH2     DOH2     -1.71640      0.400000           0   0.00000       0.00000    
     43026 TIP3     3364     SWM4     OM       LPDW     -1.11466       0.00000          -1   0.00000       0.00000    
     43027 TIP3     3364     SWM4     H1       HDW      0.557330       1.00800           0   0.00000       0.00000    
     43028 TIP3     3364     SWM4     H2       HDW      0.557330       1.00800           0   0.00000       0.00000    
     43029 TIP3     3365     SWM4     OH2      ODW       1.71640       15.5994           0 -0.978253       1.30000    
     43030 TIP3     3365     SWM4     DOH2     DOH2     -1.71640      0.400000           0   0.00000       0.00000    
     43031 TIP3     3365     SWM4     OM       LPDW     -1.11466       0.00000          -1   0.00000       0.00000    
     43032 TIP3     3365     SWM4     H1       HDW      0.557330       1.00800           0   0.00000       0.00000    
     43033 TIP3     3365     SWM4     H2       HDW      0.557330       1.00800           0   0.00000       0.00000    
     43034 TIP3     3366     SWM4     OH2      ODW       1.71640       15.5994           0 -0.978253       1.30000    
     43035 TIP3     3366     SWM4     DOH2     DOH2     -1.71640      0.400000           0   0.00000       0.00000    
     43036 TIP3     3366     SWM4     OM       LPDW     -1.11466       0.00000          -1   0.00000       0.00000    
     43037 TIP3     3366     SWM4     H1       HDW      0.557330       1.00800           0   0.00000       0.00000    
     43038 TIP3     3366     SWM4     H2       HDW      0.557330       1.00800           0   0.00000       0.00000    
     43039 TIP3     3367     SWM4     OH2      ODW       1.71640       15.5994           0 -0.978253       1.30000    
     43040 TIP3     3367     SWM4     DOH2     DOH2     -1.71640      0.400000           0   0.00000       0.00000    
     43041 TIP3     3367     SWM4     OM       LPDW     -1.11466       0.00000          -1   0.00000       0.00000    
     43042 TIP3     3367     SWM4     H1       HDW      0.557330       1.00800           0   0.00000       0.00000    
     43043 TIP3     3367     SWM4     H2       HDW      0.557330       1.00800           0   0.00000       0.00000    
     43044 TIP3     3368     SWM4     OH2      ODW       1.71640       15.5994           0 -0.978253       1.30000    
     43045 TIP3     3368     SWM4     DOH2     DOH2     -1.71640      0.400000           0   0.00000       0.00000    
     43046 TIP3     3368     SWM4     OM       LPDW     -1.11466       0.00000          -1   0.00000       0.00000    
     43047 TIP3     3368     SWM4     H1       HDW      0.557330       1.00800           0   0.00000       0.00000    
     43048 TIP3     3368     SWM4     H2       HDW      0.557330       1.00800           0   0.00000       0.00000    
     43049 TIP3     3369     SWM4     OH2      ODW       1.71640       15.5994           0 -0.978253       1.30000    
     43050 TIP3     3369     SWM4     DOH2     DOH2     -1.71640      0.400000           0   0.00000       0.00000    
     43051 TIP3     3369     SWM4     OM       LPDW     -1.11466       0.00000          -1   0.00000       0.00000    
     43052 TIP3     3369     SWM4     H1       HDW      0.557330       1.00800           0   0.00000       0.00000    
     43053 TIP3     3369     SWM4     H2       HDW      0.557330       1.00800           0   0.00000       0.00000    
     43054 TIP3     3370     SWM4     OH2      ODW       1.71640       15.5994           0 -0.978253       1.30000    
     43055 TIP3     3370     SWM4     DOH2     DOH2     -1.71640      0.400000           0   0.00000       0.00000    
     43056 TIP3     3370     SWM4     OM       LPDW     -1.11466       0.00000          -1   0.00000       0.00000    
     43057 TIP3     3370     SWM4     H1       HDW      0.557330       1.00800           0   0.00000       0.00000    
     43058 TIP3     3370     SWM4     H2       HDW      0.557330       1.00800           0   0.00000       0.00000    
     43059 TIP3     3371     SWM4     OH2      ODW       1.71640       15.5994           0 -0.978253       1.30000    
     43060 TIP3     3371     SWM4     DOH2     DOH2     -1.71640      0.400000           0   0.00000       0.00000    
     43061 TIP3     3371     SWM4     OM       LPDW     -1.11466       0.00000          -1   0.00000       0.00000    
     43062 TIP3     3371     SWM4     H1       HDW      0.557330       1.00800           0   0.00000       0.00000    
     43063 TIP3     3371     SWM4     H2       HDW      0.557330       1.00800           0   0.00000       0.00000    
     43064 TIP3     3372     SWM4     OH2      ODW       1.71640       15.5994           0 -0.978253       1.30000    
     43065 TIP3     3372     SWM4     DOH2     DOH2     -1.71640      0.400000           0   0.00000       0.00000    
     43066 TIP3     3372     SWM4     OM       LPDW     -1.11466       0.00000          -1   0.00000       0.00000    
     43067 TIP3     3372     SWM4     H1       HDW      0.557330       1.00800           0   0.00000       0.00000    
     43068 TIP3     3372     SWM4     H2       HDW      0.557330       1.00800           0   0.00000       0.00000    
     43069 TIP3     3373     SWM4     OH2      ODW       1.71640       15.5994           0 -0.978253       1.30000    
     43070 TIP3     3373     SWM4     DOH2     DOH2     -1.71640      0.400000           0   0.00000       0.00000    
     43071 TIP3     3373     SWM4     OM       LPDW     -1.11466       0.00000          -1   0.00000       0.00000    
     43072 TIP3     3373     SWM4     H1       HDW      0.557330       1.00800           0   0.00000       0.00000    
     43073 TIP3     3373     SWM4     H2       HDW      0.557330       1.00800           0   0.00000       0.00000    
     43074 TIP3     3374     SWM4     OH2      ODW       1.71640       15.5994           0 -0.978253       1.30000    
     43075 TIP3     3374     SWM4     DOH2     DOH2     -1.71640      0.400000           0   0.00000       0.00000    
     43076 TIP3     3374     SWM4     OM       LPDW     -1.11466       0.00000          -1   0.00000       0.00000    
     43077 TIP3     3374     SWM4     H1       HDW      0.557330       1.00800           0   0.00000       0.00000    
     43078 TIP3     3374     SWM4     H2       HDW      0.557330       1.00800           0   0.00000       0.00000    
     43079 TIP3     3375     SWM4     OH2      ODW       1.71640       15.5994           0 -0.978253       1.30000    
     43080 TIP3     3375     SWM4     DOH2     DOH2     -1.71640      0.400000           0   0.00000       0.00000    
     43081 TIP3     3375     SWM4     OM       LPDW     -1.11466       0.00000          -1   0.00000       0.00000    
     43082 TIP3     3375     SWM4     H1       HDW      0.557330       1.00800           0   0.00000       0.00000    
     43083 TIP3     3375     SWM4     H2       HDW      0.557330       1.00800           0   0.00000       0.00000    
     43084 TIP3     3376     SWM4     OH2      ODW       1.71640       15.5994           0 -0.978253       1.30000    
     43085 TIP3     3376     SWM4     DOH2     DOH2     -1.71640      0.400000           0   0.00000       0.00000    
     43086 TIP3     3376     SWM4     OM       LPDW     -1.11466       0.00000          -1   0.00000       0.00000    
     43087 TIP3     3376     SWM4     H1       HDW      0.557330       1.00800           0   0.00000       0.00000    
     43088 TIP3     3376     SWM4     H2       HDW      0.557330       1.00800           0   0.00000       0.00000    
     43089 TIP3     3377     SWM4     OH2      ODW       1.71640       15.5994           0 -0.978253       1.30000    
     43090 TIP3     3377     SWM4     DOH2     DOH2     -1.71640      0.400000           0   0.00000       0.00000    
     43091 TIP3     3377     SWM4     OM       LPDW     -1.11466       0.00000          -1   0.00000       0.00000    
     43092 TIP3     3377     SWM4     H1       HDW      0.557330       1.00800           0   0.00000       0.00000    
     43093 TIP3     3377     SWM4     H2       HDW      0.557330       1.00800           0   0.00000       0.00000    
     43094 TIP3     3378     SWM4     OH2      ODW       1.71640       15.5994           0 -0.978253       1.30000    
     43095 TIP3     3378     SWM4     DOH2     DOH2     -1.71640      0.400000           0   0.00000       0.00000    
     43096 TIP3     3378     SWM4     OM       LPDW     -1.11466       0.00000          -1   0.00000       0.00000    
     43097 TIP3     3378     SWM4     H1       HDW      0.557330       1.00800           0   0.00000       0.00000    
     43098 TIP3     3378     SWM4     H2       HDW      0.557330       1.00800           0   0.00000       0.00000    
     43099 TIP3     3379     SWM4     OH2      ODW       1.71640       15.5994           0 -0.978253       1.30000    
     43100 TIP3     3379     SWM4     DOH2     DOH2     -1.71640      0.400000           0   0.00000       0.00000    
     43101 TIP3     3379     SWM4     OM       LPDW     -1.11466       0.00000          -1   0.00000       0.00000    
     43102 TIP3     3379     SWM4     H1       HDW      0.557330       1.00800           0   0.00000       0.00000    
     43103 TIP3     3379     SWM4     H2       HDW      0.557330       1.00800           0   0.00000       0.00000    
     43104 TIP3     3380     SWM4     OH2      ODW       1.71640       15.5994           0 -0.978253       1.30000    
     43105 TIP3     3380     SWM4     DOH2     DOH2     -1.71640      0.400000           0   0.00000       0.00000    
     43106 TIP3     3380     SWM4     OM       LPDW     -1.11466       0.00000          -1   0.00000       0.00000    
     43107 TIP3     3380     SWM4     H1       HDW      0.557330       1.00800           0   0.00000       0.00000    
     43108 TIP3     3380     SWM4     H2       HDW      0.557330       1.00800           0   0.00000       0.00000    
     43109 TIP3     3381     SWM4     OH2      ODW       1.71640       15.5994           0 -0.978253       1.30000    
     43110 TIP3     3381     SWM4     DOH2     DOH2     -1.71640      0.400000           0   0.00000       0.00000    
     43111 TIP3     3381     SWM4     OM       LPDW     -1.11466       0.00000          -1   0.00000       0.00000    
     43112 TIP3     3381     SWM4     H1       HDW      0.557330       1.00800           0   0.00000       0.00000    
     43113 TIP3     3381     SWM4     H2       HDW      0.557330       1.00800           0   0.00000       0.00000    
     43114 TIP3     3382     SWM4     OH2      ODW       1.71640       15.5994           0 -0.978253       1.30000    
     43115 TIP3     3382     SWM4     DOH2     DOH2     -1.71640      0.400000           0   0.00000       0.00000    
     43116 TIP3     3382     SWM4     OM       LPDW     -1.11466       0.00000          -1   0.00000       0.00000    
     43117 TIP3     3382     SWM4     H1       HDW      0.557330       1.00800           0   0.00000       0.00000    
     43118 TIP3     3382     SWM4     H2       HDW      0.557330       1.00800           0   0.00000       0.00000    
     43119 TIP3     3383     SWM4     OH2      ODW       1.71640       15.5994           0 -0.978253       1.30000    
     43120 TIP3     3383     SWM4     DOH2     DOH2     -1.71640      0.400000           0   0.00000       0.00000    
     43121 TIP3     3383     SWM4     OM       LPDW     -1.11466       0.00000          -1   0.00000       0.00000    
     43122 TIP3     3383     SWM4     H1       HDW      0.557330       1.00800           0   0.00000       0.00000    
     43123 TIP3     3383     SWM4     H2       HDW      0.557330       1.00800           0   0.00000       0.00000    
     43124 TIP3     3384     SWM4     OH2      ODW       1.71640       15.5994           0 -0.978253       1.30000    
     43125 TIP3     3384     SWM4     DOH2     DOH2     -1.71640      0.400000           0   0.00000       0.00000    
     43126 TIP3     3384     SWM4     OM       LPDW     -1.11466       0.00000          -1   0.00000       0.00000    
     43127 TIP3     3384     SWM4     H1       HDW      0.557330       1.00800           0   0.00000       0.00000    
     43128 TIP3     3384     SWM4     H2       HDW      0.557330       1.00800           0   0.00000       0.00000    
     43129 TIP3     3385     SWM4     OH2      ODW       1.71640       15.5994           0 -0.978253       1.30000    
     43130 TIP3     3385     SWM4     DOH2     DOH2     -1.71640      0.400000           0   0.00000       0.00000    
     43131 TIP3     3385     SWM4     OM       LPDW     -1.11466       0.00000          -1   0.00000       0.00000    
     43132 TIP3     3385     SWM4     H1       HDW      0.557330       1.00800           0   0.00000       0.00000    
     43133 TIP3     3385     SWM4     H2       HDW      0.557330       1.00800           0   0.00000       0.00000    
     43134 TIP3     3386     SWM4     OH2      ODW       1.71640       15.5994           0 -0.978253       1.30000    
     43135 TIP3     3386     SWM4     DOH2     DOH2     -1.71640      0.400000           0   0.00000       0.00000    
     43136 TIP3     3386     SWM4     OM       LPDW     -1.11466       0.00000          -1   0.00000       0.00000    
     43137 TIP3     3386     SWM4     H1       HDW      0.557330       1.00800           0   0.00000       0.00000    
     43138 TIP3     3386     SWM4     H2       HDW      0.557330       1.00800           0   0.00000       0.00000    
     43139 TIP3     3387     SWM4     OH2      ODW       1.71640       15.5994           0 -0.978253       1.30000    
     43140 TIP3     3387     SWM4     DOH2     DOH2     -1.71640      0.400000           0   0.00000       0.00000    
     43141 TIP3     3387     SWM4     OM       LPDW     -1.11466       0.00000          -1   0.00000       0.00000    
     43142 TIP3     3387     SWM4     H1       HDW      0.557330       1.00800           0   0.00000       0.00000    
     43143 TIP3     3387     SWM4     H2       HDW      0.557330       1.00800           0   0.00000       0.00000    
     43144 TIP3     3388     SWM4     OH2      ODW       1.71640       15.5994           0 -0.978253       1.30000    
     43145 TIP3     3388     SWM4     DOH2     DOH2     -1.71640      0.400000           0   0.00000       0.00000    
     43146 TIP3     3388     SWM4     OM       LPDW     -1.11466       0.00000          -1   0.00000       0.00000    
     43147 TIP3     3388     SWM4     H1       HDW      0.557330       1.00800           0   0.00000       0.00000    
     43148 TIP3     3388     SWM4     H2       HDW      0.557330       1.00800           0   0.00000       0.00000    
     43149 TIP3     3389     SWM4     OH2      ODW       1.71640       15.5994           0 -0.978253       1.30000    
     43150 TIP3     3389     SWM4     DOH2     DOH2     -1.71640      0.400000           0   0.00000       0.00000    
     43151 TIP3     3389     SWM4     OM       LPDW     -1.11466       0.00000          -1   0.00000       0.00000    
     43152 TIP3     3389     SWM4     H1       HDW      0.557330       1.00800           0   0.00000       0.00000    
     43153 TIP3     3389     SWM4     H2       HDW      0.557330       1.00800           0   0.00000       0.00000    
     43154 TIP3     3390     SWM4     OH2      ODW       1.71640       15.5994           0 -0.978253       1.30000    
     43155 TIP3     3390     SWM4     DOH2     DOH2     -1.71640      0.400000           0   0.00000       0.00000    
     43156 TIP3     3390     SWM4     OM       LPDW     -1.11466       0.00000          -1   0.00000       0.00000    
     43157 TIP3     3390     SWM4     H1       HDW      0.557330       1.00800           0   0.00000       0.00000    
     43158 TIP3     3390     SWM4     H2       HDW      0.557330       1.00800           0   0.00000       0.00000    
     43159 TIP3     3391     SWM4     OH2      ODW       1.71640       15.5994           0 -0.978253       1.30000    
     43160 TIP3     3391     SWM4     DOH2     DOH2     -1.71640      0.400000           0   0.00000       0.00000    
     43161 TIP3     3391     SWM4     OM       LPDW     -1.11466       0.00000          -1   0.00000       0.00000    
     43162 TIP3     3391     SWM4     H1       HDW      0.557330       1.00800           0   0.00000       0.00000    
     43163 TIP3     3391     SWM4     H2       HDW      0.557330       1.00800           0   0.00000       0.00000    
     43164 TIP3     3392     SWM4     OH2      ODW       1.71640       15.5994           0 -0.978253       1.30000    
     43165 TIP3     3392     SWM4     DOH2     DOH2     -1.71640      0.400000           0   0.00000       0.00000    
     43166 TIP3     3392     SWM4     OM       LPDW     -1.11466       0.00000          -1   0.00000       0.00000    
     43167 TIP3     3392     SWM4     H1       HDW      0.557330       1.00800           0   0.00000       0.00000    
     43168 TIP3     3392     SWM4     H2       HDW      0.557330       1.00800           0   0.00000       0.00000    
     43169 TIP3     3393     SWM4     OH2      ODW       1.71640       15.5994           0 -0.978253       1.30000    
     43170 TIP3     3393     SWM4     DOH2     DOH2     -1.71640      0.400000           0   0.00000       0.00000    
     43171 TIP3     3393     SWM4     OM       LPDW     -1.11466       0.00000          -1   0.00000       0.00000    
     43172 TIP3     3393     SWM4     H1       HDW      0.557330       1.00800           0   0.00000       0.00000    
     43173 TIP3     3393     SWM4     H2       HDW      0.557330       1.00800           0   0.00000       0.00000    
     43174 TIP3     3394     SWM4     OH2      ODW       1.71640       15.5994           0 -0.978253       1.30000    
     43175 TIP3     3394     SWM4     DOH2     DOH2     -1.71640      0.400000           0   0.00000       0.00000    
     43176 TIP3     3394     SWM4     OM       LPDW     -1.11466       0.00000          -1   0.00000       0.00000    
     43177 TIP3     3394     SWM4     H1       HDW      0.557330       1.00800           0   0.00000       0.00000    
     43178 TIP3     3394     SWM4     H2       HDW      0.557330       1.00800           0   0.00000       0.00000    
     43179 TIP3     3395     SWM4     OH2      ODW       1.71640       15.5994           0 -0.978253       1.30000    
     43180 TIP3     3395     SWM4     DOH2     DOH2     -1.71640      0.400000           0   0.00000       0.00000    
     43181 TIP3     3395     SWM4     OM       LPDW     -1.11466       0.00000          -1   0.00000       0.00000    
     43182 TIP3     3395     SWM4     H1       HDW      0.557330       1.00800           0   0.00000       0.00000    
     43183 TIP3     3395     SWM4     H2       HDW      0.557330       1.00800           0   0.00000       0.00000    
     43184 TIP3     3396     SWM4     OH2      ODW       1.71640       15.5994           0 -0.978253       1.30000    
     43185 TIP3     3396     SWM4     DOH2     DOH2     -1.71640      0.400000           0   0.00000       0.00000    
     43186 TIP3     3396     SWM4     OM       LPDW     -1.11466       0.00000          -1   0.00000       0.00000    
     43187 TIP3     3396     SWM4     H1       HDW      0.557330       1.00800           0   0.00000       0.00000    
     43188 TIP3     3396     SWM4     H2       HDW      0.557330       1.00800           0   0.00000       0.00000    
     43189 TIP3     3397     SWM4     OH2      ODW       1.71640       15.5994           0 -0.978253       1.30000    
     43190 TIP3     3397     SWM4     DOH2     DOH2     -1.71640      0.400000           0   0.00000       0.00000    
     43191 TIP3     3397     SWM4     OM       LPDW     -1.11466       0.00000          -1   0.00000       0.00000    
     43192 TIP3     3397     SWM4     H1       HDW      0.557330       1.00800           0   0.00000       0.00000    
     43193 TIP3     3397     SWM4     H2       HDW      0.557330       1.00800           0   0.00000       0.00000    
     43194 TIP3     3398     SWM4     OH2      ODW       1.71640       15.5994           0 -0.978253       1.30000    
     43195 TIP3     3398     SWM4     DOH2     DOH2     -1.71640      0.400000           0   0.00000       0.00000    
     43196 TIP3     3398     SWM4     OM       LPDW     -1.11466       0.00000          -1   0.00000       0.00000    
     43197 TIP3     3398     SWM4     H1       HDW      0.557330       1.00800           0   0.00000       0.00000    
     43198 TIP3     3398     SWM4     H2       HDW      0.557330       1.00800           0   0.00000       0.00000    
     43199 TIP3     3399     SWM4     OH2      ODW       1.71640       15.5994           0 -0.978253       1.30000    
     43200 TIP3     3399     SWM4     DOH2     DOH2     -1.71640      0.400000           0   0.00000       0.00000    
     43201 TIP3     3399     SWM4     OM       LPDW     -1.11466       0.00000          -1   0.00000       0.00000    
     43202 TIP3     3399     SWM4     H1       HDW      0.557330       1.00800           0   0.00000       0.00000    
     43203 TIP3     3399     SWM4     H2       HDW      0.557330       1.00800           0   0.00000       0.00000    
     43204 TIP3     3400     SWM4     OH2      ODW       1.71640       15.5994           0 -0.978253       1.30000    
     43205 TIP3     3400     SWM4     DOH2     DOH2     -1.71640      0.400000           0   0.00000       0.00000    
     43206 TIP3     3400     SWM4     OM       LPDW     -1.11466       0.00000          -1   0.00000       0.00000    
     43207 TIP3     3400     SWM4     H1       HDW      0.557330       1.00800           0   0.00000       0.00000    
     43208 TIP3     3400     SWM4     H2       HDW      0.557330       1.00800           0   0.00000       0.00000    
     43209 TIP3     3401     SWM4     OH2      ODW       1.71640       15.5994           0 -0.978253       1.30000    
     43210 TIP3     3401     SWM4     DOH2     DOH2     -1.71640      0.400000           0   0.00000       0.00000    
     43211 TIP3     3401     SWM4     OM       LPDW     -1.11466       0.00000          -1   0.00000       0.00000    
     43212 TIP3     3401     SWM4     H1       HDW      0.557330       1.00800           0   0.00000       0.00000    
     43213 TIP3     3401     SWM4     H2       HDW      0.557330       1.00800           0   0.00000       0.00000    
     43214 TIP3     3402     SWM4     OH2      ODW       1.71640       15.5994           0 -0.978253       1.30000    
     43215 TIP3     3402     SWM4     DOH2     DOH2     -1.71640      0.400000           0   0.00000       0.00000    
     43216 TIP3     3402     SWM4     OM       LPDW     -1.11466       0.00000          -1   0.00000       0.00000    
     43217 TIP3     3402     SWM4     H1       HDW      0.557330       1.00800           0   0.00000       0.00000    
     43218 TIP3     3402     SWM4     H2       HDW      0.557330       1.00800           0   0.00000       0.00000    
     43219 TIP3     3403     SWM4     OH2      ODW       1.71640       15.5994           0 -0.978253       1.30000    
     43220 TIP3     3403     SWM4     DOH2     DOH2     -1.71640      0.400000           0   0.00000       0.00000    
     43221 TIP3     3403     SWM4     OM       LPDW     -1.11466       0.00000          -1   0.00000       0.00000    
     43222 TIP3     3403     SWM4     H1       HDW      0.557330       1.00800           0   0.00000       0.00000    
     43223 TIP3     3403     SWM4     H2       HDW      0.557330       1.00800           0   0.00000       0.00000    
     43224 TIP3     3404     SWM4     OH2      ODW       1.71640       15.5994           0 -0.978253       1.30000    
     43225 TIP3     3404     SWM4     DOH2     DOH2     -1.71640      0.400000           0   0.00000       0.00000    
     43226 TIP3     3404     SWM4     OM       LPDW     -1.11466       0.00000          -1   0.00000       0.00000    
     43227 TIP3     3404     SWM4     H1       HDW      0.557330       1.00800           0   0.00000       0.00000    
     43228 TIP3     3404     SWM4     H2       HDW      0.557330       1.00800           0   0.00000       0.00000    
     43229 TIP3     3405     SWM4     OH2      ODW       1.71640       15.5994           0 -0.978253       1.30000    
     43230 TIP3     3405     SWM4     DOH2     DOH2     -1.71640      0.400000           0   0.00000       0.00000    
     43231 TIP3     3405     SWM4     OM       LPDW     -1.11466       0.00000          -1   0.00000       0.00000    
     43232 TIP3     3405     SWM4     H1       HDW      0.557330       1.00800           0   0.00000       0.00000    
     43233 TIP3     3405     SWM4     H2       HDW      0.557330       1.00800           0   0.00000       0.00000    
     43234 TIP3     3406     SWM4     OH2      ODW       1.71640       15.5994           0 -0.978253       1.30000    
     43235 TIP3     3406     SWM4     DOH2     DOH2     -1.71640      0.400000           0   0.00000       0.00000    
     43236 TIP3     3406     SWM4     OM       LPDW     -1.11466       0.00000          -1   0.00000       0.00000    
     43237 TIP3     3406     SWM4     H1       HDW      0.557330       1.00800           0   0.00000       0.00000    
     43238 TIP3     3406     SWM4     H2       HDW      0.557330       1.00800           0   0.00000       0.00000    
     43239 TIP3     3407     SWM4     OH2      ODW       1.71640       15.5994           0 -0.978253       1.30000    
     43240 TIP3     3407     SWM4     DOH2     DOH2     -1.71640      0.400000           0   0.00000       0.00000    
     43241 TIP3     3407     SWM4     OM       LPDW     -1.11466       0.00000          -1   0.00000       0.00000    
     43242 TIP3     3407     SWM4     H1       HDW      0.557330       1.00800           0   0.00000       0.00000    
     43243 TIP3     3407     SWM4     H2       HDW      0.557330       1.00800           0   0.00000       0.00000    
     43244 TIP3     3408     SWM4     OH2      ODW       1.71640       15.5994           0 -0.978253       1.30000    
     43245 TIP3     3408     SWM4     DOH2     DOH2     -1.71640      0.400000           0   0.00000       0.00000    
     43246 TIP3     3408     SWM4     OM       LPDW     -1.11466       0.00000          -1   0.00000       0.00000    
     43247 TIP3     3408     SWM4     H1       HDW      0.557330       1.00800           0   0.00000       0.00000    
     43248 TIP3     3408     SWM4     H2       HDW      0.557330       1.00800           0   0.00000       0.00000    
     43249 TIP3     3409     SWM4     OH2      ODW       1.71640       15.5994           0 -0.978253       1.30000    
     43250 TIP3     3409     SWM4     DOH2     DOH2     -1.71640      0.400000           0   0.00000       0.00000    
     43251 TIP3     3409     SWM4     OM       LPDW     -1.11466       0.00000          -1   0.00000       0.00000    
     43252 TIP3     3409     SWM4     H1       HDW      0.557330       1.00800           0   0.00000       0.00000    
     43253 TIP3     3409     SWM4     H2       HDW      0.557330       1.00800           0   0.00000       0.00000    
     43254 TIP3     3410     SWM4     OH2      ODW       1.71640       15.5994           0 -0.978253       1.30000    
     43255 TIP3     3410     SWM4     DOH2     DOH2     -1.71640      0.400000           0   0.00000       0.00000    
     43256 TIP3     3410     SWM4     OM       LPDW     -1.11466       0.00000          -1   0.00000       0.00000    
     43257 TIP3     3410     SWM4     H1       HDW      0.557330       1.00800           0   0.00000       0.00000    
     43258 TIP3     3410     SWM4     H2       HDW      0.557330       1.00800           0   0.00000       0.00000    
     43259 TIP3     3411     SWM4     OH2      ODW       1.71640       15.5994           0 -0.978253       1.30000    
     43260 TIP3     3411     SWM4     DOH2     DOH2     -1.71640      0.400000           0   0.00000       0.00000    
     43261 TIP3     3411     SWM4     OM       LPDW     -1.11466       0.00000          -1   0.00000       0.00000    
     43262 TIP3     3411     SWM4     H1       HDW      0.557330       1.00800           0   0.00000       0.00000    
     43263 TIP3     3411     SWM4     H2       HDW      0.557330       1.00800           0   0.00000       0.00000    
     43264 TIP3     3412     SWM4     OH2      ODW       1.71640       15.5994           0 -0.978253       1.30000    
     43265 TIP3     3412     SWM4     DOH2     DOH2     -1.71640      0.400000           0   0.00000       0.00000    
     43266 TIP3     3412     SWM4     OM       LPDW     -1.11466       0.00000          -1   0.00000       0.00000    
     43267 TIP3     3412     SWM4     H1       HDW      0.557330       1.00800           0   0.00000       0.00000    
     43268 TIP3     3412     SWM4     H2       HDW      0.557330       1.00800           0   0.00000       0.00000    
     43269 TIP3     3413     SWM4     OH2      ODW       1.71640       15.5994           0 -0.978253       1.30000    
     43270 TIP3     3413     SWM4     DOH2     DOH2     -1.71640      0.400000           0   0.00000       0.00000    
     43271 TIP3     3413     SWM4     OM       LPDW     -1.11466       0.00000          -1   0.00000       0.00000    
     43272 TIP3     3413     SWM4     H1       HDW      0.557330       1.00800           0   0.00000       0.00000    
     43273 TIP3     3413     SWM4     H2       HDW      0.557330       1.00800           0   0.00000       0.00000    
     43274 TIP3     3414     SWM4     OH2      ODW       1.71640       15.5994           0 -0.978253       1.30000    
     43275 TIP3     3414     SWM4     DOH2     DOH2     -1.71640      0.400000           0   0.00000       0.00000    
     43276 TIP3     3414     SWM4     OM       LPDW     -1.11466       0.00000          -1   0.00000       0.00000    
     43277 TIP3     3414     SWM4     H1       HDW      0.557330       1.00800           0   0.00000       0.00000    
     43278 TIP3     3414     SWM4     H2       HDW      0.557330       1.00800           0   0.00000       0.00000    
     43279 TIP3     3415     SWM4     OH2      ODW       1.71640       15.5994           0 -0.978253       1.30000    
     43280 TIP3     3415     SWM4     DOH2     DOH2     -1.71640      0.400000           0   0.00000       0.00000    
     43281 TIP3     3415     SWM4     OM       LPDW     -1.11466       0.00000          -1   0.00000       0.00000    
     43282 TIP3     3415     SWM4     H1       HDW      0.557330       1.00800           0   0.00000       0.00000    
     43283 TIP3     3415     SWM4     H2       HDW      0.557330       1.00800           0   0.00000       0.00000    
     43284 TIP3     3416     SWM4     OH2      ODW       1.71640       15.5994           0 -0.978253       1.30000    
     43285 TIP3     3416     SWM4     DOH2     DOH2     -1.71640      0.400000           0   0.00000       0.00000    
     43286 TIP3     3416     SWM4     OM       LPDW     -1.11466       0.00000          -1   0.00000       0.00000    
     43287 TIP3     3416     SWM4     H1       HDW      0.557330       1.00800           0   0.00000       0.00000    
     43288 TIP3     3416     SWM4     H2       HDW      0.557330       1.00800           0   0.00000       0.00000    
     43289 TIP3     3417     SWM4     OH2      ODW       1.71640       15.5994           0 -0.978253       1.30000    
     43290 TIP3     3417     SWM4     DOH2     DOH2     -1.71640      0.400000           0   0.00000       0.00000    
     43291 TIP3     3417     SWM4     OM       LPDW     -1.11466       0.00000          -1   0.00000       0.00000    
     43292 TIP3     3417     SWM4     H1       HDW      0.557330       1.00800           0   0.00000       0.00000    
     43293 TIP3     3417     SWM4     H2       HDW      0.557330       1.00800           0   0.00000       0.00000    
     43294 TIP3     3418     SWM4     OH2      ODW       1.71640       15.5994           0 -0.978253       1.30000    
     43295 TIP3     3418     SWM4     DOH2     DOH2     -1.71640      0.400000           0   0.00000       0.00000    
     43296 TIP3     3418     SWM4     OM       LPDW     -1.11466       0.00000          -1   0.00000       0.00000    
     43297 TIP3     3418     SWM4     H1       HDW      0.557330       1.00800           0   0.00000       0.00000    
     43298 TIP3     3418     SWM4     H2       HDW      0.557330       1.00800           0   0.00000       0.00000    
     43299 TIP3     3419     SWM4     OH2      ODW       1.71640       15.5994           0 -0.978253       1.30000    
     43300 TIP3     3419     SWM4     DOH2     DOH2     -1.71640      0.400000           0   0.00000       0.00000    
     43301 TIP3     3419     SWM4     OM       LPDW     -1.11466       0.00000          -1   0.00000       0.00000    
     43302 TIP3     3419     SWM4     H1       HDW      0.557330       1.00800           0   0.00000       0.00000    
     43303 TIP3     3419     SWM4     H2       HDW      0.557330       1.00800           0   0.00000       0.00000    
     43304 TIP3     3420     SWM4     OH2      ODW       1.71640       15.5994           0 -0.978253       1.30000    
     43305 TIP3     3420     SWM4     DOH2     DOH2     -1.71640      0.400000           0   0.00000       0.00000    
     43306 TIP3     3420     SWM4     OM       LPDW     -1.11466       0.00000          -1   0.00000       0.00000    
     43307 TIP3     3420     SWM4     H1       HDW      0.557330       1.00800           0   0.00000       0.00000    
     43308 TIP3     3420     SWM4     H2       HDW      0.557330       1.00800           0   0.00000       0.00000    
     43309 TIP3     3421     SWM4     OH2      ODW       1.71640       15.5994           0 -0.978253       1.30000    
     43310 TIP3     3421     SWM4     DOH2     DOH2     -1.71640      0.400000           0   0.00000       0.00000    
     43311 TIP3     3421     SWM4     OM       LPDW     -1.11466       0.00000          -1   0.00000       0.00000    
     43312 TIP3     3421     SWM4     H1       HDW      0.557330       1.00800           0   0.00000       0.00000    
     43313 TIP3     3421     SWM4     H2       HDW      0.557330       1.00800           0   0.00000       0.00000    
     43314 TIP3     3422     SWM4     OH2      ODW       1.71640       15.5994           0 -0.978253       1.30000    
     43315 TIP3     3422     SWM4     DOH2     DOH2     -1.71640      0.400000           0   0.00000       0.00000    
     43316 TIP3     3422     SWM4     OM       LPDW     -1.11466       0.00000          -1   0.00000       0.00000    
     43317 TIP3     3422     SWM4     H1       HDW      0.557330       1.00800           0   0.00000       0.00000    
     43318 TIP3     3422     SWM4     H2       HDW      0.557330       1.00800           0   0.00000       0.00000    
     43319 TIP3     3423     SWM4     OH2      ODW       1.71640       15.5994           0 -0.978253       1.30000    
     43320 TIP3     3423     SWM4     DOH2     DOH2     -1.71640      0.400000           0   0.00000       0.00000    
     43321 TIP3     3423     SWM4     OM       LPDW     -1.11466       0.00000          -1   0.00000       0.00000    
     43322 TIP3     3423     SWM4     H1       HDW      0.557330       1.00800           0   0.00000       0.00000    
     43323 TIP3     3423     SWM4     H2       HDW      0.557330       1.00800           0   0.00000       0.00000    
     43324 TIP3     3424     SWM4     OH2      ODW       1.71640       15.5994           0 -0.978253       1.30000    
     43325 TIP3     3424     SWM4     DOH2     DOH2     -1.71640      0.400000           0   0.00000       0.00000    
     43326 TIP3     3424     SWM4     OM       LPDW     -1.11466       0.00000          -1   0.00000       0.00000    
     43327 TIP3     3424     SWM4     H1       HDW      0.557330       1.00800           0   0.00000       0.00000    
     43328 TIP3     3424     SWM4     H2       HDW      0.557330       1.00800           0   0.00000       0.00000    
     43329 TIP3     3425     SWM4     OH2      ODW       1.71640       15.5994           0 -0.978253       1.30000    
     43330 TIP3     3425     SWM4     DOH2     DOH2     -1.71640      0.400000           0   0.00000       0.00000    
     43331 TIP3     3425     SWM4     OM       LPDW     -1.11466       0.00000          -1   0.00000       0.00000    
     43332 TIP3     3425     SWM4     H1       HDW      0.557330       1.00800           0   0.00000       0.00000    
     43333 TIP3     3425     SWM4     H2       HDW      0.557330       1.00800           0   0.00000       0.00000    
     43334 TIP3     3426     SWM4     OH2      ODW       1.71640       15.5994           0 -0.978253       1.30000    
     43335 TIP3     3426     SWM4     DOH2     DOH2     -1.71640      0.400000           0   0.00000       0.00000    
     43336 TIP3     3426     SWM4     OM       LPDW     -1.11466       0.00000          -1   0.00000       0.00000    
     43337 TIP3     3426     SWM4     H1       HDW      0.557330       1.00800           0   0.00000       0.00000    
     43338 TIP3     3426     SWM4     H2       HDW      0.557330       1.00800           0   0.00000       0.00000    
     43339 TIP3     3427     SWM4     OH2      ODW       1.71640       15.5994           0 -0.978253       1.30000    
     43340 TIP3     3427     SWM4     DOH2     DOH2     -1.71640      0.400000           0   0.00000       0.00000    
     43341 TIP3     3427     SWM4     OM       LPDW     -1.11466       0.00000          -1   0.00000       0.00000    
     43342 TIP3     3427     SWM4     H1       HDW      0.557330       1.00800           0   0.00000       0.00000    
     43343 TIP3     3427     SWM4     H2       HDW      0.557330       1.00800           0   0.00000       0.00000    
     43344 TIP3     3428     SWM4     OH2      ODW       1.71640       15.5994           0 -0.978253       1.30000    
     43345 TIP3     3428     SWM4     DOH2     DOH2     -1.71640      0.400000           0   0.00000       0.00000    
     43346 TIP3     3428     SWM4     OM       LPDW     -1.11466       0.00000          -1   0.00000       0.00000    
     43347 TIP3     3428     SWM4     H1       HDW      0.557330       1.00800           0   0.00000       0.00000    
     43348 TIP3     3428     SWM4     H2       HDW      0.557330       1.00800           0   0.00000       0.00000    
     43349 TIP3     3429     SWM4     OH2      ODW       1.71640       15.5994           0 -0.978253       1.30000    
     43350 TIP3     3429     SWM4     DOH2     DOH2     -1.71640      0.400000           0   0.00000       0.00000    
     43351 TIP3     3429     SWM4     OM       LPDW     -1.11466       0.00000          -1   0.00000       0.00000    
     43352 TIP3     3429     SWM4     H1       HDW      0.557330       1.00800           0   0.00000       0.00000    
     43353 TIP3     3429     SWM4     H2       HDW      0.557330       1.00800           0   0.00000       0.00000    
     43354 TIP3     3430     SWM4     OH2      ODW       1.71640       15.5994           0 -0.978253       1.30000    
     43355 TIP3     3430     SWM4     DOH2     DOH2     -1.71640      0.400000           0   0.00000       0.00000    
     43356 TIP3     3430     SWM4     OM       LPDW     -1.11466       0.00000          -1   0.00000       0.00000    
     43357 TIP3     3430     SWM4     H1       HDW      0.557330       1.00800           0   0.00000       0.00000    
     43358 TIP3     3430     SWM4     H2       HDW      0.557330       1.00800           0   0.00000       0.00000    
     43359 TIP3     3431     SWM4     OH2      ODW       1.71640       15.5994           0 -0.978253       1.30000    
     43360 TIP3     3431     SWM4     DOH2     DOH2     -1.71640      0.400000           0   0.00000       0.00000    
     43361 TIP3     3431     SWM4     OM       LPDW     -1.11466       0.00000          -1   0.00000       0.00000    
     43362 TIP3     3431     SWM4     H1       HDW      0.557330       1.00800           0   0.00000       0.00000    
     43363 TIP3     3431     SWM4     H2       HDW      0.557330       1.00800           0   0.00000       0.00000    
     43364 TIP3     3432     SWM4     OH2      ODW       1.71640       15.5994           0 -0.978253       1.30000    
     43365 TIP3     3432     SWM4     DOH2     DOH2     -1.71640      0.400000           0   0.00000       0.00000    
     43366 TIP3     3432     SWM4     OM       LPDW     -1.11466       0.00000          -1   0.00000       0.00000    
     43367 TIP3     3432     SWM4     H1       HDW      0.557330       1.00800           0   0.00000       0.00000    
     43368 TIP3     3432     SWM4     H2       HDW      0.557330       1.00800           0   0.00000       0.00000    
     43369 TIP3     3433     SWM4     OH2      ODW       1.71640       15.5994           0 -0.978253       1.30000    
     43370 TIP3     3433     SWM4     DOH2     DOH2     -1.71640      0.400000           0   0.00000       0.00000    
     43371 TIP3     3433     SWM4     OM       LPDW     -1.11466       0.00000          -1   0.00000       0.00000    
     43372 TIP3     3433     SWM4     H1       HDW      0.557330       1.00800           0   0.00000       0.00000    
     43373 TIP3     3433     SWM4     H2       HDW      0.557330       1.00800           0   0.00000       0.00000    
     43374 TIP3     3434     SWM4     OH2      ODW       1.71640       15.5994           0 -0.978253       1.30000    
     43375 TIP3     3434     SWM4     DOH2     DOH2     -1.71640      0.400000           0   0.00000       0.00000    
     43376 TIP3     3434     SWM4     OM       LPDW     -1.11466       0.00000          -1   0.00000       0.00000    
     43377 TIP3     3434     SWM4     H1       HDW      0.557330       1.00800           0   0.00000       0.00000    
     43378 TIP3     3434     SWM4     H2       HDW      0.557330       1.00800           0   0.00000       0.00000    
     43379 TIP3     3435     SWM4     OH2      ODW       1.71640       15.5994           0 -0.978253       1.30000    
     43380 TIP3     3435     SWM4     DOH2     DOH2     -1.71640      0.400000           0   0.00000       0.00000    
     43381 TIP3     3435     SWM4     OM       LPDW     -1.11466       0.00000          -1   0.00000       0.00000    
     43382 TIP3     3435     SWM4     H1       HDW      0.557330       1.00800           0   0.00000       0.00000    
     43383 TIP3     3435     SWM4     H2       HDW      0.557330       1.00800           0   0.00000       0.00000    
     43384 TIP3     3436     SWM4     OH2      ODW       1.71640       15.5994           0 -0.978253       1.30000    
     43385 TIP3     3436     SWM4     DOH2     DOH2     -1.71640      0.400000           0   0.00000       0.00000    
     43386 TIP3     3436     SWM4     OM       LPDW     -1.11466       0.00000          -1   0.00000       0.00000    
     43387 TIP3     3436     SWM4     H1       HDW      0.557330       1.00800           0   0.00000       0.00000    
     43388 TIP3     3436     SWM4     H2       HDW      0.557330       1.00800           0   0.00000       0.00000    
     43389 TIP3     3437     SWM4     OH2      ODW       1.71640       15.5994           0 -0.978253       1.30000    
     43390 TIP3     3437     SWM4     DOH2     DOH2     -1.71640      0.400000           0   0.00000       0.00000    
     43391 TIP3     3437     SWM4     OM       LPDW     -1.11466       0.00000          -1   0.00000       0.00000    
     43392 TIP3     3437     SWM4     H1       HDW      0.557330       1.00800           0   0.00000       0.00000    
     43393 TIP3     3437     SWM4     H2       HDW      0.557330       1.00800           0   0.00000       0.00000    
     43394 TIP3     3438     SWM4     OH2      ODW       1.71640       15.5994           0 -0.978253       1.30000    
     43395 TIP3     3438     SWM4     DOH2     DOH2     -1.71640      0.400000           0   0.00000       0.00000    
     43396 TIP3     3438     SWM4     OM       LPDW     -1.11466       0.00000          -1   0.00000       0.00000    
     43397 TIP3     3438     SWM4     H1       HDW      0.557330       1.00800           0   0.00000       0.00000    
     43398 TIP3     3438     SWM4     H2       HDW      0.557330       1.00800           0   0.00000       0.00000    
     43399 TIP3     3439     SWM4     OH2      ODW       1.71640       15.5994           0 -0.978253       1.30000    
     43400 TIP3     3439     SWM4     DOH2     DOH2     -1.71640      0.400000           0   0.00000       0.00000    
     43401 TIP3     3439     SWM4     OM       LPDW     -1.11466       0.00000          -1   0.00000       0.00000    
     43402 TIP3     3439     SWM4     H1       HDW      0.557330       1.00800           0   0.00000       0.00000    
     43403 TIP3     3439     SWM4     H2       HDW      0.557330       1.00800           0   0.00000       0.00000    
     43404 TIP3     3440     SWM4     OH2      ODW       1.71640       15.5994           0 -0.978253       1.30000    
     43405 TIP3     3440     SWM4     DOH2     DOH2     -1.71640      0.400000           0   0.00000       0.00000    
     43406 TIP3     3440     SWM4     OM       LPDW     -1.11466       0.00000          -1   0.00000       0.00000    
     43407 TIP3     3440     SWM4     H1       HDW      0.557330       1.00800           0   0.00000       0.00000    
     43408 TIP3     3440     SWM4     H2       HDW      0.557330       1.00800           0   0.00000       0.00000    
     43409 TIP3     3441     SWM4     OH2      ODW       1.71640       15.5994           0 -0.978253       1.30000    
     43410 TIP3     3441     SWM4     DOH2     DOH2     -1.71640      0.400000           0   0.00000       0.00000    
     43411 TIP3     3441     SWM4     OM       LPDW     -1.11466       0.00000          -1   0.00000       0.00000    
     43412 TIP3     3441     SWM4     H1       HDW      0.557330       1.00800           0   0.00000       0.00000    
     43413 TIP3     3441     SWM4     H2       HDW      0.557330       1.00800           0   0.00000       0.00000    
     43414 TIP3     3442     SWM4     OH2      ODW       1.71640       15.5994           0 -0.978253       1.30000    
     43415 TIP3     3442     SWM4     DOH2     DOH2     -1.71640      0.400000           0   0.00000       0.00000    
     43416 TIP3     3442     SWM4     OM       LPDW     -1.11466       0.00000          -1   0.00000       0.00000    
     43417 TIP3     3442     SWM4     H1       HDW      0.557330       1.00800           0   0.00000       0.00000    
     43418 TIP3     3442     SWM4     H2       HDW      0.557330       1.00800           0   0.00000       0.00000    
     43419 TIP3     3443     SWM4     OH2      ODW       1.71640       15.5994           0 -0.978253       1.30000    
     43420 TIP3     3443     SWM4     DOH2     DOH2     -1.71640      0.400000           0   0.00000       0.00000    
     43421 TIP3     3443     SWM4     OM       LPDW     -1.11466       0.00000          -1   0.00000       0.00000    
     43422 TIP3     3443     SWM4     H1       HDW      0.557330       1.00800           0   0.00000       0.00000    
     43423 TIP3     3443     SWM4     H2       HDW      0.557330       1.00800           0   0.00000       0.00000    
     43424 TIP3     3444     SWM4     OH2      ODW       1.71640       15.5994           0 -0.978253       1.30000    
     43425 TIP3     3444     SWM4     DOH2     DOH2     -1.71640      0.400000           0   0.00000       0.00000    
     43426 TIP3     3444     SWM4     OM       LPDW     -1.11466       0.00000          -1   0.00000       0.00000    
     43427 TIP3     3444     SWM4     H1       HDW      0.557330       1.00800           0   0.00000       0.00000    
     43428 TIP3     3444     SWM4     H2       HDW      0.557330       1.00800           0   0.00000       0.00000    
     43429 TIP3     3445     SWM4     OH2      ODW       1.71640       15.5994           0 -0.978253       1.30000    
     43430 TIP3     3445     SWM4     DOH2     DOH2     -1.71640      0.400000           0   0.00000       0.00000    
     43431 TIP3     3445     SWM4     OM       LPDW     -1.11466       0.00000          -1   0.00000       0.00000    
     43432 TIP3     3445     SWM4     H1       HDW      0.557330       1.00800           0   0.00000       0.00000    
     43433 TIP3     3445     SWM4     H2       HDW      0.557330       1.00800           0   0.00000       0.00000    
     43434 TIP3     3446     SWM4     OH2      ODW       1.71640       15.5994           0 -0.978253       1.30000    
     43435 TIP3     3446     SWM4     DOH2     DOH2     -1.71640      0.400000           0   0.00000       0.00000    
     43436 TIP3     3446     SWM4     OM       LPDW     -1.11466       0.00000          -1   0.00000       0.00000    
     43437 TIP3     3446     SWM4     H1       HDW      0.557330       1.00800           0   0.00000       0.00000    
     43438 TIP3     3446     SWM4     H2       HDW      0.557330       1.00800           0   0.00000       0.00000    
     43439 TIP3     3447     SWM4     OH2      ODW       1.71640       15.5994           0 -0.978253       1.30000    
     43440 TIP3     3447     SWM4     DOH2     DOH2     -1.71640      0.400000           0   0.00000       0.00000    
     43441 TIP3     3447     SWM4     OM       LPDW     -1.11466       0.00000          -1   0.00000       0.00000    
     43442 TIP3     3447     SWM4     H1       HDW      0.557330       1.00800           0   0.00000       0.00000    
     43443 TIP3     3447     SWM4     H2       HDW      0.557330       1.00800           0   0.00000       0.00000    
     43444 TIP3     3448     SWM4     OH2      ODW       1.71640       15.5994           0 -0.978253       1.30000    
     43445 TIP3     3448     SWM4     DOH2     DOH2     -1.71640      0.400000           0   0.00000       0.00000    
     43446 TIP3     3448     SWM4     OM       LPDW     -1.11466       0.00000          -1   0.00000       0.00000    
     43447 TIP3     3448     SWM4     H1       HDW      0.557330       1.00800           0   0.00000       0.00000    
     43448 TIP3     3448     SWM4     H2       HDW      0.557330       1.00800           0   0.00000       0.00000    
     43449 TIP3     3449     SWM4     OH2      ODW       1.71640       15.5994           0 -0.978253       1.30000    
     43450 TIP3     3449     SWM4     DOH2     DOH2     -1.71640      0.400000           0   0.00000       0.00000    
     43451 TIP3     3449     SWM4     OM       LPDW     -1.11466       0.00000          -1   0.00000       0.00000    
     43452 TIP3     3449     SWM4     H1       HDW      0.557330       1.00800           0   0.00000       0.00000    
     43453 TIP3     3449     SWM4     H2       HDW      0.557330       1.00800           0   0.00000       0.00000    
     43454 TIP3     3450     SWM4     OH2      ODW       1.71640       15.5994           0 -0.978253       1.30000    
     43455 TIP3     3450     SWM4     DOH2     DOH2     -1.71640      0.400000           0   0.00000       0.00000    
     43456 TIP3     3450     SWM4     OM       LPDW     -1.11466       0.00000          -1   0.00000       0.00000    
     43457 TIP3     3450     SWM4     H1       HDW      0.557330       1.00800           0   0.00000       0.00000    
     43458 TIP3     3450     SWM4     H2       HDW      0.557330       1.00800           0   0.00000       0.00000    
     43459 TIP3     3451     SWM4     OH2      ODW       1.71640       15.5994           0 -0.978253       1.30000    
     43460 TIP3     3451     SWM4     DOH2     DOH2     -1.71640      0.400000           0   0.00000       0.00000    
     43461 TIP3     3451     SWM4     OM       LPDW     -1.11466       0.00000          -1   0.00000       0.00000    
     43462 TIP3     3451     SWM4     H1       HDW      0.557330       1.00800           0   0.00000       0.00000    
     43463 TIP3     3451     SWM4     H2       HDW      0.557330       1.00800           0   0.00000       0.00000    
     43464 TIP3     3452     SWM4     OH2      ODW       1.71640       15.5994           0 -0.978253       1.30000    
     43465 TIP3     3452     SWM4     DOH2     DOH2     -1.71640      0.400000           0   0.00000       0.00000    
     43466 TIP3     3452     SWM4     OM       LPDW     -1.11466       0.00000          -1   0.00000       0.00000    
     43467 TIP3     3452     SWM4     H1       HDW      0.557330       1.00800           0   0.00000       0.00000    
     43468 TIP3     3452     SWM4     H2       HDW      0.557330       1.00800           0   0.00000       0.00000    
     43469 TIP3     3453     SWM4     OH2      ODW       1.71640       15.5994           0 -0.978253       1.30000    
     43470 TIP3     3453     SWM4     DOH2     DOH2     -1.71640      0.400000           0   0.00000       0.00000    
     43471 TIP3     3453     SWM4     OM       LPDW     -1.11466       0.00000          -1   0.00000       0.00000    
     43472 TIP3     3453     SWM4     H1       HDW      0.557330       1.00800           0   0.00000       0.00000    
     43473 TIP3     3453     SWM4     H2       HDW      0.557330       1.00800           0   0.00000       0.00000    
     43474 TIP3     3454     SWM4     OH2      ODW       1.71640       15.5994           0 -0.978253       1.30000    
     43475 TIP3     3454     SWM4     DOH2     DOH2     -1.71640      0.400000           0   0.00000       0.00000    
     43476 TIP3     3454     SWM4     OM       LPDW     -1.11466       0.00000          -1   0.00000       0.00000    
     43477 TIP3     3454     SWM4     H1       HDW      0.557330       1.00800           0   0.00000       0.00000    
     43478 TIP3     3454     SWM4     H2       HDW      0.557330       1.00800           0   0.00000       0.00000    
     43479 TIP3     3455     SWM4     OH2      ODW       1.71640       15.5994           0 -0.978253       1.30000    
     43480 TIP3     3455     SWM4     DOH2     DOH2     -1.71640      0.400000           0   0.00000       0.00000    
     43481 TIP3     3455     SWM4     OM       LPDW     -1.11466       0.00000          -1   0.00000       0.00000    
     43482 TIP3     3455     SWM4     H1       HDW      0.557330       1.00800           0   0.00000       0.00000    
     43483 TIP3     3455     SWM4     H2       HDW      0.557330       1.00800           0   0.00000       0.00000    
     43484 TIP3     3456     SWM4     OH2      ODW       1.71640       15.5994           0 -0.978253       1.30000    
     43485 TIP3     3456     SWM4     DOH2     DOH2     -1.71640      0.400000           0   0.00000       0.00000    
     43486 TIP3     3456     SWM4     OM       LPDW     -1.11466       0.00000          -1   0.00000       0.00000    
     43487 TIP3     3456     SWM4     H1       HDW      0.557330       1.00800           0   0.00000       0.00000    
     43488 TIP3     3456     SWM4     H2       HDW      0.557330       1.00800           0   0.00000       0.00000    
     43489 TIP3     3457     SWM4     OH2      ODW       1.71640       15.5994           0 -0.978253       1.30000    
     43490 TIP3     3457     SWM4     DOH2     DOH2     -1.71640      0.400000           0   0.00000       0.00000    
     43491 TIP3     3457     SWM4     OM       LPDW     -1.11466       0.00000          -1   0.00000       0.00000    
     43492 TIP3     3457     SWM4     H1       HDW      0.557330       1.00800           0   0.00000       0.00000    
     43493 TIP3     3457     SWM4     H2       HDW      0.557330       1.00800           0   0.00000       0.00000    
     43494 TIP3     3458     SWM4     OH2      ODW       1.71640       15.5994           0 -0.978253       1.30000    
     43495 TIP3     3458     SWM4     DOH2     DOH2     -1.71640      0.400000           0   0.00000       0.00000    
     43496 TIP3     3458     SWM4     OM       LPDW     -1.11466       0.00000          -1   0.00000       0.00000    
     43497 TIP3     3458     SWM4     H1       HDW      0.557330       1.00800           0   0.00000       0.00000    
     43498 TIP3     3458     SWM4     H2       HDW      0.557330       1.00800           0   0.00000       0.00000    
     43499 TIP3     3459     SWM4     OH2      ODW       1.71640       15.5994           0 -0.978253       1.30000    
     43500 TIP3     3459     SWM4     DOH2     DOH2     -1.71640      0.400000           0   0.00000       0.00000    
     43501 TIP3     3459     SWM4     OM       LPDW     -1.11466       0.00000          -1   0.00000       0.00000    
     43502 TIP3     3459     SWM4     H1       HDW      0.557330       1.00800           0   0.00000       0.00000    
     43503 TIP3     3459     SWM4     H2       HDW      0.557330       1.00800           0   0.00000       0.00000    
     43504 TIP3     3460     SWM4     OH2      ODW       1.71640       15.5994           0 -0.978253       1.30000    
     43505 TIP3     3460     SWM4     DOH2     DOH2     -1.71640      0.400000           0   0.00000       0.00000    
     43506 TIP3     3460     SWM4     OM       LPDW     -1.11466       0.00000          -1   0.00000       0.00000    
     43507 TIP3     3460     SWM4     H1       HDW      0.557330       1.00800           0   0.00000       0.00000    
     43508 TIP3     3460     SWM4     H2       HDW      0.557330       1.00800           0   0.00000       0.00000    
     43509 TIP3     3461     SWM4     OH2      ODW       1.71640       15.5994           0 -0.978253       1.30000    
     43510 TIP3     3461     SWM4     DOH2     DOH2     -1.71640      0.400000           0   0.00000       0.00000    
     43511 TIP3     3461     SWM4     OM       LPDW     -1.11466       0.00000          -1   0.00000       0.00000    
     43512 TIP3     3461     SWM4     H1       HDW      0.557330       1.00800           0   0.00000       0.00000    
     43513 TIP3     3461     SWM4     H2       HDW      0.557330       1.00800           0   0.00000       0.00000    
     43514 TIP3     3462     SWM4     OH2      ODW       1.71640       15.5994           0 -0.978253       1.30000    
     43515 TIP3     3462     SWM4     DOH2     DOH2     -1.71640      0.400000           0   0.00000       0.00000    
     43516 TIP3     3462     SWM4     OM       LPDW     -1.11466       0.00000          -1   0.00000       0.00000    
     43517 TIP3     3462     SWM4     H1       HDW      0.557330       1.00800           0   0.00000       0.00000    
     43518 TIP3     3462     SWM4     H2       HDW      0.557330       1.00800           0   0.00000       0.00000    
     43519 TIP3     3463     SWM4     OH2      ODW       1.71640       15.5994           0 -0.978253       1.30000    
     43520 TIP3     3463     SWM4     DOH2     DOH2     -1.71640      0.400000           0   0.00000       0.00000    
     43521 TIP3     3463     SWM4     OM       LPDW     -1.11466       0.00000          -1   0.00000       0.00000    
     43522 TIP3     3463     SWM4     H1       HDW      0.557330       1.00800           0   0.00000       0.00000    
     43523 TIP3     3463     SWM4     H2       HDW      0.557330       1.00800           0   0.00000       0.00000    
     43524 TIP3     3464     SWM4     OH2      ODW       1.71640       15.5994           0 -0.978253       1.30000    
     43525 TIP3     3464     SWM4     DOH2     DOH2     -1.71640      0.400000           0   0.00000       0.00000    
     43526 TIP3     3464     SWM4     OM       LPDW     -1.11466       0.00000          -1   0.00000       0.00000    
     43527 TIP3     3464     SWM4     H1       HDW      0.557330       1.00800           0   0.00000       0.00000    
     43528 TIP3     3464     SWM4     H2       HDW      0.557330       1.00800           0   0.00000       0.00000    
     43529 TIP3     3465     SWM4     OH2      ODW       1.71640       15.5994           0 -0.978253       1.30000    
     43530 TIP3     3465     SWM4     DOH2     DOH2     -1.71640      0.400000           0   0.00000       0.00000    
     43531 TIP3     3465     SWM4     OM       LPDW     -1.11466       0.00000          -1   0.00000       0.00000    
     43532 TIP3     3465     SWM4     H1       HDW      0.557330       1.00800           0   0.00000       0.00000    
     43533 TIP3     3465     SWM4     H2       HDW      0.557330       1.00800           0   0.00000       0.00000    
     43534 TIP3     3466     SWM4     OH2      ODW       1.71640       15.5994           0 -0.978253       1.30000    
     43535 TIP3     3466     SWM4     DOH2     DOH2     -1.71640      0.400000           0   0.00000       0.00000    
     43536 TIP3     3466     SWM4     OM       LPDW     -1.11466       0.00000          -1   0.00000       0.00000    
     43537 TIP3     3466     SWM4     H1       HDW      0.557330       1.00800           0   0.00000       0.00000    
     43538 TIP3     3466     SWM4     H2       HDW      0.557330       1.00800           0   0.00000       0.00000    
     43539 TIP3     3467     SWM4     OH2      ODW       1.71640       15.5994           0 -0.978253       1.30000    
     43540 TIP3     3467     SWM4     DOH2     DOH2     -1.71640      0.400000           0   0.00000       0.00000    
     43541 TIP3     3467     SWM4     OM       LPDW     -1.11466       0.00000          -1   0.00000       0.00000    
     43542 TIP3     3467     SWM4     H1       HDW      0.557330       1.00800           0   0.00000       0.00000    
     43543 TIP3     3467     SWM4     H2       HDW      0.557330       1.00800           0   0.00000       0.00000    
     43544 TIP3     3468     SWM4     OH2      ODW       1.71640       15.5994           0 -0.978253       1.30000    
     43545 TIP3     3468     SWM4     DOH2     DOH2     -1.71640      0.400000           0   0.00000       0.00000    
     43546 TIP3     3468     SWM4     OM       LPDW     -1.11466       0.00000          -1   0.00000       0.00000    
     43547 TIP3     3468     SWM4     H1       HDW      0.557330       1.00800           0   0.00000       0.00000    
     43548 TIP3     3468     SWM4     H2       HDW      0.557330       1.00800           0   0.00000       0.00000    
     43549 TIP3     3469     SWM4     OH2      ODW       1.71640       15.5994           0 -0.978253       1.30000    
     43550 TIP3     3469     SWM4     DOH2     DOH2     -1.71640      0.400000           0   0.00000       0.00000    
     43551 TIP3     3469     SWM4     OM       LPDW     -1.11466       0.00000          -1   0.00000       0.00000    
     43552 TIP3     3469     SWM4     H1       HDW      0.557330       1.00800           0   0.00000       0.00000    
     43553 TIP3     3469     SWM4     H2       HDW      0.557330       1.00800           0   0.00000       0.00000    
     43554 TIP3     3470     SWM4     OH2      ODW       1.71640       15.5994           0 -0.978253       1.30000    
     43555 TIP3     3470     SWM4     DOH2     DOH2     -1.71640      0.400000           0   0.00000       0.00000    
     43556 TIP3     3470     SWM4     OM       LPDW     -1.11466       0.00000          -1   0.00000       0.00000    
     43557 TIP3     3470     SWM4     H1       HDW      0.557330       1.00800           0   0.00000       0.00000    
     43558 TIP3     3470     SWM4     H2       HDW      0.557330       1.00800           0   0.00000       0.00000    
     43559 TIP3     3471     SWM4     OH2      ODW       1.71640       15.5994           0 -0.978253       1.30000    
     43560 TIP3     3471     SWM4     DOH2     DOH2     -1.71640      0.400000           0   0.00000       0.00000    
     43561 TIP3     3471     SWM4     OM       LPDW     -1.11466       0.00000          -1   0.00000       0.00000    
     43562 TIP3     3471     SWM4     H1       HDW      0.557330       1.00800           0   0.00000       0.00000    
     43563 TIP3     3471     SWM4     H2       HDW      0.557330       1.00800           0   0.00000       0.00000    
     43564 TIP3     3472     SWM4     OH2      ODW       1.71640       15.5994           0 -0.978253       1.30000    
     43565 TIP3     3472     SWM4     DOH2     DOH2     -1.71640      0.400000           0   0.00000       0.00000    
     43566 TIP3     3472     SWM4     OM       LPDW     -1.11466       0.00000          -1   0.00000       0.00000    
     43567 TIP3     3472     SWM4     H1       HDW      0.557330       1.00800           0   0.00000       0.00000    
     43568 TIP3     3472     SWM4     H2       HDW      0.557330       1.00800           0   0.00000       0.00000    
     43569 TIP3     3473     SWM4     OH2      ODW       1.71640       15.5994           0 -0.978253       1.30000    
     43570 TIP3     3473     SWM4     DOH2     DOH2     -1.71640      0.400000           0   0.00000       0.00000    
     43571 TIP3     3473     SWM4     OM       LPDW     -1.11466       0.00000          -1   0.00000       0.00000    
     43572 TIP3     3473     SWM4     H1       HDW      0.557330       1.00800           0   0.00000       0.00000    
     43573 TIP3     3473     SWM4     H2       HDW      0.557330       1.00800           0   0.00000       0.00000    
     43574 TIP3     3474     SWM4     OH2      ODW       1.71640       15.5994           0 -0.978253       1.30000    
     43575 TIP3     3474     SWM4     DOH2     DOH2     -1.71640      0.400000           0   0.00000       0.00000    
     43576 TIP3     3474     SWM4     OM       LPDW     -1.11466       0.00000          -1   0.00000       0.00000    
     43577 TIP3     3474     SWM4     H1       HDW      0.557330       1.00800           0   0.00000       0.00000    
     43578 TIP3     3474     SWM4     H2       HDW      0.557330       1.00800           0   0.00000       0.00000    
     43579 TIP3     3475     SWM4     OH2      ODW       1.71640       15.5994           0 -0.978253       1.30000    
     43580 TIP3     3475     SWM4     DOH2     DOH2     -1.71640      0.400000           0   0.00000       0.00000    
     43581 TIP3     3475     SWM4     OM       LPDW     -1.11466       0.00000          -1   0.00000       0.00000    
     43582 TIP3     3475     SWM4     H1       HDW      0.557330       1.00800           0   0.00000       0.00000    
     43583 TIP3     3475     SWM4     H2       HDW      0.557330       1.00800           0   0.00000       0.00000    
     43584 TIP3     3476     SWM4     OH2      ODW       1.71640       15.5994           0 -0.978253       1.30000    
     43585 TIP3     3476     SWM4     DOH2     DOH2     -1.71640      0.400000           0   0.00000       0.00000    
     43586 TIP3     3476     SWM4     OM       LPDW     -1.11466       0.00000          -1   0.00000       0.00000    
     43587 TIP3     3476     SWM4     H1       HDW      0.557330       1.00800           0   0.00000       0.00000    
     43588 TIP3     3476     SWM4     H2       HDW      0.557330       1.00800           0   0.00000       0.00000    
     43589 TIP3     3477     SWM4     OH2      ODW       1.71640       15.5994           0 -0.978253       1.30000    
     43590 TIP3     3477     SWM4     DOH2     DOH2     -1.71640      0.400000           0   0.00000       0.00000    
     43591 TIP3     3477     SWM4     OM       LPDW     -1.11466       0.00000          -1   0.00000       0.00000    
     43592 TIP3     3477     SWM4     H1       HDW      0.557330       1.00800           0   0.00000       0.00000    
     43593 TIP3     3477     SWM4     H2       HDW      0.557330       1.00800           0   0.00000       0.00000    
     43594 TIP3     3478     SWM4     OH2      ODW       1.71640       15.5994           0 -0.978253       1.30000    
     43595 TIP3     3478     SWM4     DOH2     DOH2     -1.71640      0.400000           0   0.00000       0.00000    
     43596 TIP3     3478     SWM4     OM       LPDW     -1.11466       0.00000          -1   0.00000       0.00000    
     43597 TIP3     3478     SWM4     H1       HDW      0.557330       1.00800           0   0.00000       0.00000    
     43598 TIP3     3478     SWM4     H2       HDW      0.557330       1.00800           0   0.00000       0.00000    
     43599 TIP3     3479     SWM4     OH2      ODW       1.71640       15.5994           0 -0.978253       1.30000    
     43600 TIP3     3479     SWM4     DOH2     DOH2     -1.71640      0.400000           0   0.00000       0.00000    
     43601 TIP3     3479     SWM4     OM       LPDW     -1.11466       0.00000          -1   0.00000       0.00000    
     43602 TIP3     3479     SWM4     H1       HDW      0.557330       1.00800           0   0.00000       0.00000    
     43603 TIP3     3479     SWM4     H2       HDW      0.557330       1.00800           0   0.00000       0.00000    
     43604 TIP3     3480     SWM4     OH2      ODW       1.71640       15.5994           0 -0.978253       1.30000    
     43605 TIP3     3480     SWM4     DOH2     DOH2     -1.71640      0.400000           0   0.00000       0.00000    
     43606 TIP3     3480     SWM4     OM       LPDW     -1.11466       0.00000          -1   0.00000       0.00000    
     43607 TIP3     3480     SWM4     H1       HDW      0.557330       1.00800           0   0.00000       0.00000    
     43608 TIP3     3480     SWM4     H2       HDW      0.557330       1.00800           0   0.00000       0.00000    
     43609 TIP3     3481     SWM4     OH2      ODW       1.71640       15.5994           0 -0.978253       1.30000    
     43610 TIP3     3481     SWM4     DOH2     DOH2     -1.71640      0.400000           0   0.00000       0.00000    
     43611 TIP3     3481     SWM4     OM       LPDW     -1.11466       0.00000          -1   0.00000       0.00000    
     43612 TIP3     3481     SWM4     H1       HDW      0.557330       1.00800           0   0.00000       0.00000    
     43613 TIP3     3481     SWM4     H2       HDW      0.557330       1.00800           0   0.00000       0.00000    
     43614 TIP3     3482     SWM4     OH2      ODW       1.71640       15.5994           0 -0.978253       1.30000    
     43615 TIP3     3482     SWM4     DOH2     DOH2     -1.71640      0.400000           0   0.00000       0.00000    
     43616 TIP3     3482     SWM4     OM       LPDW     -1.11466       0.00000          -1   0.00000       0.00000    
     43617 TIP3     3482     SWM4     H1       HDW      0.557330       1.00800           0   0.00000       0.00000    
     43618 TIP3     3482     SWM4     H2       HDW      0.557330       1.00800           0   0.00000       0.00000    
     43619 TIP3     3483     SWM4     OH2      ODW       1.71640       15.5994           0 -0.978253       1.30000    
     43620 TIP3     3483     SWM4     DOH2     DOH2     -1.71640      0.400000           0   0.00000       0.00000    
     43621 TIP3     3483     SWM4     OM       LPDW     -1.11466       0.00000          -1   0.00000       0.00000    
     43622 TIP3     3483     SWM4     H1       HDW      0.557330       1.00800           0   0.00000       0.00000    
     43623 TIP3     3483     SWM4     H2       HDW      0.557330       1.00800           0   0.00000       0.00000    
     43624 TIP3     3484     SWM4     OH2      ODW       1.71640       15.5994           0 -0.978253       1.30000    
     43625 TIP3     3484     SWM4     DOH2     DOH2     -1.71640      0.400000           0   0.00000       0.00000    
     43626 TIP3     3484     SWM4     OM       LPDW     -1.11466       0.00000          -1   0.00000       0.00000    
     43627 TIP3     3484     SWM4     H1       HDW      0.557330       1.00800           0   0.00000       0.00000    
     43628 TIP3     3484     SWM4     H2       HDW      0.557330       1.00800           0   0.00000       0.00000    
     43629 TIP3     3485     SWM4     OH2      ODW       1.71640       15.5994           0 -0.978253       1.30000    
     43630 TIP3     3485     SWM4     DOH2     DOH2     -1.71640      0.400000           0   0.00000       0.00000    
     43631 TIP3     3485     SWM4     OM       LPDW     -1.11466       0.00000          -1   0.00000       0.00000    
     43632 TIP3     3485     SWM4     H1       HDW      0.557330       1.00800           0   0.00000       0.00000    
     43633 TIP3     3485     SWM4     H2       HDW      0.557330       1.00800           0   0.00000       0.00000    
     43634 TIP3     3486     SWM4     OH2      ODW       1.71640       15.5994           0 -0.978253       1.30000    
     43635 TIP3     3486     SWM4     DOH2     DOH2     -1.71640      0.400000           0   0.00000       0.00000    
     43636 TIP3     3486     SWM4     OM       LPDW     -1.11466       0.00000          -1   0.00000       0.00000    
     43637 TIP3     3486     SWM4     H1       HDW      0.557330       1.00800           0   0.00000       0.00000    
     43638 TIP3     3486     SWM4     H2       HDW      0.557330       1.00800           0   0.00000       0.00000    
     43639 TIP3     3487     SWM4     OH2      ODW       1.71640       15.5994           0 -0.978253       1.30000    
     43640 TIP3     3487     SWM4     DOH2     DOH2     -1.71640      0.400000           0   0.00000       0.00000    
     43641 TIP3     3487     SWM4     OM       LPDW     -1.11466       0.00000          -1   0.00000       0.00000    
     43642 TIP3     3487     SWM4     H1       HDW      0.557330       1.00800           0   0.00000       0.00000    
     43643 TIP3     3487     SWM4     H2       HDW      0.557330       1.00800           0   0.00000       0.00000    
     43644 TIP3     3488     SWM4     OH2      ODW       1.71640       15.5994           0 -0.978253       1.30000    
     43645 TIP3     3488     SWM4     DOH2     DOH2     -1.71640      0.400000           0   0.00000       0.00000    
     43646 TIP3     3488     SWM4     OM       LPDW     -1.11466       0.00000          -1   0.00000       0.00000    
     43647 TIP3     3488     SWM4     H1       HDW      0.557330       1.00800           0   0.00000       0.00000    
     43648 TIP3     3488     SWM4     H2       HDW      0.557330       1.00800           0   0.00000       0.00000    
     43649 TIP3     3489     SWM4     OH2      ODW       1.71640       15.5994           0 -0.978253       1.30000    
     43650 TIP3     3489     SWM4     DOH2     DOH2     -1.71640      0.400000           0   0.00000       0.00000    
     43651 TIP3     3489     SWM4     OM       LPDW     -1.11466       0.00000          -1   0.00000       0.00000    
     43652 TIP3     3489     SWM4     H1       HDW      0.557330       1.00800           0   0.00000       0.00000    
     43653 TIP3     3489     SWM4     H2       HDW      0.557330       1.00800           0   0.00000       0.00000    
     43654 TIP3     3490     SWM4     OH2      ODW       1.71640       15.5994           0 -0.978253       1.30000    
     43655 TIP3     3490     SWM4     DOH2     DOH2     -1.71640      0.400000           0   0.00000       0.00000    
     43656 TIP3     3490     SWM4     OM       LPDW     -1.11466       0.00000          -1   0.00000       0.00000    
     43657 TIP3     3490     SWM4     H1       HDW      0.557330       1.00800           0   0.00000       0.00000    
     43658 TIP3     3490     SWM4     H2       HDW      0.557330       1.00800           0   0.00000       0.00000    
     43659 TIP3     3491     SWM4     OH2      ODW       1.71640       15.5994           0 -0.978253       1.30000    
     43660 TIP3     3491     SWM4     DOH2     DOH2     -1.71640      0.400000           0   0.00000       0.00000    
     43661 TIP3     3491     SWM4     OM       LPDW     -1.11466       0.00000          -1   0.00000       0.00000    
     43662 TIP3     3491     SWM4     H1       HDW      0.557330       1.00800           0   0.00000       0.00000    
     43663 TIP3     3491     SWM4     H2       HDW      0.557330       1.00800           0   0.00000       0.00000    
     43664 TIP3     3492     SWM4     OH2      ODW       1.71640       15.5994           0 -0.978253       1.30000    
     43665 TIP3     3492     SWM4     DOH2     DOH2     -1.71640      0.400000           0   0.00000       0.00000    
     43666 TIP3     3492     SWM4     OM       LPDW     -1.11466       0.00000          -1   0.00000       0.00000    
     43667 TIP3     3492     SWM4     H1       HDW      0.557330       1.00800           0   0.00000       0.00000    
     43668 TIP3     3492     SWM4     H2       HDW      0.557330       1.00800           0   0.00000       0.00000    
     43669 TIP3     3493     SWM4     OH2      ODW       1.71640       15.5994           0 -0.978253       1.30000    
     43670 TIP3     3493     SWM4     DOH2     DOH2     -1.71640      0.400000           0   0.00000       0.00000    
     43671 TIP3     3493     SWM4     OM       LPDW     -1.11466       0.00000          -1   0.00000       0.00000    
     43672 TIP3     3493     SWM4     H1       HDW      0.557330       1.00800           0   0.00000       0.00000    
     43673 TIP3     3493     SWM4     H2       HDW      0.557330       1.00800           0   0.00000       0.00000    
     43674 TIP3     3494     SWM4     OH2      ODW       1.71640       15.5994           0 -0.978253       1.30000    
     43675 TIP3     3494     SWM4     DOH2     DOH2     -1.71640      0.400000           0   0.00000       0.00000    
     43676 TIP3     3494     SWM4     OM       LPDW     -1.11466       0.00000          -1   0.00000       0.00000    
     43677 TIP3     3494     SWM4     H1       HDW      0.557330       1.00800           0   0.00000       0.00000    
     43678 TIP3     3494     SWM4     H2       HDW      0.557330       1.00800           0   0.00000       0.00000    
     43679 TIP3     3495     SWM4     OH2      ODW       1.71640       15.5994           0 -0.978253       1.30000    
     43680 TIP3     3495     SWM4     DOH2     DOH2     -1.71640      0.400000           0   0.00000       0.00000    
     43681 TIP3     3495     SWM4     OM       LPDW     -1.11466       0.00000          -1   0.00000       0.00000    
     43682 TIP3     3495     SWM4     H1       HDW      0.557330       1.00800           0   0.00000       0.00000    
     43683 TIP3     3495     SWM4     H2       HDW      0.557330       1.00800           0   0.00000       0.00000    
     43684 TIP3     3496     SWM4     OH2      ODW       1.71640       15.5994           0 -0.978253       1.30000    
     43685 TIP3     3496     SWM4     DOH2     DOH2     -1.71640      0.400000           0   0.00000       0.00000    
     43686 TIP3     3496     SWM4     OM       LPDW     -1.11466       0.00000          -1   0.00000       0.00000    
     43687 TIP3     3496     SWM4     H1       HDW      0.557330       1.00800           0   0.00000       0.00000    
     43688 TIP3     3496     SWM4     H2       HDW      0.557330       1.00800           0   0.00000       0.00000    
     43689 TIP3     3497     SWM4     OH2      ODW       1.71640       15.5994           0 -0.978253       1.30000    
     43690 TIP3     3497     SWM4     DOH2     DOH2     -1.71640      0.400000           0   0.00000       0.00000    
     43691 TIP3     3497     SWM4     OM       LPDW     -1.11466       0.00000          -1   0.00000       0.00000    
     43692 TIP3     3497     SWM4     H1       HDW      0.557330       1.00800           0   0.00000       0.00000    
     43693 TIP3     3497     SWM4     H2       HDW      0.557330       1.00800           0   0.00000       0.00000    
     43694 TIP3     3498     SWM4     OH2      ODW       1.71640       15.5994           0 -0.978253       1.30000    
     43695 TIP3     3498     SWM4     DOH2     DOH2     -1.71640      0.400000           0   0.00000       0.00000    
     43696 TIP3     3498     SWM4     OM       LPDW     -1.11466       0.00000          -1   0.00000       0.00000    
     43697 TIP3     3498     SWM4     H1       HDW      0.557330       1.00800           0   0.00000       0.00000    
     43698 TIP3     3498     SWM4     H2       HDW      0.557330       1.00800           0   0.00000       0.00000    
     43699 TIP3     3499     SWM4     OH2      ODW       1.71640       15.5994           0 -0.978253       1.30000    
     43700 TIP3     3499     SWM4     DOH2     DOH2     -1.71640      0.400000           0   0.00000       0.00000    
     43701 TIP3     3499     SWM4     OM       LPDW     -1.11466       0.00000          -1   0.00000       0.00000    
     43702 TIP3     3499     SWM4     H1       HDW      0.557330       1.00800           0   0.00000       0.00000    
     43703 TIP3     3499     SWM4     H2       HDW      0.557330       1.00800           0   0.00000       0.00000    
     43704 TIP3     3500     SWM4     OH2      ODW       1.71640       15.5994           0 -0.978253       1.30000    
     43705 TIP3     3500     SWM4     DOH2     DOH2     -1.71640      0.400000           0   0.00000       0.00000    
     43706 TIP3     3500     SWM4     OM       LPDW     -1.11466       0.00000          -1   0.00000       0.00000    
     43707 TIP3     3500     SWM4     H1       HDW      0.557330       1.00800           0   0.00000       0.00000    
     43708 TIP3     3500     SWM4     H2       HDW      0.557330       1.00800           0   0.00000       0.00000    
     43709 TIP3     3501     SWM4     OH2      ODW       1.71640       15.5994           0 -0.978253       1.30000    
     43710 TIP3     3501     SWM4     DOH2     DOH2     -1.71640      0.400000           0   0.00000       0.00000    
     43711 TIP3     3501     SWM4     OM       LPDW     -1.11466       0.00000          -1   0.00000       0.00000    
     43712 TIP3     3501     SWM4     H1       HDW      0.557330       1.00800           0   0.00000       0.00000    
     43713 TIP3     3501     SWM4     H2       HDW      0.557330       1.00800           0   0.00000       0.00000    
     43714 TIP3     3502     SWM4     OH2      ODW       1.71640       15.5994           0 -0.978253       1.30000    
     43715 TIP3     3502     SWM4     DOH2     DOH2     -1.71640      0.400000           0   0.00000       0.00000    
     43716 TIP3     3502     SWM4     OM       LPDW     -1.11466       0.00000          -1   0.00000       0.00000    
     43717 TIP3     3502     SWM4     H1       HDW      0.557330       1.00800           0   0.00000       0.00000    
     43718 TIP3     3502     SWM4     H2       HDW      0.557330       1.00800           0   0.00000       0.00000    
     43719 TIP3     3503     SWM4     OH2      ODW       1.71640       15.5994           0 -0.978253       1.30000    
     43720 TIP3     3503     SWM4     DOH2     DOH2     -1.71640      0.400000           0   0.00000       0.00000    
     43721 TIP3     3503     SWM4     OM       LPDW     -1.11466       0.00000          -1   0.00000       0.00000    
     43722 TIP3     3503     SWM4     H1       HDW      0.557330       1.00800           0   0.00000       0.00000    
     43723 TIP3     3503     SWM4     H2       HDW      0.557330       1.00800           0   0.00000       0.00000    
     43724 TIP3     3504     SWM4     OH2      ODW       1.71640       15.5994           0 -0.978253       1.30000    
     43725 TIP3     3504     SWM4     DOH2     DOH2     -1.71640      0.400000           0   0.00000       0.00000    
     43726 TIP3     3504     SWM4     OM       LPDW     -1.11466       0.00000          -1   0.00000       0.00000    
     43727 TIP3     3504     SWM4     H1       HDW      0.557330       1.00800           0   0.00000       0.00000    
     43728 TIP3     3504     SWM4     H2       HDW      0.557330       1.00800           0   0.00000       0.00000    
     43729 TIP3     3505     SWM4     OH2      ODW       1.71640       15.5994           0 -0.978253       1.30000    
     43730 TIP3     3505     SWM4     DOH2     DOH2     -1.71640      0.400000           0   0.00000       0.00000    
     43731 TIP3     3505     SWM4     OM       LPDW     -1.11466       0.00000          -1   0.00000       0.00000    
     43732 TIP3     3505     SWM4     H1       HDW      0.557330       1.00800           0   0.00000       0.00000    
     43733 TIP3     3505     SWM4     H2       HDW      0.557330       1.00800           0   0.00000       0.00000    
     43734 TIP3     3506     SWM4     OH2      ODW       1.71640       15.5994           0 -0.978253       1.30000    
     43735 TIP3     3506     SWM4     DOH2     DOH2     -1.71640      0.400000           0   0.00000       0.00000    
     43736 TIP3     3506     SWM4     OM       LPDW     -1.11466       0.00000          -1   0.00000       0.00000    
     43737 TIP3     3506     SWM4     H1       HDW      0.557330       1.00800           0   0.00000       0.00000    
     43738 TIP3     3506     SWM4     H2       HDW      0.557330       1.00800           0   0.00000       0.00000    
     43739 TIP3     3507     SWM4     OH2      ODW       1.71640       15.5994           0 -0.978253       1.30000    
     43740 TIP3     3507     SWM4     DOH2     DOH2     -1.71640      0.400000           0   0.00000       0.00000    
     43741 TIP3     3507     SWM4     OM       LPDW     -1.11466       0.00000          -1   0.00000       0.00000    
     43742 TIP3     3507     SWM4     H1       HDW      0.557330       1.00800           0   0.00000       0.00000    
     43743 TIP3     3507     SWM4     H2       HDW      0.557330       1.00800           0   0.00000       0.00000    
     43744 TIP3     3508     SWM4     OH2      ODW       1.71640       15.5994           0 -0.978253       1.30000    
     43745 TIP3     3508     SWM4     DOH2     DOH2     -1.71640      0.400000           0   0.00000       0.00000    
     43746 TIP3     3508     SWM4     OM       LPDW     -1.11466       0.00000          -1   0.00000       0.00000    
     43747 TIP3     3508     SWM4     H1       HDW      0.557330       1.00800           0   0.00000       0.00000    
     43748 TIP3     3508     SWM4     H2       HDW      0.557330       1.00800           0   0.00000       0.00000    
     43749 TIP3     3509     SWM4     OH2      ODW       1.71640       15.5994           0 -0.978253       1.30000    
     43750 TIP3     3509     SWM4     DOH2     DOH2     -1.71640      0.400000           0   0.00000       0.00000    
     43751 TIP3     3509     SWM4     OM       LPDW     -1.11466       0.00000          -1   0.00000       0.00000    
     43752 TIP3     3509     SWM4     H1       HDW      0.557330       1.00800           0   0.00000       0.00000    
     43753 TIP3     3509     SWM4     H2       HDW      0.557330       1.00800           0   0.00000       0.00000    
     43754 TIP3     3510     SWM4     OH2      ODW       1.71640       15.5994           0 -0.978253       1.30000    
     43755 TIP3     3510     SWM4     DOH2     DOH2     -1.71640      0.400000           0   0.00000       0.00000    
     43756 TIP3     3510     SWM4     OM       LPDW     -1.11466       0.00000          -1   0.00000       0.00000    
     43757 TIP3     3510     SWM4     H1       HDW      0.557330       1.00800           0   0.00000       0.00000    
     43758 TIP3     3510     SWM4     H2       HDW      0.557330       1.00800           0   0.00000       0.00000    
     43759 TIP3     3511     SWM4     OH2      ODW       1.71640       15.5994           0 -0.978253       1.30000    
     43760 TIP3     3511     SWM4     DOH2     DOH2     -1.71640      0.400000           0   0.00000       0.00000    
     43761 TIP3     3511     SWM4     OM       LPDW     -1.11466       0.00000          -1   0.00000       0.00000    
     43762 TIP3     3511     SWM4     H1       HDW      0.557330       1.00800           0   0.00000       0.00000    
     43763 TIP3     3511     SWM4     H2       HDW      0.557330       1.00800           0   0.00000       0.00000    
     43764 TIP3     3512     SWM4     OH2      ODW       1.71640       15.5994           0 -0.978253       1.30000    
     43765 TIP3     3512     SWM4     DOH2     DOH2     -1.71640      0.400000           0   0.00000       0.00000    
     43766 TIP3     3512     SWM4     OM       LPDW     -1.11466       0.00000          -1   0.00000       0.00000    
     43767 TIP3     3512     SWM4     H1       HDW      0.557330       1.00800           0   0.00000       0.00000    
     43768 TIP3     3512     SWM4     H2       HDW      0.557330       1.00800           0   0.00000       0.00000    
     43769 TIP3     3513     SWM4     OH2      ODW       1.71640       15.5994           0 -0.978253       1.30000    
     43770 TIP3     3513     SWM4     DOH2     DOH2     -1.71640      0.400000           0   0.00000       0.00000    
     43771 TIP3     3513     SWM4     OM       LPDW     -1.11466       0.00000          -1   0.00000       0.00000    
     43772 TIP3     3513     SWM4     H1       HDW      0.557330       1.00800           0   0.00000       0.00000    
     43773 TIP3     3513     SWM4     H2       HDW      0.557330       1.00800           0   0.00000       0.00000    
     43774 TIP3     3514     SWM4     OH2      ODW       1.71640       15.5994           0 -0.978253       1.30000    
     43775 TIP3     3514     SWM4     DOH2     DOH2     -1.71640      0.400000           0   0.00000       0.00000    
     43776 TIP3     3514     SWM4     OM       LPDW     -1.11466       0.00000          -1   0.00000       0.00000    
     43777 TIP3     3514     SWM4     H1       HDW      0.557330       1.00800           0   0.00000       0.00000    
     43778 TIP3     3514     SWM4     H2       HDW      0.557330       1.00800           0   0.00000       0.00000    
     43779 TIP3     3515     SWM4     OH2      ODW       1.71640       15.5994           0 -0.978253       1.30000    
     43780 TIP3     3515     SWM4     DOH2     DOH2     -1.71640      0.400000           0   0.00000       0.00000    
     43781 TIP3     3515     SWM4     OM       LPDW     -1.11466       0.00000          -1   0.00000       0.00000    
     43782 TIP3     3515     SWM4     H1       HDW      0.557330       1.00800           0   0.00000       0.00000    
     43783 TIP3     3515     SWM4     H2       HDW      0.557330       1.00800           0   0.00000       0.00000    
     43784 TIP3     3516     SWM4     OH2      ODW       1.71640       15.5994           0 -0.978253       1.30000    
     43785 TIP3     3516     SWM4     DOH2     DOH2     -1.71640      0.400000           0   0.00000       0.00000    
     43786 TIP3     3516     SWM4     OM       LPDW     -1.11466       0.00000          -1   0.00000       0.00000    
     43787 TIP3     3516     SWM4     H1       HDW      0.557330       1.00800           0   0.00000       0.00000    
     43788 TIP3     3516     SWM4     H2       HDW      0.557330       1.00800           0   0.00000       0.00000    
     43789 TIP3     3517     SWM4     OH2      ODW       1.71640       15.5994           0 -0.978253       1.30000    
     43790 TIP3     3517     SWM4     DOH2     DOH2     -1.71640      0.400000           0   0.00000       0.00000    
     43791 TIP3     3517     SWM4     OM       LPDW     -1.11466       0.00000          -1   0.00000       0.00000    
     43792 TIP3     3517     SWM4     H1       HDW      0.557330       1.00800           0   0.00000       0.00000    
     43793 TIP3     3517     SWM4     H2       HDW      0.557330       1.00800           0   0.00000       0.00000    
     43794 TIP3     3518     SWM4     OH2      ODW       1.71640       15.5994           0 -0.978253       1.30000    
     43795 TIP3     3518     SWM4     DOH2     DOH2     -1.71640      0.400000           0   0.00000       0.00000    
     43796 TIP3     3518     SWM4     OM       LPDW     -1.11466       0.00000          -1   0.00000       0.00000    
     43797 TIP3     3518     SWM4     H1       HDW      0.557330       1.00800           0   0.00000       0.00000    
     43798 TIP3     3518     SWM4     H2       HDW      0.557330       1.00800           0   0.00000       0.00000    
     43799 TIP3     3519     SWM4     OH2      ODW       1.71640       15.5994           0 -0.978253       1.30000    
     43800 TIP3     3519     SWM4     DOH2     DOH2     -1.71640      0.400000           0   0.00000       0.00000    
     43801 TIP3     3519     SWM4     OM       LPDW     -1.11466       0.00000          -1   0.00000       0.00000    
     43802 TIP3     3519     SWM4     H1       HDW      0.557330       1.00800           0   0.00000       0.00000    
     43803 TIP3     3519     SWM4     H2       HDW      0.557330       1.00800           0   0.00000       0.00000    
     43804 TIP3     3520     SWM4     OH2      ODW       1.71640       15.5994           0 -0.978253       1.30000    
     43805 TIP3     3520     SWM4     DOH2     DOH2     -1.71640      0.400000           0   0.00000       0.00000    
     43806 TIP3     3520     SWM4     OM       LPDW     -1.11466       0.00000          -1   0.00000       0.00000    
     43807 TIP3     3520     SWM4     H1       HDW      0.557330       1.00800           0   0.00000       0.00000    
     43808 TIP3     3520     SWM4     H2       HDW      0.557330       1.00800           0   0.00000       0.00000    
     43809 TIP3     3521     SWM4     OH2      ODW       1.71640       15.5994           0 -0.978253       1.30000    
     43810 TIP3     3521     SWM4     DOH2     DOH2     -1.71640      0.400000           0   0.00000       0.00000    
     43811 TIP3     3521     SWM4     OM       LPDW     -1.11466       0.00000          -1   0.00000       0.00000    
     43812 TIP3     3521     SWM4     H1       HDW      0.557330       1.00800           0   0.00000       0.00000    
     43813 TIP3     3521     SWM4     H2       HDW      0.557330       1.00800           0   0.00000       0.00000    
     43814 TIP3     3522     SWM4     OH2      ODW       1.71640       15.5994           0 -0.978253       1.30000    
     43815 TIP3     3522     SWM4     DOH2     DOH2     -1.71640      0.400000           0   0.00000       0.00000    
     43816 TIP3     3522     SWM4     OM       LPDW     -1.11466       0.00000          -1   0.00000       0.00000    
     43817 TIP3     3522     SWM4     H1       HDW      0.557330       1.00800           0   0.00000       0.00000    
     43818 TIP3     3522     SWM4     H2       HDW      0.557330       1.00800           0   0.00000       0.00000    
     43819 TIP3     3523     SWM4     OH2      ODW       1.71640       15.5994           0 -0.978253       1.30000    
     43820 TIP3     3523     SWM4     DOH2     DOH2     -1.71640      0.400000           0   0.00000       0.00000    
     43821 TIP3     3523     SWM4     OM       LPDW     -1.11466       0.00000          -1   0.00000       0.00000    
     43822 TIP3     3523     SWM4     H1       HDW      0.557330       1.00800           0   0.00000       0.00000    
     43823 TIP3     3523     SWM4     H2       HDW      0.557330       1.00800           0   0.00000       0.00000    
     43824 TIP3     3524     SWM4     OH2      ODW       1.71640       15.5994           0 -0.978253       1.30000    
     43825 TIP3     3524     SWM4     DOH2     DOH2     -1.71640      0.400000           0   0.00000       0.00000    
     43826 TIP3     3524     SWM4     OM       LPDW     -1.11466       0.00000          -1   0.00000       0.00000    
     43827 TIP3     3524     SWM4     H1       HDW      0.557330       1.00800           0   0.00000       0.00000    
     43828 TIP3     3524     SWM4     H2       HDW      0.557330       1.00800           0   0.00000       0.00000    
     43829 TIP3     3525     SWM4     OH2      ODW       1.71640       15.5994           0 -0.978253       1.30000    
     43830 TIP3     3525     SWM4     DOH2     DOH2     -1.71640      0.400000           0   0.00000       0.00000    
     43831 TIP3     3525     SWM4     OM       LPDW     -1.11466       0.00000          -1   0.00000       0.00000    
     43832 TIP3     3525     SWM4     H1       HDW      0.557330       1.00800           0   0.00000       0.00000    
     43833 TIP3     3525     SWM4     H2       HDW      0.557330       1.00800           0   0.00000       0.00000    
     43834 TIP3     3526     SWM4     OH2      ODW       1.71640       15.5994           0 -0.978253       1.30000    
     43835 TIP3     3526     SWM4     DOH2     DOH2     -1.71640      0.400000           0   0.00000       0.00000    
     43836 TIP3     3526     SWM4     OM       LPDW     -1.11466       0.00000          -1   0.00000       0.00000    
     43837 TIP3     3526     SWM4     H1       HDW      0.557330       1.00800           0   0.00000       0.00000    
     43838 TIP3     3526     SWM4     H2       HDW      0.557330       1.00800           0   0.00000       0.00000    
     43839 TIP3     3527     SWM4     OH2      ODW       1.71640       15.5994           0 -0.978253       1.30000    
     43840 TIP3     3527     SWM4     DOH2     DOH2     -1.71640      0.400000           0   0.00000       0.00000    
     43841 TIP3     3527     SWM4     OM       LPDW     -1.11466       0.00000          -1   0.00000       0.00000    
     43842 TIP3     3527     SWM4     H1       HDW      0.557330       1.00800           0   0.00000       0.00000    
     43843 TIP3     3527     SWM4     H2       HDW      0.557330       1.00800           0   0.00000       0.00000    
     43844 TIP3     3528     SWM4     OH2      ODW       1.71640       15.5994           0 -0.978253       1.30000    
     43845 TIP3     3528     SWM4     DOH2     DOH2     -1.71640      0.400000           0   0.00000       0.00000    
     43846 TIP3     3528     SWM4     OM       LPDW     -1.11466       0.00000          -1   0.00000       0.00000    
     43847 TIP3     3528     SWM4     H1       HDW      0.557330       1.00800           0   0.00000       0.00000    
     43848 TIP3     3528     SWM4     H2       HDW      0.557330       1.00800           0   0.00000       0.00000    
     43849 TIP3     3529     SWM4     OH2      ODW       1.71640       15.5994           0 -0.978253       1.30000    
     43850 TIP3     3529     SWM4     DOH2     DOH2     -1.71640      0.400000           0   0.00000       0.00000    
     43851 TIP3     3529     SWM4     OM       LPDW     -1.11466       0.00000          -1   0.00000       0.00000    
     43852 TIP3     3529     SWM4     H1       HDW      0.557330       1.00800           0   0.00000       0.00000    
     43853 TIP3     3529     SWM4     H2       HDW      0.557330       1.00800           0   0.00000       0.00000    
     43854 TIP3     3530     SWM4     OH2      ODW       1.71640       15.5994           0 -0.978253       1.30000    
     43855 TIP3     3530     SWM4     DOH2     DOH2     -1.71640      0.400000           0   0.00000       0.00000    
     43856 TIP3     3530     SWM4     OM       LPDW     -1.11466       0.00000          -1   0.00000       0.00000    
     43857 TIP3     3530     SWM4     H1       HDW      0.557330       1.00800           0   0.00000       0.00000    
     43858 TIP3     3530     SWM4     H2       HDW      0.557330       1.00800           0   0.00000       0.00000    
     43859 TIP3     3531     SWM4     OH2      ODW       1.71640       15.5994           0 -0.978253       1.30000    
     43860 TIP3     3531     SWM4     DOH2     DOH2     -1.71640      0.400000           0   0.00000       0.00000    
     43861 TIP3     3531     SWM4     OM       LPDW     -1.11466       0.00000          -1   0.00000       0.00000    
     43862 TIP3     3531     SWM4     H1       HDW      0.557330       1.00800           0   0.00000       0.00000    
     43863 TIP3     3531     SWM4     H2       HDW      0.557330       1.00800           0   0.00000       0.00000    
     43864 TIP3     3532     SWM4     OH2      ODW       1.71640       15.5994           0 -0.978253       1.30000    
     43865 TIP3     3532     SWM4     DOH2     DOH2     -1.71640      0.400000           0   0.00000       0.00000    
     43866 TIP3     3532     SWM4     OM       LPDW     -1.11466       0.00000          -1   0.00000       0.00000    
     43867 TIP3     3532     SWM4     H1       HDW      0.557330       1.00800           0   0.00000       0.00000    
     43868 TIP3     3532     SWM4     H2       HDW      0.557330       1.00800           0   0.00000       0.00000    
     43869 TIP3     3533     SWM4     OH2      ODW       1.71640       15.5994           0 -0.978253       1.30000    
     43870 TIP3     3533     SWM4     DOH2     DOH2     -1.71640      0.400000           0   0.00000       0.00000    
     43871 TIP3     3533     SWM4     OM       LPDW     -1.11466       0.00000          -1   0.00000       0.00000    
     43872 TIP3     3533     SWM4     H1       HDW      0.557330       1.00800           0   0.00000       0.00000    
     43873 TIP3     3533     SWM4     H2       HDW      0.557330       1.00800           0   0.00000       0.00000    
     43874 TIP3     3534     SWM4     OH2      ODW       1.71640       15.5994           0 -0.978253       1.30000    
     43875 TIP3     3534     SWM4     DOH2     DOH2     -1.71640      0.400000           0   0.00000       0.00000    
     43876 TIP3     3534     SWM4     OM       LPDW     -1.11466       0.00000          -1   0.00000       0.00000    
     43877 TIP3     3534     SWM4     H1       HDW      0.557330       1.00800           0   0.00000       0.00000    
     43878 TIP3     3534     SWM4     H2       HDW      0.557330       1.00800           0   0.00000       0.00000    
     43879 TIP3     3535     SWM4     OH2      ODW       1.71640       15.5994           0 -0.978253       1.30000    
     43880 TIP3     3535     SWM4     DOH2     DOH2     -1.71640      0.400000           0   0.00000       0.00000    
     43881 TIP3     3535     SWM4     OM       LPDW     -1.11466       0.00000          -1   0.00000       0.00000    
     43882 TIP3     3535     SWM4     H1       HDW      0.557330       1.00800           0   0.00000       0.00000    
     43883 TIP3     3535     SWM4     H2       HDW      0.557330       1.00800           0   0.00000       0.00000    
     43884 TIP3     3536     SWM4     OH2      ODW       1.71640       15.5994           0 -0.978253       1.30000    
     43885 TIP3     3536     SWM4     DOH2     DOH2     -1.71640      0.400000           0   0.00000       0.00000    
     43886 TIP3     3536     SWM4     OM       LPDW     -1.11466       0.00000          -1   0.00000       0.00000    
     43887 TIP3     3536     SWM4     H1       HDW      0.557330       1.00800           0   0.00000       0.00000    
     43888 TIP3     3536     SWM4     H2       HDW      0.557330       1.00800           0   0.00000       0.00000    
     43889 TIP3     3537     SWM4     OH2      ODW       1.71640       15.5994           0 -0.978253       1.30000    
     43890 TIP3     3537     SWM4     DOH2     DOH2     -1.71640      0.400000           0   0.00000       0.00000    
     43891 TIP3     3537     SWM4     OM       LPDW     -1.11466       0.00000          -1   0.00000       0.00000    
     43892 TIP3     3537     SWM4     H1       HDW      0.557330       1.00800           0   0.00000       0.00000    
     43893 TIP3     3537     SWM4     H2       HDW      0.557330       1.00800           0   0.00000       0.00000    
     43894 TIP3     3538     SWM4     OH2      ODW       1.71640       15.5994           0 -0.978253       1.30000    
     43895 TIP3     3538     SWM4     DOH2     DOH2     -1.71640      0.400000           0   0.00000       0.00000    
     43896 TIP3     3538     SWM4     OM       LPDW     -1.11466       0.00000          -1   0.00000       0.00000    
     43897 TIP3     3538     SWM4     H1       HDW      0.557330       1.00800           0   0.00000       0.00000    
     43898 TIP3     3538     SWM4     H2       HDW      0.557330       1.00800           0   0.00000       0.00000    
     43899 TIP3     3539     SWM4     OH2      ODW       1.71640       15.5994           0 -0.978253       1.30000    
     43900 TIP3     3539     SWM4     DOH2     DOH2     -1.71640      0.400000           0   0.00000       0.00000    
     43901 TIP3     3539     SWM4     OM       LPDW     -1.11466       0.00000          -1   0.00000       0.00000    
     43902 TIP3     3539     SWM4     H1       HDW      0.557330       1.00800           0   0.00000       0.00000    
     43903 TIP3     3539     SWM4     H2       HDW      0.557330       1.00800           0   0.00000       0.00000    
     43904 TIP3     3540     SWM4     OH2      ODW       1.71640       15.5994           0 -0.978253       1.30000    
     43905 TIP3     3540     SWM4     DOH2     DOH2     -1.71640      0.400000           0   0.00000       0.00000    
     43906 TIP3     3540     SWM4     OM       LPDW     -1.11466       0.00000          -1   0.00000       0.00000    
     43907 TIP3     3540     SWM4     H1       HDW      0.557330       1.00800           0   0.00000       0.00000    
     43908 TIP3     3540     SWM4     H2       HDW      0.557330       1.00800           0   0.00000       0.00000    
     43909 TIP3     3541     SWM4     OH2      ODW       1.71640       15.5994           0 -0.978253       1.30000    
     43910 TIP3     3541     SWM4     DOH2     DOH2     -1.71640      0.400000           0   0.00000       0.00000    
     43911 TIP3     3541     SWM4     OM       LPDW     -1.11466       0.00000          -1   0.00000       0.00000    
     43912 TIP3     3541     SWM4     H1       HDW      0.557330       1.00800           0   0.00000       0.00000    
     43913 TIP3     3541     SWM4     H2       HDW      0.557330       1.00800           0   0.00000       0.00000    
     43914 TIP3     3542     SWM4     OH2      ODW       1.71640       15.5994           0 -0.978253       1.30000    
     43915 TIP3     3542     SWM4     DOH2     DOH2     -1.71640      0.400000           0   0.00000       0.00000    
     43916 TIP3     3542     SWM4     OM       LPDW     -1.11466       0.00000          -1   0.00000       0.00000    
     43917 TIP3     3542     SWM4     H1       HDW      0.557330       1.00800           0   0.00000       0.00000    
     43918 TIP3     3542     SWM4     H2       HDW      0.557330       1.00800           0   0.00000       0.00000    
     43919 TIP3     3543     SWM4     OH2      ODW       1.71640       15.5994           0 -0.978253       1.30000    
     43920 TIP3     3543     SWM4     DOH2     DOH2     -1.71640      0.400000           0   0.00000       0.00000    
     43921 TIP3     3543     SWM4     OM       LPDW     -1.11466       0.00000          -1   0.00000       0.00000    
     43922 TIP3     3543     SWM4     H1       HDW      0.557330       1.00800           0   0.00000       0.00000    
     43923 TIP3     3543     SWM4     H2       HDW      0.557330       1.00800           0   0.00000       0.00000    
     43924 TIP3     3544     SWM4     OH2      ODW       1.71640       15.5994           0 -0.978253       1.30000    
     43925 TIP3     3544     SWM4     DOH2     DOH2     -1.71640      0.400000           0   0.00000       0.00000    
     43926 TIP3     3544     SWM4     OM       LPDW     -1.11466       0.00000          -1   0.00000       0.00000    
     43927 TIP3     3544     SWM4     H1       HDW      0.557330       1.00800           0   0.00000       0.00000    
     43928 TIP3     3544     SWM4     H2       HDW      0.557330       1.00800           0   0.00000       0.00000    
     43929 TIP3     3545     SWM4     OH2      ODW       1.71640       15.5994           0 -0.978253       1.30000    
     43930 TIP3     3545     SWM4     DOH2     DOH2     -1.71640      0.400000           0   0.00000       0.00000    
     43931 TIP3     3545     SWM4     OM       LPDW     -1.11466       0.00000          -1   0.00000       0.00000    
     43932 TIP3     3545     SWM4     H1       HDW      0.557330       1.00800           0   0.00000       0.00000    
     43933 TIP3     3545     SWM4     H2       HDW      0.557330       1.00800           0   0.00000       0.00000    
     43934 TIP3     3546     SWM4     OH2      ODW       1.71640       15.5994           0 -0.978253       1.30000    
     43935 TIP3     3546     SWM4     DOH2     DOH2     -1.71640      0.400000           0   0.00000       0.00000    
     43936 TIP3     3546     SWM4     OM       LPDW     -1.11466       0.00000          -1   0.00000       0.00000    
     43937 TIP3     3546     SWM4     H1       HDW      0.557330       1.00800           0   0.00000       0.00000    
     43938 TIP3     3546     SWM4     H2       HDW      0.557330       1.00800           0   0.00000       0.00000    
     43939 TIP3     3547     SWM4     OH2      ODW       1.71640       15.5994           0 -0.978253       1.30000    
     43940 TIP3     3547     SWM4     DOH2     DOH2     -1.71640      0.400000           0   0.00000       0.00000    
     43941 TIP3     3547     SWM4     OM       LPDW     -1.11466       0.00000          -1   0.00000       0.00000    
     43942 TIP3     3547     SWM4     H1       HDW      0.557330       1.00800           0   0.00000       0.00000    
     43943 TIP3     3547     SWM4     H2       HDW      0.557330       1.00800           0   0.00000       0.00000    
     43944 TIP3     3548     SWM4     OH2      ODW       1.71640       15.5994           0 -0.978253       1.30000    
     43945 TIP3     3548     SWM4     DOH2     DOH2     -1.71640      0.400000           0   0.00000       0.00000    
     43946 TIP3     3548     SWM4     OM       LPDW     -1.11466       0.00000          -1   0.00000       0.00000    
     43947 TIP3     3548     SWM4     H1       HDW      0.557330       1.00800           0   0.00000       0.00000    
     43948 TIP3     3548     SWM4     H2       HDW      0.557330       1.00800           0   0.00000       0.00000    
     43949 TIP3     3549     SWM4     OH2      ODW       1.71640       15.5994           0 -0.978253       1.30000    
     43950 TIP3     3549     SWM4     DOH2     DOH2     -1.71640      0.400000           0   0.00000       0.00000    
     43951 TIP3     3549     SWM4     OM       LPDW     -1.11466       0.00000          -1   0.00000       0.00000    
     43952 TIP3     3549     SWM4     H1       HDW      0.557330       1.00800           0   0.00000       0.00000    
     43953 TIP3     3549     SWM4     H2       HDW      0.557330       1.00800           0   0.00000       0.00000    
     43954 TIP3     3550     SWM4     OH2      ODW       1.71640       15.5994           0 -0.978253       1.30000    
     43955 TIP3     3550     SWM4     DOH2     DOH2     -1.71640      0.400000           0   0.00000       0.00000    
     43956 TIP3     3550     SWM4     OM       LPDW     -1.11466       0.00000          -1   0.00000       0.00000    
     43957 TIP3     3550     SWM4     H1       HDW      0.557330       1.00800           0   0.00000       0.00000    
     43958 TIP3     3550     SWM4     H2       HDW      0.557330       1.00800           0   0.00000       0.00000    
     43959 TIP3     3551     SWM4     OH2      ODW       1.71640       15.5994           0 -0.978253       1.30000    
     43960 TIP3     3551     SWM4     DOH2     DOH2     -1.71640      0.400000           0   0.00000       0.00000    
     43961 TIP3     3551     SWM4     OM       LPDW     -1.11466       0.00000          -1   0.00000       0.00000    
     43962 TIP3     3551     SWM4     H1       HDW      0.557330       1.00800           0   0.00000       0.00000    
     43963 TIP3     3551     SWM4     H2       HDW      0.557330       1.00800           0   0.00000       0.00000    
     43964 TIP3     3552     SWM4     OH2      ODW       1.71640       15.5994           0 -0.978253       1.30000    
     43965 TIP3     3552     SWM4     DOH2     DOH2     -1.71640      0.400000           0   0.00000       0.00000    
     43966 TIP3     3552     SWM4     OM       LPDW     -1.11466       0.00000          -1   0.00000       0.00000    
     43967 TIP3     3552     SWM4     H1       HDW      0.557330       1.00800           0   0.00000       0.00000    
     43968 TIP3     3552     SWM4     H2       HDW      0.557330       1.00800           0   0.00000       0.00000    
     43969 TIP3     3553     SWM4     OH2      ODW       1.71640       15.5994           0 -0.978253       1.30000    
     43970 TIP3     3553     SWM4     DOH2     DOH2     -1.71640      0.400000           0   0.00000       0.00000    
     43971 TIP3     3553     SWM4     OM       LPDW     -1.11466       0.00000          -1   0.00000       0.00000    
     43972 TIP3     3553     SWM4     H1       HDW      0.557330       1.00800           0   0.00000       0.00000    
     43973 TIP3     3553     SWM4     H2       HDW      0.557330       1.00800           0   0.00000       0.00000    
     43974 TIP3     3554     SWM4     OH2      ODW       1.71640       15.5994           0 -0.978253       1.30000    
     43975 TIP3     3554     SWM4     DOH2     DOH2     -1.71640      0.400000           0   0.00000       0.00000    
     43976 TIP3     3554     SWM4     OM       LPDW     -1.11466       0.00000          -1   0.00000       0.00000    
     43977 TIP3     3554     SWM4     H1       HDW      0.557330       1.00800           0   0.00000       0.00000    
     43978 TIP3     3554     SWM4     H2       HDW      0.557330       1.00800           0   0.00000       0.00000    
     43979 TIP3     3555     SWM4     OH2      ODW       1.71640       15.5994           0 -0.978253       1.30000    
     43980 TIP3     3555     SWM4     DOH2     DOH2     -1.71640      0.400000           0   0.00000       0.00000    
     43981 TIP3     3555     SWM4     OM       LPDW     -1.11466       0.00000          -1   0.00000       0.00000    
     43982 TIP3     3555     SWM4     H1       HDW      0.557330       1.00800           0   0.00000       0.00000    
     43983 TIP3     3555     SWM4     H2       HDW      0.557330       1.00800           0   0.00000       0.00000    
     43984 TIP3     3556     SWM4     OH2      ODW       1.71640       15.5994           0 -0.978253       1.30000    
     43985 TIP3     3556     SWM4     DOH2     DOH2     -1.71640      0.400000           0   0.00000       0.00000    
     43986 TIP3     3556     SWM4     OM       LPDW     -1.11466       0.00000          -1   0.00000       0.00000    
     43987 TIP3     3556     SWM4     H1       HDW      0.557330       1.00800           0   0.00000       0.00000    
     43988 TIP3     3556     SWM4     H2       HDW      0.557330       1.00800           0   0.00000       0.00000    
     43989 TIP3     3557     SWM4     OH2      ODW       1.71640       15.5994           0 -0.978253       1.30000    
     43990 TIP3     3557     SWM4     DOH2     DOH2     -1.71640      0.400000           0   0.00000       0.00000    
     43991 TIP3     3557     SWM4     OM       LPDW     -1.11466       0.00000          -1   0.00000       0.00000    
     43992 TIP3     3557     SWM4     H1       HDW      0.557330       1.00800           0   0.00000       0.00000    
     43993 TIP3     3557     SWM4     H2       HDW      0.557330       1.00800           0   0.00000       0.00000    
     43994 TIP3     3558     SWM4     OH2      ODW       1.71640       15.5994           0 -0.978253       1.30000    
     43995 TIP3     3558     SWM4     DOH2     DOH2     -1.71640      0.400000           0   0.00000       0.00000    
     43996 TIP3     3558     SWM4     OM       LPDW     -1.11466       0.00000          -1   0.00000       0.00000    
     43997 TIP3     3558     SWM4     H1       HDW      0.557330       1.00800           0   0.00000       0.00000    
     43998 TIP3     3558     SWM4     H2       HDW      0.557330       1.00800           0   0.00000       0.00000    
     43999 TIP3     3559     SWM4     OH2      ODW       1.71640       15.5994           0 -0.978253       1.30000    
     44000 TIP3     3559     SWM4     DOH2     DOH2     -1.71640      0.400000           0   0.00000       0.00000    
     44001 TIP3     3559     SWM4     OM       LPDW     -1.11466       0.00000          -1   0.00000       0.00000    
     44002 TIP3     3559     SWM4     H1       HDW      0.557330       1.00800           0   0.00000       0.00000    
     44003 TIP3     3559     SWM4     H2       HDW      0.557330       1.00800           0   0.00000       0.00000    
     44004 TIP3     3560     SWM4     OH2      ODW       1.71640       15.5994           0 -0.978253       1.30000    
     44005 TIP3     3560     SWM4     DOH2     DOH2     -1.71640      0.400000           0   0.00000       0.00000    
     44006 TIP3     3560     SWM4     OM       LPDW     -1.11466       0.00000          -1   0.00000       0.00000    
     44007 TIP3     3560     SWM4     H1       HDW      0.557330       1.00800           0   0.00000       0.00000    
     44008 TIP3     3560     SWM4     H2       HDW      0.557330       1.00800           0   0.00000       0.00000    
     44009 TIP3     3561     SWM4     OH2      ODW       1.71640       15.5994           0 -0.978253       1.30000    
     44010 TIP3     3561     SWM4     DOH2     DOH2     -1.71640      0.400000           0   0.00000       0.00000    
     44011 TIP3     3561     SWM4     OM       LPDW     -1.11466       0.00000          -1   0.00000       0.00000    
     44012 TIP3     3561     SWM4     H1       HDW      0.557330       1.00800           0   0.00000       0.00000    
     44013 TIP3     3561     SWM4     H2       HDW      0.557330       1.00800           0   0.00000       0.00000    
     44014 TIP3     3562     SWM4     OH2      ODW       1.71640       15.5994           0 -0.978253       1.30000    
     44015 TIP3     3562     SWM4     DOH2     DOH2     -1.71640      0.400000           0   0.00000       0.00000    
     44016 TIP3     3562     SWM4     OM       LPDW     -1.11466       0.00000          -1   0.00000       0.00000    
     44017 TIP3     3562     SWM4     H1       HDW      0.557330       1.00800           0   0.00000       0.00000    
     44018 TIP3     3562     SWM4     H2       HDW      0.557330       1.00800           0   0.00000       0.00000    
     44019 TIP3     3563     SWM4     OH2      ODW       1.71640       15.5994           0 -0.978253       1.30000    
     44020 TIP3     3563     SWM4     DOH2     DOH2     -1.71640      0.400000           0   0.00000       0.00000    
     44021 TIP3     3563     SWM4     OM       LPDW     -1.11466       0.00000          -1   0.00000       0.00000    
     44022 TIP3     3563     SWM4     H1       HDW      0.557330       1.00800           0   0.00000       0.00000    
     44023 TIP3     3563     SWM4     H2       HDW      0.557330       1.00800           0   0.00000       0.00000    
     44024 TIP3     3564     SWM4     OH2      ODW       1.71640       15.5994           0 -0.978253       1.30000    
     44025 TIP3     3564     SWM4     DOH2     DOH2     -1.71640      0.400000           0   0.00000       0.00000    
     44026 TIP3     3564     SWM4     OM       LPDW     -1.11466       0.00000          -1   0.00000       0.00000    
     44027 TIP3     3564     SWM4     H1       HDW      0.557330       1.00800           0   0.00000       0.00000    
     44028 TIP3     3564     SWM4     H2       HDW      0.557330       1.00800           0   0.00000       0.00000    
     44029 TIP3     3565     SWM4     OH2      ODW       1.71640       15.5994           0 -0.978253       1.30000    
     44030 TIP3     3565     SWM4     DOH2     DOH2     -1.71640      0.400000           0   0.00000       0.00000    
     44031 TIP3     3565     SWM4     OM       LPDW     -1.11466       0.00000          -1   0.00000       0.00000    
     44032 TIP3     3565     SWM4     H1       HDW      0.557330       1.00800           0   0.00000       0.00000    
     44033 TIP3     3565     SWM4     H2       HDW      0.557330       1.00800           0   0.00000       0.00000    
     44034 TIP3     3566     SWM4     OH2      ODW       1.71640       15.5994           0 -0.978253       1.30000    
     44035 TIP3     3566     SWM4     DOH2     DOH2     -1.71640      0.400000           0   0.00000       0.00000    
     44036 TIP3     3566     SWM4     OM       LPDW     -1.11466       0.00000          -1   0.00000       0.00000    
     44037 TIP3     3566     SWM4     H1       HDW      0.557330       1.00800           0   0.00000       0.00000    
     44038 TIP3     3566     SWM4     H2       HDW      0.557330       1.00800           0   0.00000       0.00000    
     44039 TIP3     3567     SWM4     OH2      ODW       1.71640       15.5994           0 -0.978253       1.30000    
     44040 TIP3     3567     SWM4     DOH2     DOH2     -1.71640      0.400000           0   0.00000       0.00000    
     44041 TIP3     3567     SWM4     OM       LPDW     -1.11466       0.00000          -1   0.00000       0.00000    
     44042 TIP3     3567     SWM4     H1       HDW      0.557330       1.00800           0   0.00000       0.00000    
     44043 TIP3     3567     SWM4     H2       HDW      0.557330       1.00800           0   0.00000       0.00000    
     44044 TIP3     3568     SWM4     OH2      ODW       1.71640       15.5994           0 -0.978253       1.30000    
     44045 TIP3     3568     SWM4     DOH2     DOH2     -1.71640      0.400000           0   0.00000       0.00000    
     44046 TIP3     3568     SWM4     OM       LPDW     -1.11466       0.00000          -1   0.00000       0.00000    
     44047 TIP3     3568     SWM4     H1       HDW      0.557330       1.00800           0   0.00000       0.00000    
     44048 TIP3     3568     SWM4     H2       HDW      0.557330       1.00800           0   0.00000       0.00000    
     44049 TIP3     3569     SWM4     OH2      ODW       1.71640       15.5994           0 -0.978253       1.30000    
     44050 TIP3     3569     SWM4     DOH2     DOH2     -1.71640      0.400000           0   0.00000       0.00000    
     44051 TIP3     3569     SWM4     OM       LPDW     -1.11466       0.00000          -1   0.00000       0.00000    
     44052 TIP3     3569     SWM4     H1       HDW      0.557330       1.00800           0   0.00000       0.00000    
     44053 TIP3     3569     SWM4     H2       HDW      0.557330       1.00800           0   0.00000       0.00000    
     44054 TIP3     3570     SWM4     OH2      ODW       1.71640       15.5994           0 -0.978253       1.30000    
     44055 TIP3     3570     SWM4     DOH2     DOH2     -1.71640      0.400000           0   0.00000       0.00000    
     44056 TIP3     3570     SWM4     OM       LPDW     -1.11466       0.00000          -1   0.00000       0.00000    
     44057 TIP3     3570     SWM4     H1       HDW      0.557330       1.00800           0   0.00000       0.00000    
     44058 TIP3     3570     SWM4     H2       HDW      0.557330       1.00800           0   0.00000       0.00000    
     44059 TIP3     3571     SWM4     OH2      ODW       1.71640       15.5994           0 -0.978253       1.30000    
     44060 TIP3     3571     SWM4     DOH2     DOH2     -1.71640      0.400000           0   0.00000       0.00000    
     44061 TIP3     3571     SWM4     OM       LPDW     -1.11466       0.00000          -1   0.00000       0.00000    
     44062 TIP3     3571     SWM4     H1       HDW      0.557330       1.00800           0   0.00000       0.00000    
     44063 TIP3     3571     SWM4     H2       HDW      0.557330       1.00800           0   0.00000       0.00000    
     44064 TIP3     3572     SWM4     OH2      ODW       1.71640       15.5994           0 -0.978253       1.30000    
     44065 TIP3     3572     SWM4     DOH2     DOH2     -1.71640      0.400000           0   0.00000       0.00000    
     44066 TIP3     3572     SWM4     OM       LPDW     -1.11466       0.00000          -1   0.00000       0.00000    
     44067 TIP3     3572     SWM4     H1       HDW      0.557330       1.00800           0   0.00000       0.00000    
     44068 TIP3     3572     SWM4     H2       HDW      0.557330       1.00800           0   0.00000       0.00000    
     44069 TIP3     3573     SWM4     OH2      ODW       1.71640       15.5994           0 -0.978253       1.30000    
     44070 TIP3     3573     SWM4     DOH2     DOH2     -1.71640      0.400000           0   0.00000       0.00000    
     44071 TIP3     3573     SWM4     OM       LPDW     -1.11466       0.00000          -1   0.00000       0.00000    
     44072 TIP3     3573     SWM4     H1       HDW      0.557330       1.00800           0   0.00000       0.00000    
     44073 TIP3     3573     SWM4     H2       HDW      0.557330       1.00800           0   0.00000       0.00000    
     44074 TIP3     3574     SWM4     OH2      ODW       1.71640       15.5994           0 -0.978253       1.30000    
     44075 TIP3     3574     SWM4     DOH2     DOH2     -1.71640      0.400000           0   0.00000       0.00000    
     44076 TIP3     3574     SWM4     OM       LPDW     -1.11466       0.00000          -1   0.00000       0.00000    
     44077 TIP3     3574     SWM4     H1       HDW      0.557330       1.00800           0   0.00000       0.00000    
     44078 TIP3     3574     SWM4     H2       HDW      0.557330       1.00800           0   0.00000       0.00000    
     44079 TIP3     3575     SWM4     OH2      ODW       1.71640       15.5994           0 -0.978253       1.30000    
     44080 TIP3     3575     SWM4     DOH2     DOH2     -1.71640      0.400000           0   0.00000       0.00000    
     44081 TIP3     3575     SWM4     OM       LPDW     -1.11466       0.00000          -1   0.00000       0.00000    
     44082 TIP3     3575     SWM4     H1       HDW      0.557330       1.00800           0   0.00000       0.00000    
     44083 TIP3     3575     SWM4     H2       HDW      0.557330       1.00800           0   0.00000       0.00000    
     44084 TIP3     3576     SWM4     OH2      ODW       1.71640       15.5994           0 -0.978253       1.30000    
     44085 TIP3     3576     SWM4     DOH2     DOH2     -1.71640      0.400000           0   0.00000       0.00000    
     44086 TIP3     3576     SWM4     OM       LPDW     -1.11466       0.00000          -1   0.00000       0.00000    
     44087 TIP3     3576     SWM4     H1       HDW      0.557330       1.00800           0   0.00000       0.00000    
     44088 TIP3     3576     SWM4     H2       HDW      0.557330       1.00800           0   0.00000       0.00000    
     44089 TIP3     3577     SWM4     OH2      ODW       1.71640       15.5994           0 -0.978253       1.30000    
     44090 TIP3     3577     SWM4     DOH2     DOH2     -1.71640      0.400000           0   0.00000       0.00000    
     44091 TIP3     3577     SWM4     OM       LPDW     -1.11466       0.00000          -1   0.00000       0.00000    
     44092 TIP3     3577     SWM4     H1       HDW      0.557330       1.00800           0   0.00000       0.00000    
     44093 TIP3     3577     SWM4     H2       HDW      0.557330       1.00800           0   0.00000       0.00000    
     44094 TIP3     3578     SWM4     OH2      ODW       1.71640       15.5994           0 -0.978253       1.30000    
     44095 TIP3     3578     SWM4     DOH2     DOH2     -1.71640      0.400000           0   0.00000       0.00000    
     44096 TIP3     3578     SWM4     OM       LPDW     -1.11466       0.00000          -1   0.00000       0.00000    
     44097 TIP3     3578     SWM4     H1       HDW      0.557330       1.00800           0   0.00000       0.00000    
     44098 TIP3     3578     SWM4     H2       HDW      0.557330       1.00800           0   0.00000       0.00000    
     44099 TIP3     3579     SWM4     OH2      ODW       1.71640       15.5994           0 -0.978253       1.30000    
     44100 TIP3     3579     SWM4     DOH2     DOH2     -1.71640      0.400000           0   0.00000       0.00000    
     44101 TIP3     3579     SWM4     OM       LPDW     -1.11466       0.00000          -1   0.00000       0.00000    
     44102 TIP3     3579     SWM4     H1       HDW      0.557330       1.00800           0   0.00000       0.00000    
     44103 TIP3     3579     SWM4     H2       HDW      0.557330       1.00800           0   0.00000       0.00000    
     44104 TIP3     3580     SWM4     OH2      ODW       1.71640       15.5994           0 -0.978253       1.30000    
     44105 TIP3     3580     SWM4     DOH2     DOH2     -1.71640      0.400000           0   0.00000       0.00000    
     44106 TIP3     3580     SWM4     OM       LPDW     -1.11466       0.00000          -1   0.00000       0.00000    
     44107 TIP3     3580     SWM4     H1       HDW      0.557330       1.00800           0   0.00000       0.00000    
     44108 TIP3     3580     SWM4     H2       HDW      0.557330       1.00800           0   0.00000       0.00000    
     44109 TIP3     3581     SWM4     OH2      ODW       1.71640       15.5994           0 -0.978253       1.30000    
     44110 TIP3     3581     SWM4     DOH2     DOH2     -1.71640      0.400000           0   0.00000       0.00000    
     44111 TIP3     3581     SWM4     OM       LPDW     -1.11466       0.00000          -1   0.00000       0.00000    
     44112 TIP3     3581     SWM4     H1       HDW      0.557330       1.00800           0   0.00000       0.00000    
     44113 TIP3     3581     SWM4     H2       HDW      0.557330       1.00800           0   0.00000       0.00000    
     44114 TIP3     3582     SWM4     OH2      ODW       1.71640       15.5994           0 -0.978253       1.30000    
     44115 TIP3     3582     SWM4     DOH2     DOH2     -1.71640      0.400000           0   0.00000       0.00000    
     44116 TIP3     3582     SWM4     OM       LPDW     -1.11466       0.00000          -1   0.00000       0.00000    
     44117 TIP3     3582     SWM4     H1       HDW      0.557330       1.00800           0   0.00000       0.00000    
     44118 TIP3     3582     SWM4     H2       HDW      0.557330       1.00800           0   0.00000       0.00000    
     44119 TIP3     3583     SWM4     OH2      ODW       1.71640       15.5994           0 -0.978253       1.30000    
     44120 TIP3     3583     SWM4     DOH2     DOH2     -1.71640      0.400000           0   0.00000       0.00000    
     44121 TIP3     3583     SWM4     OM       LPDW     -1.11466       0.00000          -1   0.00000       0.00000    
     44122 TIP3     3583     SWM4     H1       HDW      0.557330       1.00800           0   0.00000       0.00000    
     44123 TIP3     3583     SWM4     H2       HDW      0.557330       1.00800           0   0.00000       0.00000    
     44124 TIP3     3584     SWM4     OH2      ODW       1.71640       15.5994           0 -0.978253       1.30000    
     44125 TIP3     3584     SWM4     DOH2     DOH2     -1.71640      0.400000           0   0.00000       0.00000    
     44126 TIP3     3584     SWM4     OM       LPDW     -1.11466       0.00000          -1   0.00000       0.00000    
     44127 TIP3     3584     SWM4     H1       HDW      0.557330       1.00800           0   0.00000       0.00000    
     44128 TIP3     3584     SWM4     H2       HDW      0.557330       1.00800           0   0.00000       0.00000    
     44129 TIP3     3585     SWM4     OH2      ODW       1.71640       15.5994           0 -0.978253       1.30000    
     44130 TIP3     3585     SWM4     DOH2     DOH2     -1.71640      0.400000           0   0.00000       0.00000    
     44131 TIP3     3585     SWM4     OM       LPDW     -1.11466       0.00000          -1   0.00000       0.00000    
     44132 TIP3     3585     SWM4     H1       HDW      0.557330       1.00800           0   0.00000       0.00000    
     44133 TIP3     3585     SWM4     H2       HDW      0.557330       1.00800           0   0.00000       0.00000    
     44134 TIP3     3586     SWM4     OH2      ODW       1.71640       15.5994           0 -0.978253       1.30000    
     44135 TIP3     3586     SWM4     DOH2     DOH2     -1.71640      0.400000           0   0.00000       0.00000    
     44136 TIP3     3586     SWM4     OM       LPDW     -1.11466       0.00000          -1   0.00000       0.00000    
     44137 TIP3     3586     SWM4     H1       HDW      0.557330       1.00800           0   0.00000       0.00000    
     44138 TIP3     3586     SWM4     H2       HDW      0.557330       1.00800           0   0.00000       0.00000    
     44139 TIP3     3587     SWM4     OH2      ODW       1.71640       15.5994           0 -0.978253       1.30000    
     44140 TIP3     3587     SWM4     DOH2     DOH2     -1.71640      0.400000           0   0.00000       0.00000    
     44141 TIP3     3587     SWM4     OM       LPDW     -1.11466       0.00000          -1   0.00000       0.00000    
     44142 TIP3     3587     SWM4     H1       HDW      0.557330       1.00800           0   0.00000       0.00000    
     44143 TIP3     3587     SWM4     H2       HDW      0.557330       1.00800           0   0.00000       0.00000    
     44144 TIP3     3588     SWM4     OH2      ODW       1.71640       15.5994           0 -0.978253       1.30000    
     44145 TIP3     3588     SWM4     DOH2     DOH2     -1.71640      0.400000           0   0.00000       0.00000    
     44146 TIP3     3588     SWM4     OM       LPDW     -1.11466       0.00000          -1   0.00000       0.00000    
     44147 TIP3     3588     SWM4     H1       HDW      0.557330       1.00800           0   0.00000       0.00000    
     44148 TIP3     3588     SWM4     H2       HDW      0.557330       1.00800           0   0.00000       0.00000    
     44149 TIP3     3589     SWM4     OH2      ODW       1.71640       15.5994           0 -0.978253       1.30000    
     44150 TIP3     3589     SWM4     DOH2     DOH2     -1.71640      0.400000           0   0.00000       0.00000    
     44151 TIP3     3589     SWM4     OM       LPDW     -1.11466       0.00000          -1   0.00000       0.00000    
     44152 TIP3     3589     SWM4     H1       HDW      0.557330       1.00800           0   0.00000       0.00000    
     44153 TIP3     3589     SWM4     H2       HDW      0.557330       1.00800           0   0.00000       0.00000    
     44154 TIP3     3590     SWM4     OH2      ODW       1.71640       15.5994           0 -0.978253       1.30000    
     44155 TIP3     3590     SWM4     DOH2     DOH2     -1.71640      0.400000           0   0.00000       0.00000    
     44156 TIP3     3590     SWM4     OM       LPDW     -1.11466       0.00000          -1   0.00000       0.00000    
     44157 TIP3     3590     SWM4     H1       HDW      0.557330       1.00800           0   0.00000       0.00000    
     44158 TIP3     3590     SWM4     H2       HDW      0.557330       1.00800           0   0.00000       0.00000    
     44159 TIP3     3591     SWM4     OH2      ODW       1.71640       15.5994           0 -0.978253       1.30000    
     44160 TIP3     3591     SWM4     DOH2     DOH2     -1.71640      0.400000           0   0.00000       0.00000    
     44161 TIP3     3591     SWM4     OM       LPDW     -1.11466       0.00000          -1   0.00000       0.00000    
     44162 TIP3     3591     SWM4     H1       HDW      0.557330       1.00800           0   0.00000       0.00000    
     44163 TIP3     3591     SWM4     H2       HDW      0.557330       1.00800           0   0.00000       0.00000    
     44164 TIP3     3592     SWM4     OH2      ODW       1.71640       15.5994           0 -0.978253       1.30000    
     44165 TIP3     3592     SWM4     DOH2     DOH2     -1.71640      0.400000           0   0.00000       0.00000    
     44166 TIP3     3592     SWM4     OM       LPDW     -1.11466       0.00000          -1   0.00000       0.00000    
     44167 TIP3     3592     SWM4     H1       HDW      0.557330       1.00800           0   0.00000       0.00000    
     44168 TIP3     3592     SWM4     H2       HDW      0.557330       1.00800           0   0.00000       0.00000    
     44169 TIP3     3593     SWM4     OH2      ODW       1.71640       15.5994           0 -0.978253       1.30000    
     44170 TIP3     3593     SWM4     DOH2     DOH2     -1.71640      0.400000           0   0.00000       0.00000    
     44171 TIP3     3593     SWM4     OM       LPDW     -1.11466       0.00000          -1   0.00000       0.00000    
     44172 TIP3     3593     SWM4     H1       HDW      0.557330       1.00800           0   0.00000       0.00000    
     44173 TIP3     3593     SWM4     H2       HDW      0.557330       1.00800           0   0.00000       0.00000    
     44174 TIP3     3594     SWM4     OH2      ODW       1.71640       15.5994           0 -0.978253       1.30000    
     44175 TIP3     3594     SWM4     DOH2     DOH2     -1.71640      0.400000           0   0.00000       0.00000    
     44176 TIP3     3594     SWM4     OM       LPDW     -1.11466       0.00000          -1   0.00000       0.00000    
     44177 TIP3     3594     SWM4     H1       HDW      0.557330       1.00800           0   0.00000       0.00000    
     44178 TIP3     3594     SWM4     H2       HDW      0.557330       1.00800           0   0.00000       0.00000    
     44179 TIP3     3595     SWM4     OH2      ODW       1.71640       15.5994           0 -0.978253       1.30000    
     44180 TIP3     3595     SWM4     DOH2     DOH2     -1.71640      0.400000           0   0.00000       0.00000    
     44181 TIP3     3595     SWM4     OM       LPDW     -1.11466       0.00000          -1   0.00000       0.00000    
     44182 TIP3     3595     SWM4     H1       HDW      0.557330       1.00800           0   0.00000       0.00000    
     44183 TIP3     3595     SWM4     H2       HDW      0.557330       1.00800           0   0.00000       0.00000    
     44184 TIP3     3596     SWM4     OH2      ODW       1.71640       15.5994           0 -0.978253       1.30000    
     44185 TIP3     3596     SWM4     DOH2     DOH2     -1.71640      0.400000           0   0.00000       0.00000    
     44186 TIP3     3596     SWM4     OM       LPDW     -1.11466       0.00000          -1   0.00000       0.00000    
     44187 TIP3     3596     SWM4     H1       HDW      0.557330       1.00800           0   0.00000       0.00000    
     44188 TIP3     3596     SWM4     H2       HDW      0.557330       1.00800           0   0.00000       0.00000    
     44189 TIP3     3597     SWM4     OH2      ODW       1.71640       15.5994           0 -0.978253       1.30000    
     44190 TIP3     3597     SWM4     DOH2     DOH2     -1.71640      0.400000           0   0.00000       0.00000    
     44191 TIP3     3597     SWM4     OM       LPDW     -1.11466       0.00000          -1   0.00000       0.00000    
     44192 TIP3     3597     SWM4     H1       HDW      0.557330       1.00800           0   0.00000       0.00000    
     44193 TIP3     3597     SWM4     H2       HDW      0.557330       1.00800           0   0.00000       0.00000    
     44194 TIP3     3598     SWM4     OH2      ODW       1.71640       15.5994           0 -0.978253       1.30000    
     44195 TIP3     3598     SWM4     DOH2     DOH2     -1.71640      0.400000           0   0.00000       0.00000    
     44196 TIP3     3598     SWM4     OM       LPDW     -1.11466       0.00000          -1   0.00000       0.00000    
     44197 TIP3     3598     SWM4     H1       HDW      0.557330       1.00800           0   0.00000       0.00000    
     44198 TIP3     3598     SWM4     H2       HDW      0.557330       1.00800           0   0.00000       0.00000    
     44199 TIP3     3599     SWM4     OH2      ODW       1.71640       15.5994           0 -0.978253       1.30000    
     44200 TIP3     3599     SWM4     DOH2     DOH2     -1.71640      0.400000           0   0.00000       0.00000    
     44201 TIP3     3599     SWM4     OM       LPDW     -1.11466       0.00000          -1   0.00000       0.00000    
     44202 TIP3     3599     SWM4     H1       HDW      0.557330       1.00800           0   0.00000       0.00000    
     44203 TIP3     3599     SWM4     H2       HDW      0.557330       1.00800           0   0.00000       0.00000    
     44204 TIP3     3600     SWM4     OH2      ODW       1.71640       15.5994           0 -0.978253       1.30000    
     44205 TIP3     3600     SWM4     DOH2     DOH2     -1.71640      0.400000           0   0.00000       0.00000    
     44206 TIP3     3600     SWM4     OM       LPDW     -1.11466       0.00000          -1   0.00000       0.00000    
     44207 TIP3     3600     SWM4     H1       HDW      0.557330       1.00800           0   0.00000       0.00000    
     44208 TIP3     3600     SWM4     H2       HDW      0.557330       1.00800           0   0.00000       0.00000    
     44209 TIP3     3601     SWM4     OH2      ODW       1.71640       15.5994           0 -0.978253       1.30000    
     44210 TIP3     3601     SWM4     DOH2     DOH2     -1.71640      0.400000           0   0.00000       0.00000    
     44211 TIP3     3601     SWM4     OM       LPDW     -1.11466       0.00000          -1   0.00000       0.00000    
     44212 TIP3     3601     SWM4     H1       HDW      0.557330       1.00800           0   0.00000       0.00000    
     44213 TIP3     3601     SWM4     H2       HDW      0.557330       1.00800           0   0.00000       0.00000    
     44214 TIP3     3602     SWM4     OH2      ODW       1.71640       15.5994           0 -0.978253       1.30000    
     44215 TIP3     3602     SWM4     DOH2     DOH2     -1.71640      0.400000           0   0.00000       0.00000    
     44216 TIP3     3602     SWM4     OM       LPDW     -1.11466       0.00000          -1   0.00000       0.00000    
     44217 TIP3     3602     SWM4     H1       HDW      0.557330       1.00800           0   0.00000       0.00000    
     44218 TIP3     3602     SWM4     H2       HDW      0.557330       1.00800           0   0.00000       0.00000    
     44219 TIP3     3603     SWM4     OH2      ODW       1.71640       15.5994           0 -0.978253       1.30000    
     44220 TIP3     3603     SWM4     DOH2     DOH2     -1.71640      0.400000           0   0.00000       0.00000    
     44221 TIP3     3603     SWM4     OM       LPDW     -1.11466       0.00000          -1   0.00000       0.00000    
     44222 TIP3     3603     SWM4     H1       HDW      0.557330       1.00800           0   0.00000       0.00000    
     44223 TIP3     3603     SWM4     H2       HDW      0.557330       1.00800           0   0.00000       0.00000    
     44224 TIP3     3604     SWM4     OH2      ODW       1.71640       15.5994           0 -0.978253       1.30000    
     44225 TIP3     3604     SWM4     DOH2     DOH2     -1.71640      0.400000           0   0.00000       0.00000    
     44226 TIP3     3604     SWM4     OM       LPDW     -1.11466       0.00000          -1   0.00000       0.00000    
     44227 TIP3     3604     SWM4     H1       HDW      0.557330       1.00800           0   0.00000       0.00000    
     44228 TIP3     3604     SWM4     H2       HDW      0.557330       1.00800           0   0.00000       0.00000    
     44229 TIP3     3605     SWM4     OH2      ODW       1.71640       15.5994           0 -0.978253       1.30000    
     44230 TIP3     3605     SWM4     DOH2     DOH2     -1.71640      0.400000           0   0.00000       0.00000    
     44231 TIP3     3605     SWM4     OM       LPDW     -1.11466       0.00000          -1   0.00000       0.00000    
     44232 TIP3     3605     SWM4     H1       HDW      0.557330       1.00800           0   0.00000       0.00000    
     44233 TIP3     3605     SWM4     H2       HDW      0.557330       1.00800           0   0.00000       0.00000    
     44234 TIP3     3606     SWM4     OH2      ODW       1.71640       15.5994           0 -0.978253       1.30000    
     44235 TIP3     3606     SWM4     DOH2     DOH2     -1.71640      0.400000           0   0.00000       0.00000    
     44236 TIP3     3606     SWM4     OM       LPDW     -1.11466       0.00000          -1   0.00000       0.00000    
     44237 TIP3     3606     SWM4     H1       HDW      0.557330       1.00800           0   0.00000       0.00000    
     44238 TIP3     3606     SWM4     H2       HDW      0.557330       1.00800           0   0.00000       0.00000    
     44239 TIP3     3607     SWM4     OH2      ODW       1.71640       15.5994           0 -0.978253       1.30000    
     44240 TIP3     3607     SWM4     DOH2     DOH2     -1.71640      0.400000           0   0.00000       0.00000    
     44241 TIP3     3607     SWM4     OM       LPDW     -1.11466       0.00000          -1   0.00000       0.00000    
     44242 TIP3     3607     SWM4     H1       HDW      0.557330       1.00800           0   0.00000       0.00000    
     44243 TIP3     3607     SWM4     H2       HDW      0.557330       1.00800           0   0.00000       0.00000    
     44244 TIP3     3608     SWM4     OH2      ODW       1.71640       15.5994           0 -0.978253       1.30000    
     44245 TIP3     3608     SWM4     DOH2     DOH2     -1.71640      0.400000           0   0.00000       0.00000    
     44246 TIP3     3608     SWM4     OM       LPDW     -1.11466       0.00000          -1   0.00000       0.00000    
     44247 TIP3     3608     SWM4     H1       HDW      0.557330       1.00800           0   0.00000       0.00000    
     44248 TIP3     3608     SWM4     H2       HDW      0.557330       1.00800           0   0.00000       0.00000    
     44249 TIP3     3609     SWM4     OH2      ODW       1.71640       15.5994           0 -0.978253       1.30000    
     44250 TIP3     3609     SWM4     DOH2     DOH2     -1.71640      0.400000           0   0.00000       0.00000    
     44251 TIP3     3609     SWM4     OM       LPDW     -1.11466       0.00000          -1   0.00000       0.00000    
     44252 TIP3     3609     SWM4     H1       HDW      0.557330       1.00800           0   0.00000       0.00000    
     44253 TIP3     3609     SWM4     H2       HDW      0.557330       1.00800           0   0.00000       0.00000    
     44254 TIP3     3610     SWM4     OH2      ODW       1.71640       15.5994           0 -0.978253       1.30000    
     44255 TIP3     3610     SWM4     DOH2     DOH2     -1.71640      0.400000           0   0.00000       0.00000    
     44256 TIP3     3610     SWM4     OM       LPDW     -1.11466       0.00000          -1   0.00000       0.00000    
     44257 TIP3     3610     SWM4     H1       HDW      0.557330       1.00800           0   0.00000       0.00000    
     44258 TIP3     3610     SWM4     H2       HDW      0.557330       1.00800           0   0.00000       0.00000    
     44259 TIP3     3611     SWM4     OH2      ODW       1.71640       15.5994           0 -0.978253       1.30000    
     44260 TIP3     3611     SWM4     DOH2     DOH2     -1.71640      0.400000           0   0.00000       0.00000    
     44261 TIP3     3611     SWM4     OM       LPDW     -1.11466       0.00000          -1   0.00000       0.00000    
     44262 TIP3     3611     SWM4     H1       HDW      0.557330       1.00800           0   0.00000       0.00000    
     44263 TIP3     3611     SWM4     H2       HDW      0.557330       1.00800           0   0.00000       0.00000    
     44264 TIP3     3612     SWM4     OH2      ODW       1.71640       15.5994           0 -0.978253       1.30000    
     44265 TIP3     3612     SWM4     DOH2     DOH2     -1.71640      0.400000           0   0.00000       0.00000    
     44266 TIP3     3612     SWM4     OM       LPDW     -1.11466       0.00000          -1   0.00000       0.00000    
     44267 TIP3     3612     SWM4     H1       HDW      0.557330       1.00800           0   0.00000       0.00000    
     44268 TIP3     3612     SWM4     H2       HDW      0.557330       1.00800           0   0.00000       0.00000    
     44269 TIP3     3613     SWM4     OH2      ODW       1.71640       15.5994           0 -0.978253       1.30000    
     44270 TIP3     3613     SWM4     DOH2     DOH2     -1.71640      0.400000           0   0.00000       0.00000    
     44271 TIP3     3613     SWM4     OM       LPDW     -1.11466       0.00000          -1   0.00000       0.00000    
     44272 TIP3     3613     SWM4     H1       HDW      0.557330       1.00800           0   0.00000       0.00000    
     44273 TIP3     3613     SWM4     H2       HDW      0.557330       1.00800           0   0.00000       0.00000    
     44274 TIP3     3614     SWM4     OH2      ODW       1.71640       15.5994           0 -0.978253       1.30000    
     44275 TIP3     3614     SWM4     DOH2     DOH2     -1.71640      0.400000           0   0.00000       0.00000    
     44276 TIP3     3614     SWM4     OM       LPDW     -1.11466       0.00000          -1   0.00000       0.00000    
     44277 TIP3     3614     SWM4     H1       HDW      0.557330       1.00800           0   0.00000       0.00000    
     44278 TIP3     3614     SWM4     H2       HDW      0.557330       1.00800           0   0.00000       0.00000    
     44279 TIP3     3615     SWM4     OH2      ODW       1.71640       15.5994           0 -0.978253       1.30000    
     44280 TIP3     3615     SWM4     DOH2     DOH2     -1.71640      0.400000           0   0.00000       0.00000    
     44281 TIP3     3615     SWM4     OM       LPDW     -1.11466       0.00000          -1   0.00000       0.00000    
     44282 TIP3     3615     SWM4     H1       HDW      0.557330       1.00800           0   0.00000       0.00000    
     44283 TIP3     3615     SWM4     H2       HDW      0.557330       1.00800           0   0.00000       0.00000    
     44284 TIP3     3616     SWM4     OH2      ODW       1.71640       15.5994           0 -0.978253       1.30000    
     44285 TIP3     3616     SWM4     DOH2     DOH2     -1.71640      0.400000           0   0.00000       0.00000    
     44286 TIP3     3616     SWM4     OM       LPDW     -1.11466       0.00000          -1   0.00000       0.00000    
     44287 TIP3     3616     SWM4     H1       HDW      0.557330       1.00800           0   0.00000       0.00000    
     44288 TIP3     3616     SWM4     H2       HDW      0.557330       1.00800           0   0.00000       0.00000    
     44289 TIP3     3617     SWM4     OH2      ODW       1.71640       15.5994           0 -0.978253       1.30000    
     44290 TIP3     3617     SWM4     DOH2     DOH2     -1.71640      0.400000           0   0.00000       0.00000    
     44291 TIP3     3617     SWM4     OM       LPDW     -1.11466       0.00000          -1   0.00000       0.00000    
     44292 TIP3     3617     SWM4     H1       HDW      0.557330       1.00800           0   0.00000       0.00000    
     44293 TIP3     3617     SWM4     H2       HDW      0.557330       1.00800           0   0.00000       0.00000    
     44294 TIP3     3618     SWM4     OH2      ODW       1.71640       15.5994           0 -0.978253       1.30000    
     44295 TIP3     3618     SWM4     DOH2     DOH2     -1.71640      0.400000           0   0.00000       0.00000    
     44296 TIP3     3618     SWM4     OM       LPDW     -1.11466       0.00000          -1   0.00000       0.00000    
     44297 TIP3     3618     SWM4     H1       HDW      0.557330       1.00800           0   0.00000       0.00000    
     44298 TIP3     3618     SWM4     H2       HDW      0.557330       1.00800           0   0.00000       0.00000    
     44299 TIP3     3619     SWM4     OH2      ODW       1.71640       15.5994           0 -0.978253       1.30000    
     44300 TIP3     3619     SWM4     DOH2     DOH2     -1.71640      0.400000           0   0.00000       0.00000    
     44301 TIP3     3619     SWM4     OM       LPDW     -1.11466       0.00000          -1   0.00000       0.00000    
     44302 TIP3     3619     SWM4     H1       HDW      0.557330       1.00800           0   0.00000       0.00000    
     44303 TIP3     3619     SWM4     H2       HDW      0.557330       1.00800           0   0.00000       0.00000    
     44304 TIP3     3620     SWM4     OH2      ODW       1.71640       15.5994           0 -0.978253       1.30000    
     44305 TIP3     3620     SWM4     DOH2     DOH2     -1.71640      0.400000           0   0.00000       0.00000    
     44306 TIP3     3620     SWM4     OM       LPDW     -1.11466       0.00000          -1   0.00000       0.00000    
     44307 TIP3     3620     SWM4     H1       HDW      0.557330       1.00800           0   0.00000       0.00000    
     44308 TIP3     3620     SWM4     H2       HDW      0.557330       1.00800           0   0.00000       0.00000    
     44309 TIP3     3621     SWM4     OH2      ODW       1.71640       15.5994           0 -0.978253       1.30000    
     44310 TIP3     3621     SWM4     DOH2     DOH2     -1.71640      0.400000           0   0.00000       0.00000    
     44311 TIP3     3621     SWM4     OM       LPDW     -1.11466       0.00000          -1   0.00000       0.00000    
     44312 TIP3     3621     SWM4     H1       HDW      0.557330       1.00800           0   0.00000       0.00000    
     44313 TIP3     3621     SWM4     H2       HDW      0.557330       1.00800           0   0.00000       0.00000    
     44314 TIP3     3622     SWM4     OH2      ODW       1.71640       15.5994           0 -0.978253       1.30000    
     44315 TIP3     3622     SWM4     DOH2     DOH2     -1.71640      0.400000           0   0.00000       0.00000    
     44316 TIP3     3622     SWM4     OM       LPDW     -1.11466       0.00000          -1   0.00000       0.00000    
     44317 TIP3     3622     SWM4     H1       HDW      0.557330       1.00800           0   0.00000       0.00000    
     44318 TIP3     3622     SWM4     H2       HDW      0.557330       1.00800           0   0.00000       0.00000    
     44319 TIP3     3623     SWM4     OH2      ODW       1.71640       15.5994           0 -0.978253       1.30000    
     44320 TIP3     3623     SWM4     DOH2     DOH2     -1.71640      0.400000           0   0.00000       0.00000    
     44321 TIP3     3623     SWM4     OM       LPDW     -1.11466       0.00000          -1   0.00000       0.00000    
     44322 TIP3     3623     SWM4     H1       HDW      0.557330       1.00800           0   0.00000       0.00000    
     44323 TIP3     3623     SWM4     H2       HDW      0.557330       1.00800           0   0.00000       0.00000    
     44324 TIP3     3624     SWM4     OH2      ODW       1.71640       15.5994           0 -0.978253       1.30000    
     44325 TIP3     3624     SWM4     DOH2     DOH2     -1.71640      0.400000           0   0.00000       0.00000    
     44326 TIP3     3624     SWM4     OM       LPDW     -1.11466       0.00000          -1   0.00000       0.00000    
     44327 TIP3     3624     SWM4     H1       HDW      0.557330       1.00800           0   0.00000       0.00000    
     44328 TIP3     3624     SWM4     H2       HDW      0.557330       1.00800           0   0.00000       0.00000    
     44329 TIP3     3625     SWM4     OH2      ODW       1.71640       15.5994           0 -0.978253       1.30000    
     44330 TIP3     3625     SWM4     DOH2     DOH2     -1.71640      0.400000           0   0.00000       0.00000    
     44331 TIP3     3625     SWM4     OM       LPDW     -1.11466       0.00000          -1   0.00000       0.00000    
     44332 TIP3     3625     SWM4     H1       HDW      0.557330       1.00800           0   0.00000       0.00000    
     44333 TIP3     3625     SWM4     H2       HDW      0.557330       1.00800           0   0.00000       0.00000    
     44334 TIP3     3626     SWM4     OH2      ODW       1.71640       15.5994           0 -0.978253       1.30000    
     44335 TIP3     3626     SWM4     DOH2     DOH2     -1.71640      0.400000           0   0.00000       0.00000    
     44336 TIP3     3626     SWM4     OM       LPDW     -1.11466       0.00000          -1   0.00000       0.00000    
     44337 TIP3     3626     SWM4     H1       HDW      0.557330       1.00800           0   0.00000       0.00000    
     44338 TIP3     3626     SWM4     H2       HDW      0.557330       1.00800           0   0.00000       0.00000    
     44339 TIP3     3627     SWM4     OH2      ODW       1.71640       15.5994           0 -0.978253       1.30000    
     44340 TIP3     3627     SWM4     DOH2     DOH2     -1.71640      0.400000           0   0.00000       0.00000    
     44341 TIP3     3627     SWM4     OM       LPDW     -1.11466       0.00000          -1   0.00000       0.00000    
     44342 TIP3     3627     SWM4     H1       HDW      0.557330       1.00800           0   0.00000       0.00000    
     44343 TIP3     3627     SWM4     H2       HDW      0.557330       1.00800           0   0.00000       0.00000    
     44344 TIP3     3628     SWM4     OH2      ODW       1.71640       15.5994           0 -0.978253       1.30000    
     44345 TIP3     3628     SWM4     DOH2     DOH2     -1.71640      0.400000           0   0.00000       0.00000    
     44346 TIP3     3628     SWM4     OM       LPDW     -1.11466       0.00000          -1   0.00000       0.00000    
     44347 TIP3     3628     SWM4     H1       HDW      0.557330       1.00800           0   0.00000       0.00000    
     44348 TIP3     3628     SWM4     H2       HDW      0.557330       1.00800           0   0.00000       0.00000    
     44349 TIP3     3629     SWM4     OH2      ODW       1.71640       15.5994           0 -0.978253       1.30000    
     44350 TIP3     3629     SWM4     DOH2     DOH2     -1.71640      0.400000           0   0.00000       0.00000    
     44351 TIP3     3629     SWM4     OM       LPDW     -1.11466       0.00000          -1   0.00000       0.00000    
     44352 TIP3     3629     SWM4     H1       HDW      0.557330       1.00800           0   0.00000       0.00000    
     44353 TIP3     3629     SWM4     H2       HDW      0.557330       1.00800           0   0.00000       0.00000    
     44354 TIP3     3630     SWM4     OH2      ODW       1.71640       15.5994           0 -0.978253       1.30000    
     44355 TIP3     3630     SWM4     DOH2     DOH2     -1.71640      0.400000           0   0.00000       0.00000    
     44356 TIP3     3630     SWM4     OM       LPDW     -1.11466       0.00000          -1   0.00000       0.00000    
     44357 TIP3     3630     SWM4     H1       HDW      0.557330       1.00800           0   0.00000       0.00000    
     44358 TIP3     3630     SWM4     H2       HDW      0.557330       1.00800           0   0.00000       0.00000    
     44359 TIP3     3631     SWM4     OH2      ODW       1.71640       15.5994           0 -0.978253       1.30000    
     44360 TIP3     3631     SWM4     DOH2     DOH2     -1.71640      0.400000           0   0.00000       0.00000    
     44361 TIP3     3631     SWM4     OM       LPDW     -1.11466       0.00000          -1   0.00000       0.00000    
     44362 TIP3     3631     SWM4     H1       HDW      0.557330       1.00800           0   0.00000       0.00000    
     44363 TIP3     3631     SWM4     H2       HDW      0.557330       1.00800           0   0.00000       0.00000    
     44364 TIP3     3632     SWM4     OH2      ODW       1.71640       15.5994           0 -0.978253       1.30000    
     44365 TIP3     3632     SWM4     DOH2     DOH2     -1.71640      0.400000           0   0.00000       0.00000    
     44366 TIP3     3632     SWM4     OM       LPDW     -1.11466       0.00000          -1   0.00000       0.00000    
     44367 TIP3     3632     SWM4     H1       HDW      0.557330       1.00800           0   0.00000       0.00000    
     44368 TIP3     3632     SWM4     H2       HDW      0.557330       1.00800           0   0.00000       0.00000    
     44369 TIP3     3633     SWM4     OH2      ODW       1.71640       15.5994           0 -0.978253       1.30000    
     44370 TIP3     3633     SWM4     DOH2     DOH2     -1.71640      0.400000           0   0.00000       0.00000    
     44371 TIP3     3633     SWM4     OM       LPDW     -1.11466       0.00000          -1   0.00000       0.00000    
     44372 TIP3     3633     SWM4     H1       HDW      0.557330       1.00800           0   0.00000       0.00000    
     44373 TIP3     3633     SWM4     H2       HDW      0.557330       1.00800           0   0.00000       0.00000    
     44374 TIP3     3634     SWM4     OH2      ODW       1.71640       15.5994           0 -0.978253       1.30000    
     44375 TIP3     3634     SWM4     DOH2     DOH2     -1.71640      0.400000           0   0.00000       0.00000    
     44376 TIP3     3634     SWM4     OM       LPDW     -1.11466       0.00000          -1   0.00000       0.00000    
     44377 TIP3     3634     SWM4     H1       HDW      0.557330       1.00800           0   0.00000       0.00000    
     44378 TIP3     3634     SWM4     H2       HDW      0.557330       1.00800           0   0.00000       0.00000    
     44379 TIP3     3635     SWM4     OH2      ODW       1.71640       15.5994           0 -0.978253       1.30000    
     44380 TIP3     3635     SWM4     DOH2     DOH2     -1.71640      0.400000           0   0.00000       0.00000    
     44381 TIP3     3635     SWM4     OM       LPDW     -1.11466       0.00000          -1   0.00000       0.00000    
     44382 TIP3     3635     SWM4     H1       HDW      0.557330       1.00800           0   0.00000       0.00000    
     44383 TIP3     3635     SWM4     H2       HDW      0.557330       1.00800           0   0.00000       0.00000    
     44384 TIP3     3636     SWM4     OH2      ODW       1.71640       15.5994           0 -0.978253       1.30000    
     44385 TIP3     3636     SWM4     DOH2     DOH2     -1.71640      0.400000           0   0.00000       0.00000    
     44386 TIP3     3636     SWM4     OM       LPDW     -1.11466       0.00000          -1   0.00000       0.00000    
     44387 TIP3     3636     SWM4     H1       HDW      0.557330       1.00800           0   0.00000       0.00000    
     44388 TIP3     3636     SWM4     H2       HDW      0.557330       1.00800           0   0.00000       0.00000    
     44389 TIP3     3637     SWM4     OH2      ODW       1.71640       15.5994           0 -0.978253       1.30000    
     44390 TIP3     3637     SWM4     DOH2     DOH2     -1.71640      0.400000           0   0.00000       0.00000    
     44391 TIP3     3637     SWM4     OM       LPDW     -1.11466       0.00000          -1   0.00000       0.00000    
     44392 TIP3     3637     SWM4     H1       HDW      0.557330       1.00800           0   0.00000       0.00000    
     44393 TIP3     3637     SWM4     H2       HDW      0.557330       1.00800           0   0.00000       0.00000    
     44394 TIP3     3638     SWM4     OH2      ODW       1.71640       15.5994           0 -0.978253       1.30000    
     44395 TIP3     3638     SWM4     DOH2     DOH2     -1.71640      0.400000           0   0.00000       0.00000    
     44396 TIP3     3638     SWM4     OM       LPDW     -1.11466       0.00000          -1   0.00000       0.00000    
     44397 TIP3     3638     SWM4     H1       HDW      0.557330       1.00800           0   0.00000       0.00000    
     44398 TIP3     3638     SWM4     H2       HDW      0.557330       1.00800           0   0.00000       0.00000    
     44399 TIP3     3639     SWM4     OH2      ODW       1.71640       15.5994           0 -0.978253       1.30000    
     44400 TIP3     3639     SWM4     DOH2     DOH2     -1.71640      0.400000           0   0.00000       0.00000    
     44401 TIP3     3639     SWM4     OM       LPDW     -1.11466       0.00000          -1   0.00000       0.00000    
     44402 TIP3     3639     SWM4     H1       HDW      0.557330       1.00800           0   0.00000       0.00000    
     44403 TIP3     3639     SWM4     H2       HDW      0.557330       1.00800           0   0.00000       0.00000    
     44404 TIP3     3640     SWM4     OH2      ODW       1.71640       15.5994           0 -0.978253       1.30000    
     44405 TIP3     3640     SWM4     DOH2     DOH2     -1.71640      0.400000           0   0.00000       0.00000    
     44406 TIP3     3640     SWM4     OM       LPDW     -1.11466       0.00000          -1   0.00000       0.00000    
     44407 TIP3     3640     SWM4     H1       HDW      0.557330       1.00800           0   0.00000       0.00000    
     44408 TIP3     3640     SWM4     H2       HDW      0.557330       1.00800           0   0.00000       0.00000    
     44409 TIP3     3641     SWM4     OH2      ODW       1.71640       15.5994           0 -0.978253       1.30000    
     44410 TIP3     3641     SWM4     DOH2     DOH2     -1.71640      0.400000           0   0.00000       0.00000    
     44411 TIP3     3641     SWM4     OM       LPDW     -1.11466       0.00000          -1   0.00000       0.00000    
     44412 TIP3     3641     SWM4     H1       HDW      0.557330       1.00800           0   0.00000       0.00000    
     44413 TIP3     3641     SWM4     H2       HDW      0.557330       1.00800           0   0.00000       0.00000    
     44414 TIP3     3642     SWM4     OH2      ODW       1.71640       15.5994           0 -0.978253       1.30000    
     44415 TIP3     3642     SWM4     DOH2     DOH2     -1.71640      0.400000           0   0.00000       0.00000    
     44416 TIP3     3642     SWM4     OM       LPDW     -1.11466       0.00000          -1   0.00000       0.00000    
     44417 TIP3     3642     SWM4     H1       HDW      0.557330       1.00800           0   0.00000       0.00000    
     44418 TIP3     3642     SWM4     H2       HDW      0.557330       1.00800           0   0.00000       0.00000    
     44419 TIP3     3643     SWM4     OH2      ODW       1.71640       15.5994           0 -0.978253       1.30000    
     44420 TIP3     3643     SWM4     DOH2     DOH2     -1.71640      0.400000           0   0.00000       0.00000    
     44421 TIP3     3643     SWM4     OM       LPDW     -1.11466       0.00000          -1   0.00000       0.00000    
     44422 TIP3     3643     SWM4     H1       HDW      0.557330       1.00800           0   0.00000       0.00000    
     44423 TIP3     3643     SWM4     H2       HDW      0.557330       1.00800           0   0.00000       0.00000    
     44424 TIP3     3644     SWM4     OH2      ODW       1.71640       15.5994           0 -0.978253       1.30000    
     44425 TIP3     3644     SWM4     DOH2     DOH2     -1.71640      0.400000           0   0.00000       0.00000    
     44426 TIP3     3644     SWM4     OM       LPDW     -1.11466       0.00000          -1   0.00000       0.00000    
     44427 TIP3     3644     SWM4     H1       HDW      0.557330       1.00800           0   0.00000       0.00000    
     44428 TIP3     3644     SWM4     H2       HDW      0.557330       1.00800           0   0.00000       0.00000    
     44429 TIP3     3645     SWM4     OH2      ODW       1.71640       15.5994           0 -0.978253       1.30000    
     44430 TIP3     3645     SWM4     DOH2     DOH2     -1.71640      0.400000           0   0.00000       0.00000    
     44431 TIP3     3645     SWM4     OM       LPDW     -1.11466       0.00000          -1   0.00000       0.00000    
     44432 TIP3     3645     SWM4     H1       HDW      0.557330       1.00800           0   0.00000       0.00000    
     44433 TIP3     3645     SWM4     H2       HDW      0.557330       1.00800           0   0.00000       0.00000    
     44434 TIP3     3646     SWM4     OH2      ODW       1.71640       15.5994           0 -0.978253       1.30000    
     44435 TIP3     3646     SWM4     DOH2     DOH2     -1.71640      0.400000           0   0.00000       0.00000    
     44436 TIP3     3646     SWM4     OM       LPDW     -1.11466       0.00000          -1   0.00000       0.00000    
     44437 TIP3     3646     SWM4     H1       HDW      0.557330       1.00800           0   0.00000       0.00000    
     44438 TIP3     3646     SWM4     H2       HDW      0.557330       1.00800           0   0.00000       0.00000    
     44439 TIP3     3647     SWM4     OH2      ODW       1.71640       15.5994           0 -0.978253       1.30000    
     44440 TIP3     3647     SWM4     DOH2     DOH2     -1.71640      0.400000           0   0.00000       0.00000    
     44441 TIP3     3647     SWM4     OM       LPDW     -1.11466       0.00000          -1   0.00000       0.00000    
     44442 TIP3     3647     SWM4     H1       HDW      0.557330       1.00800           0   0.00000       0.00000    
     44443 TIP3     3647     SWM4     H2       HDW      0.557330       1.00800           0   0.00000       0.00000    
     44444 TIP3     3648     SWM4     OH2      ODW       1.71640       15.5994           0 -0.978253       1.30000    
     44445 TIP3     3648     SWM4     DOH2     DOH2     -1.71640      0.400000           0   0.00000       0.00000    
     44446 TIP3     3648     SWM4     OM       LPDW     -1.11466       0.00000          -1   0.00000       0.00000    
     44447 TIP3     3648     SWM4     H1       HDW      0.557330       1.00800           0   0.00000       0.00000    
     44448 TIP3     3648     SWM4     H2       HDW      0.557330       1.00800           0   0.00000       0.00000    
     44449 TIP3     3649     SWM4     OH2      ODW       1.71640       15.5994           0 -0.978253       1.30000    
     44450 TIP3     3649     SWM4     DOH2     DOH2     -1.71640      0.400000           0   0.00000       0.00000    
     44451 TIP3     3649     SWM4     OM       LPDW     -1.11466       0.00000          -1   0.00000       0.00000    
     44452 TIP3     3649     SWM4     H1       HDW      0.557330       1.00800           0   0.00000       0.00000    
     44453 TIP3     3649     SWM4     H2       HDW      0.557330       1.00800           0   0.00000       0.00000    
     44454 TIP3     3650     SWM4     OH2      ODW       1.71640       15.5994           0 -0.978253       1.30000    
     44455 TIP3     3650     SWM4     DOH2     DOH2     -1.71640      0.400000           0   0.00000       0.00000    
     44456 TIP3     3650     SWM4     OM       LPDW     -1.11466       0.00000          -1   0.00000       0.00000    
     44457 TIP3     3650     SWM4     H1       HDW      0.557330       1.00800           0   0.00000       0.00000    
     44458 TIP3     3650     SWM4     H2       HDW      0.557330       1.00800           0   0.00000       0.00000    
     44459 TIP3     3651     SWM4     OH2      ODW       1.71640       15.5994           0 -0.978253       1.30000    
     44460 TIP3     3651     SWM4     DOH2     DOH2     -1.71640      0.400000           0   0.00000       0.00000    
     44461 TIP3     3651     SWM4     OM       LPDW     -1.11466       0.00000          -1   0.00000       0.00000    
     44462 TIP3     3651     SWM4     H1       HDW      0.557330       1.00800           0   0.00000       0.00000    
     44463 TIP3     3651     SWM4     H2       HDW      0.557330       1.00800           0   0.00000       0.00000    
     44464 TIP3     3652     SWM4     OH2      ODW       1.71640       15.5994           0 -0.978253       1.30000    
     44465 TIP3     3652     SWM4     DOH2     DOH2     -1.71640      0.400000           0   0.00000       0.00000    
     44466 TIP3     3652     SWM4     OM       LPDW     -1.11466       0.00000          -1   0.00000       0.00000    
     44467 TIP3     3652     SWM4     H1       HDW      0.557330       1.00800           0   0.00000       0.00000    
     44468 TIP3     3652     SWM4     H2       HDW      0.557330       1.00800           0   0.00000       0.00000    
     44469 TIP3     3653     SWM4     OH2      ODW       1.71640       15.5994           0 -0.978253       1.30000    
     44470 TIP3     3653     SWM4     DOH2     DOH2     -1.71640      0.400000           0   0.00000       0.00000    
     44471 TIP3     3653     SWM4     OM       LPDW     -1.11466       0.00000          -1   0.00000       0.00000    
     44472 TIP3     3653     SWM4     H1       HDW      0.557330       1.00800           0   0.00000       0.00000    
     44473 TIP3     3653     SWM4     H2       HDW      0.557330       1.00800           0   0.00000       0.00000    
     44474 TIP3     3654     SWM4     OH2      ODW       1.71640       15.5994           0 -0.978253       1.30000    
     44475 TIP3     3654     SWM4     DOH2     DOH2     -1.71640      0.400000           0   0.00000       0.00000    
     44476 TIP3     3654     SWM4     OM       LPDW     -1.11466       0.00000          -1   0.00000       0.00000    
     44477 TIP3     3654     SWM4     H1       HDW      0.557330       1.00800           0   0.00000       0.00000    
     44478 TIP3     3654     SWM4     H2       HDW      0.557330       1.00800           0   0.00000       0.00000    
     44479 TIP3     3655     SWM4     OH2      ODW       1.71640       15.5994           0 -0.978253       1.30000    
     44480 TIP3     3655     SWM4     DOH2     DOH2     -1.71640      0.400000           0   0.00000       0.00000    
     44481 TIP3     3655     SWM4     OM       LPDW     -1.11466       0.00000          -1   0.00000       0.00000    
     44482 TIP3     3655     SWM4     H1       HDW      0.557330       1.00800           0   0.00000       0.00000    
     44483 TIP3     3655     SWM4     H2       HDW      0.557330       1.00800           0   0.00000       0.00000    
     44484 TIP3     3656     SWM4     OH2      ODW       1.71640       15.5994           0 -0.978253       1.30000    
     44485 TIP3     3656     SWM4     DOH2     DOH2     -1.71640      0.400000           0   0.00000       0.00000    
     44486 TIP3     3656     SWM4     OM       LPDW     -1.11466       0.00000          -1   0.00000       0.00000    
     44487 TIP3     3656     SWM4     H1       HDW      0.557330       1.00800           0   0.00000       0.00000    
     44488 TIP3     3656     SWM4     H2       HDW      0.557330       1.00800           0   0.00000       0.00000    
     44489 TIP3     3657     SWM4     OH2      ODW       1.71640       15.5994           0 -0.978253       1.30000    
     44490 TIP3     3657     SWM4     DOH2     DOH2     -1.71640      0.400000           0   0.00000       0.00000    
     44491 TIP3     3657     SWM4     OM       LPDW     -1.11466       0.00000          -1   0.00000       0.00000    
     44492 TIP3     3657     SWM4     H1       HDW      0.557330       1.00800           0   0.00000       0.00000    
     44493 TIP3     3657     SWM4     H2       HDW      0.557330       1.00800           0   0.00000       0.00000    
     44494 TIP3     3658     SWM4     OH2      ODW       1.71640       15.5994           0 -0.978253       1.30000    
     44495 TIP3     3658     SWM4     DOH2     DOH2     -1.71640      0.400000           0   0.00000       0.00000    
     44496 TIP3     3658     SWM4     OM       LPDW     -1.11466       0.00000          -1   0.00000       0.00000    
     44497 TIP3     3658     SWM4     H1       HDW      0.557330       1.00800           0   0.00000       0.00000    
     44498 TIP3     3658     SWM4     H2       HDW      0.557330       1.00800           0   0.00000       0.00000    
     44499 TIP3     3659     SWM4     OH2      ODW       1.71640       15.5994           0 -0.978253       1.30000    
     44500 TIP3     3659     SWM4     DOH2     DOH2     -1.71640      0.400000           0   0.00000       0.00000    
     44501 TIP3     3659     SWM4     OM       LPDW     -1.11466       0.00000          -1   0.00000       0.00000    
     44502 TIP3     3659     SWM4     H1       HDW      0.557330       1.00800           0   0.00000       0.00000    
     44503 TIP3     3659     SWM4     H2       HDW      0.557330       1.00800           0   0.00000       0.00000    
     44504 TIP3     3660     SWM4     OH2      ODW       1.71640       15.5994           0 -0.978253       1.30000    
     44505 TIP3     3660     SWM4     DOH2     DOH2     -1.71640      0.400000           0   0.00000       0.00000    
     44506 TIP3     3660     SWM4     OM       LPDW     -1.11466       0.00000          -1   0.00000       0.00000    
     44507 TIP3     3660     SWM4     H1       HDW      0.557330       1.00800           0   0.00000       0.00000    
     44508 TIP3     3660     SWM4     H2       HDW      0.557330       1.00800           0   0.00000       0.00000    
     44509 TIP3     3661     SWM4     OH2      ODW       1.71640       15.5994           0 -0.978253       1.30000    
     44510 TIP3     3661     SWM4     DOH2     DOH2     -1.71640      0.400000           0   0.00000       0.00000    
     44511 TIP3     3661     SWM4     OM       LPDW     -1.11466       0.00000          -1   0.00000       0.00000    
     44512 TIP3     3661     SWM4     H1       HDW      0.557330       1.00800           0   0.00000       0.00000    
     44513 TIP3     3661     SWM4     H2       HDW      0.557330       1.00800           0   0.00000       0.00000    
     44514 TIP3     3662     SWM4     OH2      ODW       1.71640       15.5994           0 -0.978253       1.30000    
     44515 TIP3     3662     SWM4     DOH2     DOH2     -1.71640      0.400000           0   0.00000       0.00000    
     44516 TIP3     3662     SWM4     OM       LPDW     -1.11466       0.00000          -1   0.00000       0.00000    
     44517 TIP3     3662     SWM4     H1       HDW      0.557330       1.00800           0   0.00000       0.00000    
     44518 TIP3     3662     SWM4     H2       HDW      0.557330       1.00800           0   0.00000       0.00000    
     44519 TIP3     3663     SWM4     OH2      ODW       1.71640       15.5994           0 -0.978253       1.30000    
     44520 TIP3     3663     SWM4     DOH2     DOH2     -1.71640      0.400000           0   0.00000       0.00000    
     44521 TIP3     3663     SWM4     OM       LPDW     -1.11466       0.00000          -1   0.00000       0.00000    
     44522 TIP3     3663     SWM4     H1       HDW      0.557330       1.00800           0   0.00000       0.00000    
     44523 TIP3     3663     SWM4     H2       HDW      0.557330       1.00800           0   0.00000       0.00000    
     44524 TIP3     3664     SWM4     OH2      ODW       1.71640       15.5994           0 -0.978253       1.30000    
     44525 TIP3     3664     SWM4     DOH2     DOH2     -1.71640      0.400000           0   0.00000       0.00000    
     44526 TIP3     3664     SWM4     OM       LPDW     -1.11466       0.00000          -1   0.00000       0.00000    
     44527 TIP3     3664     SWM4     H1       HDW      0.557330       1.00800           0   0.00000       0.00000    
     44528 TIP3     3664     SWM4     H2       HDW      0.557330       1.00800           0   0.00000       0.00000    
     44529 TIP3     3665     SWM4     OH2      ODW       1.71640       15.5994           0 -0.978253       1.30000    
     44530 TIP3     3665     SWM4     DOH2     DOH2     -1.71640      0.400000           0   0.00000       0.00000    
     44531 TIP3     3665     SWM4     OM       LPDW     -1.11466       0.00000          -1   0.00000       0.00000    
     44532 TIP3     3665     SWM4     H1       HDW      0.557330       1.00800           0   0.00000       0.00000    
     44533 TIP3     3665     SWM4     H2       HDW      0.557330       1.00800           0   0.00000       0.00000    
     44534 TIP3     3666     SWM4     OH2      ODW       1.71640       15.5994           0 -0.978253       1.30000    
     44535 TIP3     3666     SWM4     DOH2     DOH2     -1.71640      0.400000           0   0.00000       0.00000    
     44536 TIP3     3666     SWM4     OM       LPDW     -1.11466       0.00000          -1   0.00000       0.00000    
     44537 TIP3     3666     SWM4     H1       HDW      0.557330       1.00800           0   0.00000       0.00000    
     44538 TIP3     3666     SWM4     H2       HDW      0.557330       1.00800           0   0.00000       0.00000    
     44539 TIP3     3667     SWM4     OH2      ODW       1.71640       15.5994           0 -0.978253       1.30000    
     44540 TIP3     3667     SWM4     DOH2     DOH2     -1.71640      0.400000           0   0.00000       0.00000    
     44541 TIP3     3667     SWM4     OM       LPDW     -1.11466       0.00000          -1   0.00000       0.00000    
     44542 TIP3     3667     SWM4     H1       HDW      0.557330       1.00800           0   0.00000       0.00000    
     44543 TIP3     3667     SWM4     H2       HDW      0.557330       1.00800           0   0.00000       0.00000    
     44544 TIP3     3668     SWM4     OH2      ODW       1.71640       15.5994           0 -0.978253       1.30000    
     44545 TIP3     3668     SWM4     DOH2     DOH2     -1.71640      0.400000           0   0.00000       0.00000    
     44546 TIP3     3668     SWM4     OM       LPDW     -1.11466       0.00000          -1   0.00000       0.00000    
     44547 TIP3     3668     SWM4     H1       HDW      0.557330       1.00800           0   0.00000       0.00000    
     44548 TIP3     3668     SWM4     H2       HDW      0.557330       1.00800           0   0.00000       0.00000    
     44549 TIP3     3669     SWM4     OH2      ODW       1.71640       15.5994           0 -0.978253       1.30000    
     44550 TIP3     3669     SWM4     DOH2     DOH2     -1.71640      0.400000           0   0.00000       0.00000    
     44551 TIP3     3669     SWM4     OM       LPDW     -1.11466       0.00000          -1   0.00000       0.00000    
     44552 TIP3     3669     SWM4     H1       HDW      0.557330       1.00800           0   0.00000       0.00000    
     44553 TIP3     3669     SWM4     H2       HDW      0.557330       1.00800           0   0.00000       0.00000    
     44554 TIP3     3670     SWM4     OH2      ODW       1.71640       15.5994           0 -0.978253       1.30000    
     44555 TIP3     3670     SWM4     DOH2     DOH2     -1.71640      0.400000           0   0.00000       0.00000    
     44556 TIP3     3670     SWM4     OM       LPDW     -1.11466       0.00000          -1   0.00000       0.00000    
     44557 TIP3     3670     SWM4     H1       HDW      0.557330       1.00800           0   0.00000       0.00000    
     44558 TIP3     3670     SWM4     H2       HDW      0.557330       1.00800           0   0.00000       0.00000    
     44559 TIP3     3671     SWM4     OH2      ODW       1.71640       15.5994           0 -0.978253       1.30000    
     44560 TIP3     3671     SWM4     DOH2     DOH2     -1.71640      0.400000           0   0.00000       0.00000    
     44561 TIP3     3671     SWM4     OM       LPDW     -1.11466       0.00000          -1   0.00000       0.00000    
     44562 TIP3     3671     SWM4     H1       HDW      0.557330       1.00800           0   0.00000       0.00000    
     44563 TIP3     3671     SWM4     H2       HDW      0.557330       1.00800           0   0.00000       0.00000    
     44564 TIP3     3672     SWM4     OH2      ODW       1.71640       15.5994           0 -0.978253       1.30000    
     44565 TIP3     3672     SWM4     DOH2     DOH2     -1.71640      0.400000           0   0.00000       0.00000    
     44566 TIP3     3672     SWM4     OM       LPDW     -1.11466       0.00000          -1   0.00000       0.00000    
     44567 TIP3     3672     SWM4     H1       HDW      0.557330       1.00800           0   0.00000       0.00000    
     44568 TIP3     3672     SWM4     H2       HDW      0.557330       1.00800           0   0.00000       0.00000    
     44569 TIP3     3673     SWM4     OH2      ODW       1.71640       15.5994           0 -0.978253       1.30000    
     44570 TIP3     3673     SWM4     DOH2     DOH2     -1.71640      0.400000           0   0.00000       0.00000    
     44571 TIP3     3673     SWM4     OM       LPDW     -1.11466       0.00000          -1   0.00000       0.00000    
     44572 TIP3     3673     SWM4     H1       HDW      0.557330       1.00800           0   0.00000       0.00000    
     44573 TIP3     3673     SWM4     H2       HDW      0.557330       1.00800           0   0.00000       0.00000    
     44574 TIP3     3674     SWM4     OH2      ODW       1.71640       15.5994           0 -0.978253       1.30000    
     44575 TIP3     3674     SWM4     DOH2     DOH2     -1.71640      0.400000           0   0.00000       0.00000    
     44576 TIP3     3674     SWM4     OM       LPDW     -1.11466       0.00000          -1   0.00000       0.00000    
     44577 TIP3     3674     SWM4     H1       HDW      0.557330       1.00800           0   0.00000       0.00000    
     44578 TIP3     3674     SWM4     H2       HDW      0.557330       1.00800           0   0.00000       0.00000    
     44579 TIP3     3675     SWM4     OH2      ODW       1.71640       15.5994           0 -0.978253       1.30000    
     44580 TIP3     3675     SWM4     DOH2     DOH2     -1.71640      0.400000           0   0.00000       0.00000    
     44581 TIP3     3675     SWM4     OM       LPDW     -1.11466       0.00000          -1   0.00000       0.00000    
     44582 TIP3     3675     SWM4     H1       HDW      0.557330       1.00800           0   0.00000       0.00000    
     44583 TIP3     3675     SWM4     H2       HDW      0.557330       1.00800           0   0.00000       0.00000    
     44584 TIP3     3676     SWM4     OH2      ODW       1.71640       15.5994           0 -0.978253       1.30000    
     44585 TIP3     3676     SWM4     DOH2     DOH2     -1.71640      0.400000           0   0.00000       0.00000    
     44586 TIP3     3676     SWM4     OM       LPDW     -1.11466       0.00000          -1   0.00000       0.00000    
     44587 TIP3     3676     SWM4     H1       HDW      0.557330       1.00800           0   0.00000       0.00000    
     44588 TIP3     3676     SWM4     H2       HDW      0.557330       1.00800           0   0.00000       0.00000    
     44589 TIP3     3677     SWM4     OH2      ODW       1.71640       15.5994           0 -0.978253       1.30000    
     44590 TIP3     3677     SWM4     DOH2     DOH2     -1.71640      0.400000           0   0.00000       0.00000    
     44591 TIP3     3677     SWM4     OM       LPDW     -1.11466       0.00000          -1   0.00000       0.00000    
     44592 TIP3     3677     SWM4     H1       HDW      0.557330       1.00800           0   0.00000       0.00000    
     44593 TIP3     3677     SWM4     H2       HDW      0.557330       1.00800           0   0.00000       0.00000    
     44594 TIP3     3678     SWM4     OH2      ODW       1.71640       15.5994           0 -0.978253       1.30000    
     44595 TIP3     3678     SWM4     DOH2     DOH2     -1.71640      0.400000           0   0.00000       0.00000    
     44596 TIP3     3678     SWM4     OM       LPDW     -1.11466       0.00000          -1   0.00000       0.00000    
     44597 TIP3     3678     SWM4     H1       HDW      0.557330       1.00800           0   0.00000       0.00000    
     44598 TIP3     3678     SWM4     H2       HDW      0.557330       1.00800           0   0.00000       0.00000    
     44599 TIP3     3679     SWM4     OH2      ODW       1.71640       15.5994           0 -0.978253       1.30000    
     44600 TIP3     3679     SWM4     DOH2     DOH2     -1.71640      0.400000           0   0.00000       0.00000    
     44601 TIP3     3679     SWM4     OM       LPDW     -1.11466       0.00000          -1   0.00000       0.00000    
     44602 TIP3     3679     SWM4     H1       HDW      0.557330       1.00800           0   0.00000       0.00000    
     44603 TIP3     3679     SWM4     H2       HDW      0.557330       1.00800           0   0.00000       0.00000    
     44604 TIP3     3680     SWM4     OH2      ODW       1.71640       15.5994           0 -0.978253       1.30000    
     44605 TIP3     3680     SWM4     DOH2     DOH2     -1.71640      0.400000           0   0.00000       0.00000    
     44606 TIP3     3680     SWM4     OM       LPDW     -1.11466       0.00000          -1   0.00000       0.00000    
     44607 TIP3     3680     SWM4     H1       HDW      0.557330       1.00800           0   0.00000       0.00000    
     44608 TIP3     3680     SWM4     H2       HDW      0.557330       1.00800           0   0.00000       0.00000    
     44609 TIP3     3681     SWM4     OH2      ODW       1.71640       15.5994           0 -0.978253       1.30000    
     44610 TIP3     3681     SWM4     DOH2     DOH2     -1.71640      0.400000           0   0.00000       0.00000    
     44611 TIP3     3681     SWM4     OM       LPDW     -1.11466       0.00000          -1   0.00000       0.00000    
     44612 TIP3     3681     SWM4     H1       HDW      0.557330       1.00800           0   0.00000       0.00000    
     44613 TIP3     3681     SWM4     H2       HDW      0.557330       1.00800           0   0.00000       0.00000    
     44614 TIP3     3682     SWM4     OH2      ODW       1.71640       15.5994           0 -0.978253       1.30000    
     44615 TIP3     3682     SWM4     DOH2     DOH2     -1.71640      0.400000           0   0.00000       0.00000    
     44616 TIP3     3682     SWM4     OM       LPDW     -1.11466       0.00000          -1   0.00000       0.00000    
     44617 TIP3     3682     SWM4     H1       HDW      0.557330       1.00800           0   0.00000       0.00000    
     44618 TIP3     3682     SWM4     H2       HDW      0.557330       1.00800           0   0.00000       0.00000    
     44619 TIP3     3683     SWM4     OH2      ODW       1.71640       15.5994           0 -0.978253       1.30000    
     44620 TIP3     3683     SWM4     DOH2     DOH2     -1.71640      0.400000           0   0.00000       0.00000    
     44621 TIP3     3683     SWM4     OM       LPDW     -1.11466       0.00000          -1   0.00000       0.00000    
     44622 TIP3     3683     SWM4     H1       HDW      0.557330       1.00800           0   0.00000       0.00000    
     44623 TIP3     3683     SWM4     H2       HDW      0.557330       1.00800           0   0.00000       0.00000    
     44624 TIP3     3684     SWM4     OH2      ODW       1.71640       15.5994           0 -0.978253       1.30000    
     44625 TIP3     3684     SWM4     DOH2     DOH2     -1.71640      0.400000           0   0.00000       0.00000    
     44626 TIP3     3684     SWM4     OM       LPDW     -1.11466       0.00000          -1   0.00000       0.00000    
     44627 TIP3     3684     SWM4     H1       HDW      0.557330       1.00800           0   0.00000       0.00000    
     44628 TIP3     3684     SWM4     H2       HDW      0.557330       1.00800           0   0.00000       0.00000    
     44629 TIP3     3685     SWM4     OH2      ODW       1.71640       15.5994           0 -0.978253       1.30000    
     44630 TIP3     3685     SWM4     DOH2     DOH2     -1.71640      0.400000           0   0.00000       0.00000    
     44631 TIP3     3685     SWM4     OM       LPDW     -1.11466       0.00000          -1   0.00000       0.00000    
     44632 TIP3     3685     SWM4     H1       HDW      0.557330       1.00800           0   0.00000       0.00000    
     44633 TIP3     3685     SWM4     H2       HDW      0.557330       1.00800           0   0.00000       0.00000    
     44634 TIP3     3686     SWM4     OH2      ODW       1.71640       15.5994           0 -0.978253       1.30000    
     44635 TIP3     3686     SWM4     DOH2     DOH2     -1.71640      0.400000           0   0.00000       0.00000    
     44636 TIP3     3686     SWM4     OM       LPDW     -1.11466       0.00000          -1   0.00000       0.00000    
     44637 TIP3     3686     SWM4     H1       HDW      0.557330       1.00800           0   0.00000       0.00000    
     44638 TIP3     3686     SWM4     H2       HDW      0.557330       1.00800           0   0.00000       0.00000    
     44639 TIP3     3687     SWM4     OH2      ODW       1.71640       15.5994           0 -0.978253       1.30000    
     44640 TIP3     3687     SWM4     DOH2     DOH2     -1.71640      0.400000           0   0.00000       0.00000    
     44641 TIP3     3687     SWM4     OM       LPDW     -1.11466       0.00000          -1   0.00000       0.00000    
     44642 TIP3     3687     SWM4     H1       HDW      0.557330       1.00800           0   0.00000       0.00000    
     44643 TIP3     3687     SWM4     H2       HDW      0.557330       1.00800           0   0.00000       0.00000    
     44644 TIP3     3688     SWM4     OH2      ODW       1.71640       15.5994           0 -0.978253       1.30000    
     44645 TIP3     3688     SWM4     DOH2     DOH2     -1.71640      0.400000           0   0.00000       0.00000    
     44646 TIP3     3688     SWM4     OM       LPDW     -1.11466       0.00000          -1   0.00000       0.00000    
     44647 TIP3     3688     SWM4     H1       HDW      0.557330       1.00800           0   0.00000       0.00000    
     44648 TIP3     3688     SWM4     H2       HDW      0.557330       1.00800           0   0.00000       0.00000    
     44649 TIP3     3689     SWM4     OH2      ODW       1.71640       15.5994           0 -0.978253       1.30000    
     44650 TIP3     3689     SWM4     DOH2     DOH2     -1.71640      0.400000           0   0.00000       0.00000    
     44651 TIP3     3689     SWM4     OM       LPDW     -1.11466       0.00000          -1   0.00000       0.00000    
     44652 TIP3     3689     SWM4     H1       HDW      0.557330       1.00800           0   0.00000       0.00000    
     44653 TIP3     3689     SWM4     H2       HDW      0.557330       1.00800           0   0.00000       0.00000    
     44654 TIP3     3690     SWM4     OH2      ODW       1.71640       15.5994           0 -0.978253       1.30000    
     44655 TIP3     3690     SWM4     DOH2     DOH2     -1.71640      0.400000           0   0.00000       0.00000    
     44656 TIP3     3690     SWM4     OM       LPDW     -1.11466       0.00000          -1   0.00000       0.00000    
     44657 TIP3     3690     SWM4     H1       HDW      0.557330       1.00800           0   0.00000       0.00000    
     44658 TIP3     3690     SWM4     H2       HDW      0.557330       1.00800           0   0.00000       0.00000    
     44659 TIP3     3691     SWM4     OH2      ODW       1.71640       15.5994           0 -0.978253       1.30000    
     44660 TIP3     3691     SWM4     DOH2     DOH2     -1.71640      0.400000           0   0.00000       0.00000    
     44661 TIP3     3691     SWM4     OM       LPDW     -1.11466       0.00000          -1   0.00000       0.00000    
     44662 TIP3     3691     SWM4     H1       HDW      0.557330       1.00800           0   0.00000       0.00000    
     44663 TIP3     3691     SWM4     H2       HDW      0.557330       1.00800           0   0.00000       0.00000    
     44664 TIP3     3692     SWM4     OH2      ODW       1.71640       15.5994           0 -0.978253       1.30000    
     44665 TIP3     3692     SWM4     DOH2     DOH2     -1.71640      0.400000           0   0.00000       0.00000    
     44666 TIP3     3692     SWM4     OM       LPDW     -1.11466       0.00000          -1   0.00000       0.00000    
     44667 TIP3     3692     SWM4     H1       HDW      0.557330       1.00800           0   0.00000       0.00000    
     44668 TIP3     3692     SWM4     H2       HDW      0.557330       1.00800           0   0.00000       0.00000    
     44669 TIP3     3693     SWM4     OH2      ODW       1.71640       15.5994           0 -0.978253       1.30000    
     44670 TIP3     3693     SWM4     DOH2     DOH2     -1.71640      0.400000           0   0.00000       0.00000    
     44671 TIP3     3693     SWM4     OM       LPDW     -1.11466       0.00000          -1   0.00000       0.00000    
     44672 TIP3     3693     SWM4     H1       HDW      0.557330       1.00800           0   0.00000       0.00000    
     44673 TIP3     3693     SWM4     H2       HDW      0.557330       1.00800           0   0.00000       0.00000    
     44674 TIP3     3694     SWM4     OH2      ODW       1.71640       15.5994           0 -0.978253       1.30000    
     44675 TIP3     3694     SWM4     DOH2     DOH2     -1.71640      0.400000           0   0.00000       0.00000    
     44676 TIP3     3694     SWM4     OM       LPDW     -1.11466       0.00000          -1   0.00000       0.00000    
     44677 TIP3     3694     SWM4     H1       HDW      0.557330       1.00800           0   0.00000       0.00000    
     44678 TIP3     3694     SWM4     H2       HDW      0.557330       1.00800           0   0.00000       0.00000    
     44679 TIP3     3695     SWM4     OH2      ODW       1.71640       15.5994           0 -0.978253       1.30000    
     44680 TIP3     3695     SWM4     DOH2     DOH2     -1.71640      0.400000           0   0.00000       0.00000    
     44681 TIP3     3695     SWM4     OM       LPDW     -1.11466       0.00000          -1   0.00000       0.00000    
     44682 TIP3     3695     SWM4     H1       HDW      0.557330       1.00800           0   0.00000       0.00000    
     44683 TIP3     3695     SWM4     H2       HDW      0.557330       1.00800           0   0.00000       0.00000    
     44684 TIP3     3696     SWM4     OH2      ODW       1.71640       15.5994           0 -0.978253       1.30000    
     44685 TIP3     3696     SWM4     DOH2     DOH2     -1.71640      0.400000           0   0.00000       0.00000    
     44686 TIP3     3696     SWM4     OM       LPDW     -1.11466       0.00000          -1   0.00000       0.00000    
     44687 TIP3     3696     SWM4     H1       HDW      0.557330       1.00800           0   0.00000       0.00000    
     44688 TIP3     3696     SWM4     H2       HDW      0.557330       1.00800           0   0.00000       0.00000    
     44689 TIP3     3697     SWM4     OH2      ODW       1.71640       15.5994           0 -0.978253       1.30000    
     44690 TIP3     3697     SWM4     DOH2     DOH2     -1.71640      0.400000           0   0.00000       0.00000    
     44691 TIP3     3697     SWM4     OM       LPDW     -1.11466       0.00000          -1   0.00000       0.00000    
     44692 TIP3     3697     SWM4     H1       HDW      0.557330       1.00800           0   0.00000       0.00000    
     44693 TIP3     3697     SWM4     H2       HDW      0.557330       1.00800           0   0.00000       0.00000    
     44694 TIP3     3698     SWM4     OH2      ODW       1.71640       15.5994           0 -0.978253       1.30000    
     44695 TIP3     3698     SWM4     DOH2     DOH2     -1.71640      0.400000           0   0.00000       0.00000    
     44696 TIP3     3698     SWM4     OM       LPDW     -1.11466       0.00000          -1   0.00000       0.00000    
     44697 TIP3     3698     SWM4     H1       HDW      0.557330       1.00800           0   0.00000       0.00000    
     44698 TIP3     3698     SWM4     H2       HDW      0.557330       1.00800           0   0.00000       0.00000    
     44699 TIP3     3699     SWM4     OH2      ODW       1.71640       15.5994           0 -0.978253       1.30000    
     44700 TIP3     3699     SWM4     DOH2     DOH2     -1.71640      0.400000           0   0.00000       0.00000    
     44701 TIP3     3699     SWM4     OM       LPDW     -1.11466       0.00000          -1   0.00000       0.00000    
     44702 TIP3     3699     SWM4     H1       HDW      0.557330       1.00800           0   0.00000       0.00000    
     44703 TIP3     3699     SWM4     H2       HDW      0.557330       1.00800           0   0.00000       0.00000    
     44704 TIP3     3700     SWM4     OH2      ODW       1.71640       15.5994           0 -0.978253       1.30000    
     44705 TIP3     3700     SWM4     DOH2     DOH2     -1.71640      0.400000           0   0.00000       0.00000    
     44706 TIP3     3700     SWM4     OM       LPDW     -1.11466       0.00000          -1   0.00000       0.00000    
     44707 TIP3     3700     SWM4     H1       HDW      0.557330       1.00800           0   0.00000       0.00000    
     44708 TIP3     3700     SWM4     H2       HDW      0.557330       1.00800           0   0.00000       0.00000    
     44709 TIP3     3701     SWM4     OH2      ODW       1.71640       15.5994           0 -0.978253       1.30000    
     44710 TIP3     3701     SWM4     DOH2     DOH2     -1.71640      0.400000           0   0.00000       0.00000    
     44711 TIP3     3701     SWM4     OM       LPDW     -1.11466       0.00000          -1   0.00000       0.00000    
     44712 TIP3     3701     SWM4     H1       HDW      0.557330       1.00800           0   0.00000       0.00000    
     44713 TIP3     3701     SWM4     H2       HDW      0.557330       1.00800           0   0.00000       0.00000    
     44714 TIP3     3702     SWM4     OH2      ODW       1.71640       15.5994           0 -0.978253       1.30000    
     44715 TIP3     3702     SWM4     DOH2     DOH2     -1.71640      0.400000           0   0.00000       0.00000    
     44716 TIP3     3702     SWM4     OM       LPDW     -1.11466       0.00000          -1   0.00000       0.00000    
     44717 TIP3     3702     SWM4     H1       HDW      0.557330       1.00800           0   0.00000       0.00000    
     44718 TIP3     3702     SWM4     H2       HDW      0.557330       1.00800           0   0.00000       0.00000    
     44719 TIP3     3703     SWM4     OH2      ODW       1.71640       15.5994           0 -0.978253       1.30000    
     44720 TIP3     3703     SWM4     DOH2     DOH2     -1.71640      0.400000           0   0.00000       0.00000    
     44721 TIP3     3703     SWM4     OM       LPDW     -1.11466       0.00000          -1   0.00000       0.00000    
     44722 TIP3     3703     SWM4     H1       HDW      0.557330       1.00800           0   0.00000       0.00000    
     44723 TIP3     3703     SWM4     H2       HDW      0.557330       1.00800           0   0.00000       0.00000    
     44724 TIP3     3704     SWM4     OH2      ODW       1.71640       15.5994           0 -0.978253       1.30000    
     44725 TIP3     3704     SWM4     DOH2     DOH2     -1.71640      0.400000           0   0.00000       0.00000    
     44726 TIP3     3704     SWM4     OM       LPDW     -1.11466       0.00000          -1   0.00000       0.00000    
     44727 TIP3     3704     SWM4     H1       HDW      0.557330       1.00800           0   0.00000       0.00000    
     44728 TIP3     3704     SWM4     H2       HDW      0.557330       1.00800           0   0.00000       0.00000    
     44729 TIP3     3705     SWM4     OH2      ODW       1.71640       15.5994           0 -0.978253       1.30000    
     44730 TIP3     3705     SWM4     DOH2     DOH2     -1.71640      0.400000           0   0.00000       0.00000    
     44731 TIP3     3705     SWM4     OM       LPDW     -1.11466       0.00000          -1   0.00000       0.00000    
     44732 TIP3     3705     SWM4     H1       HDW      0.557330       1.00800           0   0.00000       0.00000    
     44733 TIP3     3705     SWM4     H2       HDW      0.557330       1.00800           0   0.00000       0.00000    
     44734 TIP3     3706     SWM4     OH2      ODW       1.71640       15.5994           0 -0.978253       1.30000    
     44735 TIP3     3706     SWM4     DOH2     DOH2     -1.71640      0.400000           0   0.00000       0.00000    
     44736 TIP3     3706     SWM4     OM       LPDW     -1.11466       0.00000          -1   0.00000       0.00000    
     44737 TIP3     3706     SWM4     H1       HDW      0.557330       1.00800           0   0.00000       0.00000    
     44738 TIP3     3706     SWM4     H2       HDW      0.557330       1.00800           0   0.00000       0.00000    
     44739 TIP3     3707     SWM4     OH2      ODW       1.71640       15.5994           0 -0.978253       1.30000    
     44740 TIP3     3707     SWM4     DOH2     DOH2     -1.71640      0.400000           0   0.00000       0.00000    
     44741 TIP3     3707     SWM4     OM       LPDW     -1.11466       0.00000          -1   0.00000       0.00000    
     44742 TIP3     3707     SWM4     H1       HDW      0.557330       1.00800           0   0.00000       0.00000    
     44743 TIP3     3707     SWM4     H2       HDW      0.557330       1.00800           0   0.00000       0.00000    
     44744 TIP3     3708     SWM4     OH2      ODW       1.71640       15.5994           0 -0.978253       1.30000    
     44745 TIP3     3708     SWM4     DOH2     DOH2     -1.71640      0.400000           0   0.00000       0.00000    
     44746 TIP3     3708     SWM4     OM       LPDW     -1.11466       0.00000          -1   0.00000       0.00000    
     44747 TIP3     3708     SWM4     H1       HDW      0.557330       1.00800           0   0.00000       0.00000    
     44748 TIP3     3708     SWM4     H2       HDW      0.557330       1.00800           0   0.00000       0.00000    
     44749 TIP3     3709     SWM4     OH2      ODW       1.71640       15.5994           0 -0.978253       1.30000    
     44750 TIP3     3709     SWM4     DOH2     DOH2     -1.71640      0.400000           0   0.00000       0.00000    
     44751 TIP3     3709     SWM4     OM       LPDW     -1.11466       0.00000          -1   0.00000       0.00000    
     44752 TIP3     3709     SWM4     H1       HDW      0.557330       1.00800           0   0.00000       0.00000    
     44753 TIP3     3709     SWM4     H2       HDW      0.557330       1.00800           0   0.00000       0.00000    
     44754 TIP3     3710     SWM4     OH2      ODW       1.71640       15.5994           0 -0.978253       1.30000    
     44755 TIP3     3710     SWM4     DOH2     DOH2     -1.71640      0.400000           0   0.00000       0.00000    
     44756 TIP3     3710     SWM4     OM       LPDW     -1.11466       0.00000          -1   0.00000       0.00000    
     44757 TIP3     3710     SWM4     H1       HDW      0.557330       1.00800           0   0.00000       0.00000    
     44758 TIP3     3710     SWM4     H2       HDW      0.557330       1.00800           0   0.00000       0.00000    
     44759 TIP3     3711     SWM4     OH2      ODW       1.71640       15.5994           0 -0.978253       1.30000    
     44760 TIP3     3711     SWM4     DOH2     DOH2     -1.71640      0.400000           0   0.00000       0.00000    
     44761 TIP3     3711     SWM4     OM       LPDW     -1.11466       0.00000          -1   0.00000       0.00000    
     44762 TIP3     3711     SWM4     H1       HDW      0.557330       1.00800           0   0.00000       0.00000    
     44763 TIP3     3711     SWM4     H2       HDW      0.557330       1.00800           0   0.00000       0.00000    
     44764 TIP3     3712     SWM4     OH2      ODW       1.71640       15.5994           0 -0.978253       1.30000    
     44765 TIP3     3712     SWM4     DOH2     DOH2     -1.71640      0.400000           0   0.00000       0.00000    
     44766 TIP3     3712     SWM4     OM       LPDW     -1.11466       0.00000          -1   0.00000       0.00000    
     44767 TIP3     3712     SWM4     H1       HDW      0.557330       1.00800           0   0.00000       0.00000    
     44768 TIP3     3712     SWM4     H2       HDW      0.557330       1.00800           0   0.00000       0.00000    
     44769 TIP3     3713     SWM4     OH2      ODW       1.71640       15.5994           0 -0.978253       1.30000    
     44770 TIP3     3713     SWM4     DOH2     DOH2     -1.71640      0.400000           0   0.00000       0.00000    
     44771 TIP3     3713     SWM4     OM       LPDW     -1.11466       0.00000          -1   0.00000       0.00000    
     44772 TIP3     3713     SWM4     H1       HDW      0.557330       1.00800           0   0.00000       0.00000    
     44773 TIP3     3713     SWM4     H2       HDW      0.557330       1.00800           0   0.00000       0.00000    
     44774 TIP3     3714     SWM4     OH2      ODW       1.71640       15.5994           0 -0.978253       1.30000    
     44775 TIP3     3714     SWM4     DOH2     DOH2     -1.71640      0.400000           0   0.00000       0.00000    
     44776 TIP3     3714     SWM4     OM       LPDW     -1.11466       0.00000          -1   0.00000       0.00000    
     44777 TIP3     3714     SWM4     H1       HDW      0.557330       1.00800           0   0.00000       0.00000    
     44778 TIP3     3714     SWM4     H2       HDW      0.557330       1.00800           0   0.00000       0.00000    
     44779 TIP3     3715     SWM4     OH2      ODW       1.71640       15.5994           0 -0.978253       1.30000    
     44780 TIP3     3715     SWM4     DOH2     DOH2     -1.71640      0.400000           0   0.00000       0.00000    
     44781 TIP3     3715     SWM4     OM       LPDW     -1.11466       0.00000          -1   0.00000       0.00000    
     44782 TIP3     3715     SWM4     H1       HDW      0.557330       1.00800           0   0.00000       0.00000    
     44783 TIP3     3715     SWM4     H2       HDW      0.557330       1.00800           0   0.00000       0.00000    
     44784 TIP3     3716     SWM4     OH2      ODW       1.71640       15.5994           0 -0.978253       1.30000    
     44785 TIP3     3716     SWM4     DOH2     DOH2     -1.71640      0.400000           0   0.00000       0.00000    
     44786 TIP3     3716     SWM4     OM       LPDW     -1.11466       0.00000          -1   0.00000       0.00000    
     44787 TIP3     3716     SWM4     H1       HDW      0.557330       1.00800           0   0.00000       0.00000    
     44788 TIP3     3716     SWM4     H2       HDW      0.557330       1.00800           0   0.00000       0.00000    
     44789 TIP3     3717     SWM4     OH2      ODW       1.71640       15.5994           0 -0.978253       1.30000    
     44790 TIP3     3717     SWM4     DOH2     DOH2     -1.71640      0.400000           0   0.00000       0.00000    
     44791 TIP3     3717     SWM4     OM       LPDW     -1.11466       0.00000          -1   0.00000       0.00000    
     44792 TIP3     3717     SWM4     H1       HDW      0.557330       1.00800           0   0.00000       0.00000    
     44793 TIP3     3717     SWM4     H2       HDW      0.557330       1.00800           0   0.00000       0.00000    
     44794 TIP3     3718     SWM4     OH2      ODW       1.71640       15.5994           0 -0.978253       1.30000    
     44795 TIP3     3718     SWM4     DOH2     DOH2     -1.71640      0.400000           0   0.00000       0.00000    
     44796 TIP3     3718     SWM4     OM       LPDW     -1.11466       0.00000          -1   0.00000       0.00000    
     44797 TIP3     3718     SWM4     H1       HDW      0.557330       1.00800           0   0.00000       0.00000    
     44798 TIP3     3718     SWM4     H2       HDW      0.557330       1.00800           0   0.00000       0.00000    
     44799 TIP3     3719     SWM4     OH2      ODW       1.71640       15.5994           0 -0.978253       1.30000    
     44800 TIP3     3719     SWM4     DOH2     DOH2     -1.71640      0.400000           0   0.00000       0.00000    
     44801 TIP3     3719     SWM4     OM       LPDW     -1.11466       0.00000          -1   0.00000       0.00000    
     44802 TIP3     3719     SWM4     H1       HDW      0.557330       1.00800           0   0.00000       0.00000    
     44803 TIP3     3719     SWM4     H2       HDW      0.557330       1.00800           0   0.00000       0.00000    
     44804 TIP3     3720     SWM4     OH2      ODW       1.71640       15.5994           0 -0.978253       1.30000    
     44805 TIP3     3720     SWM4     DOH2     DOH2     -1.71640      0.400000           0   0.00000       0.00000    
     44806 TIP3     3720     SWM4     OM       LPDW     -1.11466       0.00000          -1   0.00000       0.00000    
     44807 TIP3     3720     SWM4     H1       HDW      0.557330       1.00800           0   0.00000       0.00000    
     44808 TIP3     3720     SWM4     H2       HDW      0.557330       1.00800           0   0.00000       0.00000    
     44809 TIP3     3721     SWM4     OH2      ODW       1.71640       15.5994           0 -0.978253       1.30000    
     44810 TIP3     3721     SWM4     DOH2     DOH2     -1.71640      0.400000           0   0.00000       0.00000    
     44811 TIP3     3721     SWM4     OM       LPDW     -1.11466       0.00000          -1   0.00000       0.00000    
     44812 TIP3     3721     SWM4     H1       HDW      0.557330       1.00800           0   0.00000       0.00000    
     44813 TIP3     3721     SWM4     H2       HDW      0.557330       1.00800           0   0.00000       0.00000    
     44814 TIP3     3722     SWM4     OH2      ODW       1.71640       15.5994           0 -0.978253       1.30000    
     44815 TIP3     3722     SWM4     DOH2     DOH2     -1.71640      0.400000           0   0.00000       0.00000    
     44816 TIP3     3722     SWM4     OM       LPDW     -1.11466       0.00000          -1   0.00000       0.00000    
     44817 TIP3     3722     SWM4     H1       HDW      0.557330       1.00800           0   0.00000       0.00000    
     44818 TIP3     3722     SWM4     H2       HDW      0.557330       1.00800           0   0.00000       0.00000    
     44819 TIP3     3723     SWM4     OH2      ODW       1.71640       15.5994           0 -0.978253       1.30000    
     44820 TIP3     3723     SWM4     DOH2     DOH2     -1.71640      0.400000           0   0.00000       0.00000    
     44821 TIP3     3723     SWM4     OM       LPDW     -1.11466       0.00000          -1   0.00000       0.00000    
     44822 TIP3     3723     SWM4     H1       HDW      0.557330       1.00800           0   0.00000       0.00000    
     44823 TIP3     3723     SWM4     H2       HDW      0.557330       1.00800           0   0.00000       0.00000    
     44824 TIP3     3724     SWM4     OH2      ODW       1.71640       15.5994           0 -0.978253       1.30000    
     44825 TIP3     3724     SWM4     DOH2     DOH2     -1.71640      0.400000           0   0.00000       0.00000    
     44826 TIP3     3724     SWM4     OM       LPDW     -1.11466       0.00000          -1   0.00000       0.00000    
     44827 TIP3     3724     SWM4     H1       HDW      0.557330       1.00800           0   0.00000       0.00000    
     44828 TIP3     3724     SWM4     H2       HDW      0.557330       1.00800           0   0.00000       0.00000    
     44829 TIP3     3725     SWM4     OH2      ODW       1.71640       15.5994           0 -0.978253       1.30000    
     44830 TIP3     3725     SWM4     DOH2     DOH2     -1.71640      0.400000           0   0.00000       0.00000    
     44831 TIP3     3725     SWM4     OM       LPDW     -1.11466       0.00000          -1   0.00000       0.00000    
     44832 TIP3     3725     SWM4     H1       HDW      0.557330       1.00800           0   0.00000       0.00000    
     44833 TIP3     3725     SWM4     H2       HDW      0.557330       1.00800           0   0.00000       0.00000    
     44834 TIP3     3726     SWM4     OH2      ODW       1.71640       15.5994           0 -0.978253       1.30000    
     44835 TIP3     3726     SWM4     DOH2     DOH2     -1.71640      0.400000           0   0.00000       0.00000    
     44836 TIP3     3726     SWM4     OM       LPDW     -1.11466       0.00000          -1   0.00000       0.00000    
     44837 TIP3     3726     SWM4     H1       HDW      0.557330       1.00800           0   0.00000       0.00000    
     44838 TIP3     3726     SWM4     H2       HDW      0.557330       1.00800           0   0.00000       0.00000    
     44839 TIP3     3727     SWM4     OH2      ODW       1.71640       15.5994           0 -0.978253       1.30000    
     44840 TIP3     3727     SWM4     DOH2     DOH2     -1.71640      0.400000           0   0.00000       0.00000    
     44841 TIP3     3727     SWM4     OM       LPDW     -1.11466       0.00000          -1   0.00000       0.00000    
     44842 TIP3     3727     SWM4     H1       HDW      0.557330       1.00800           0   0.00000       0.00000    
     44843 TIP3     3727     SWM4     H2       HDW      0.557330       1.00800           0   0.00000       0.00000    
     44844 TIP3     3728     SWM4     OH2      ODW       1.71640       15.5994           0 -0.978253       1.30000    
     44845 TIP3     3728     SWM4     DOH2     DOH2     -1.71640      0.400000           0   0.00000       0.00000    
     44846 TIP3     3728     SWM4     OM       LPDW     -1.11466       0.00000          -1   0.00000       0.00000    
     44847 TIP3     3728     SWM4     H1       HDW      0.557330       1.00800           0   0.00000       0.00000    
     44848 TIP3     3728     SWM4     H2       HDW      0.557330       1.00800           0   0.00000       0.00000    
     44849 TIP3     3729     SWM4     OH2      ODW       1.71640       15.5994           0 -0.978253       1.30000    
     44850 TIP3     3729     SWM4     DOH2     DOH2     -1.71640      0.400000           0   0.00000       0.00000    
     44851 TIP3     3729     SWM4     OM       LPDW     -1.11466       0.00000          -1   0.00000       0.00000    
     44852 TIP3     3729     SWM4     H1       HDW      0.557330       1.00800           0   0.00000       0.00000    
     44853 TIP3     3729     SWM4     H2       HDW      0.557330       1.00800           0   0.00000       0.00000    
     44854 TIP3     3730     SWM4     OH2      ODW       1.71640       15.5994           0 -0.978253       1.30000    
     44855 TIP3     3730     SWM4     DOH2     DOH2     -1.71640      0.400000           0   0.00000       0.00000    
     44856 TIP3     3730     SWM4     OM       LPDW     -1.11466       0.00000          -1   0.00000       0.00000    
     44857 TIP3     3730     SWM4     H1       HDW      0.557330       1.00800           0   0.00000       0.00000    
     44858 TIP3     3730     SWM4     H2       HDW      0.557330       1.00800           0   0.00000       0.00000    
     44859 TIP3     3731     SWM4     OH2      ODW       1.71640       15.5994           0 -0.978253       1.30000    
     44860 TIP3     3731     SWM4     DOH2     DOH2     -1.71640      0.400000           0   0.00000       0.00000    
     44861 TIP3     3731     SWM4     OM       LPDW     -1.11466       0.00000          -1   0.00000       0.00000    
     44862 TIP3     3731     SWM4     H1       HDW      0.557330       1.00800           0   0.00000       0.00000    
     44863 TIP3     3731     SWM4     H2       HDW      0.557330       1.00800           0   0.00000       0.00000    
     44864 TIP3     3732     SWM4     OH2      ODW       1.71640       15.5994           0 -0.978253       1.30000    
     44865 TIP3     3732     SWM4     DOH2     DOH2     -1.71640      0.400000           0   0.00000       0.00000    
     44866 TIP3     3732     SWM4     OM       LPDW     -1.11466       0.00000          -1   0.00000       0.00000    
     44867 TIP3     3732     SWM4     H1       HDW      0.557330       1.00800           0   0.00000       0.00000    
     44868 TIP3     3732     SWM4     H2       HDW      0.557330       1.00800           0   0.00000       0.00000    
     44869 TIP3     3733     SWM4     OH2      ODW       1.71640       15.5994           0 -0.978253       1.30000    
     44870 TIP3     3733     SWM4     DOH2     DOH2     -1.71640      0.400000           0   0.00000       0.00000    
     44871 TIP3     3733     SWM4     OM       LPDW     -1.11466       0.00000          -1   0.00000       0.00000    
     44872 TIP3     3733     SWM4     H1       HDW      0.557330       1.00800           0   0.00000       0.00000    
     44873 TIP3     3733     SWM4     H2       HDW      0.557330       1.00800           0   0.00000       0.00000    
     44874 TIP3     3734     SWM4     OH2      ODW       1.71640       15.5994           0 -0.978253       1.30000    
     44875 TIP3     3734     SWM4     DOH2     DOH2     -1.71640      0.400000           0   0.00000       0.00000    
     44876 TIP3     3734     SWM4     OM       LPDW     -1.11466       0.00000          -1   0.00000       0.00000    
     44877 TIP3     3734     SWM4     H1       HDW      0.557330       1.00800           0   0.00000       0.00000    
     44878 TIP3     3734     SWM4     H2       HDW      0.557330       1.00800           0   0.00000       0.00000    
     44879 TIP3     3735     SWM4     OH2      ODW       1.71640       15.5994           0 -0.978253       1.30000    
     44880 TIP3     3735     SWM4     DOH2     DOH2     -1.71640      0.400000           0   0.00000       0.00000    
     44881 TIP3     3735     SWM4     OM       LPDW     -1.11466       0.00000          -1   0.00000       0.00000    
     44882 TIP3     3735     SWM4     H1       HDW      0.557330       1.00800           0   0.00000       0.00000    
     44883 TIP3     3735     SWM4     H2       HDW      0.557330       1.00800           0   0.00000       0.00000    
     44884 TIP3     3736     SWM4     OH2      ODW       1.71640       15.5994           0 -0.978253       1.30000    
     44885 TIP3     3736     SWM4     DOH2     DOH2     -1.71640      0.400000           0   0.00000       0.00000    
     44886 TIP3     3736     SWM4     OM       LPDW     -1.11466       0.00000          -1   0.00000       0.00000    
     44887 TIP3     3736     SWM4     H1       HDW      0.557330       1.00800           0   0.00000       0.00000    
     44888 TIP3     3736     SWM4     H2       HDW      0.557330       1.00800           0   0.00000       0.00000    
     44889 TIP3     3737     SWM4     OH2      ODW       1.71640       15.5994           0 -0.978253       1.30000    
     44890 TIP3     3737     SWM4     DOH2     DOH2     -1.71640      0.400000           0   0.00000       0.00000    
     44891 TIP3     3737     SWM4     OM       LPDW     -1.11466       0.00000          -1   0.00000       0.00000    
     44892 TIP3     3737     SWM4     H1       HDW      0.557330       1.00800           0   0.00000       0.00000    
     44893 TIP3     3737     SWM4     H2       HDW      0.557330       1.00800           0   0.00000       0.00000    
     44894 TIP3     3738     SWM4     OH2      ODW       1.71640       15.5994           0 -0.978253       1.30000    
     44895 TIP3     3738     SWM4     DOH2     DOH2     -1.71640      0.400000           0   0.00000       0.00000    
     44896 TIP3     3738     SWM4     OM       LPDW     -1.11466       0.00000          -1   0.00000       0.00000    
     44897 TIP3     3738     SWM4     H1       HDW      0.557330       1.00800           0   0.00000       0.00000    
     44898 TIP3     3738     SWM4     H2       HDW      0.557330       1.00800           0   0.00000       0.00000    
     44899 TIP3     3739     SWM4     OH2      ODW       1.71640       15.5994           0 -0.978253       1.30000    
     44900 TIP3     3739     SWM4     DOH2     DOH2     -1.71640      0.400000           0   0.00000       0.00000    
     44901 TIP3     3739     SWM4     OM       LPDW     -1.11466       0.00000          -1   0.00000       0.00000    
     44902 TIP3     3739     SWM4     H1       HDW      0.557330       1.00800           0   0.00000       0.00000    
     44903 TIP3     3739     SWM4     H2       HDW      0.557330       1.00800           0   0.00000       0.00000    
     44904 TIP3     3740     SWM4     OH2      ODW       1.71640       15.5994           0 -0.978253       1.30000    
     44905 TIP3     3740     SWM4     DOH2     DOH2     -1.71640      0.400000           0   0.00000       0.00000    
     44906 TIP3     3740     SWM4     OM       LPDW     -1.11466       0.00000          -1   0.00000       0.00000    
     44907 TIP3     3740     SWM4     H1       HDW      0.557330       1.00800           0   0.00000       0.00000    
     44908 TIP3     3740     SWM4     H2       HDW      0.557330       1.00800           0   0.00000       0.00000    
     44909 TIP3     3741     SWM4     OH2      ODW       1.71640       15.5994           0 -0.978253       1.30000    
     44910 TIP3     3741     SWM4     DOH2     DOH2     -1.71640      0.400000           0   0.00000       0.00000    
     44911 TIP3     3741     SWM4     OM       LPDW     -1.11466       0.00000          -1   0.00000       0.00000    
     44912 TIP3     3741     SWM4     H1       HDW      0.557330       1.00800           0   0.00000       0.00000    
     44913 TIP3     3741     SWM4     H2       HDW      0.557330       1.00800           0   0.00000       0.00000    
     44914 TIP3     3742     SWM4     OH2      ODW       1.71640       15.5994           0 -0.978253       1.30000    
     44915 TIP3     3742     SWM4     DOH2     DOH2     -1.71640      0.400000           0   0.00000       0.00000    
     44916 TIP3     3742     SWM4     OM       LPDW     -1.11466       0.00000          -1   0.00000       0.00000    
     44917 TIP3     3742     SWM4     H1       HDW      0.557330       1.00800           0   0.00000       0.00000    
     44918 TIP3     3742     SWM4     H2       HDW      0.557330       1.00800           0   0.00000       0.00000    
     44919 TIP3     3743     SWM4     OH2      ODW       1.71640       15.5994           0 -0.978253       1.30000    
     44920 TIP3     3743     SWM4     DOH2     DOH2     -1.71640      0.400000           0   0.00000       0.00000    
     44921 TIP3     3743     SWM4     OM       LPDW     -1.11466       0.00000          -1   0.00000       0.00000    
     44922 TIP3     3743     SWM4     H1       HDW      0.557330       1.00800           0   0.00000       0.00000    
     44923 TIP3     3743     SWM4     H2       HDW      0.557330       1.00800           0   0.00000       0.00000    
     44924 TIP3     3744     SWM4     OH2      ODW       1.71640       15.5994           0 -0.978253       1.30000    
     44925 TIP3     3744     SWM4     DOH2     DOH2     -1.71640      0.400000           0   0.00000       0.00000    
     44926 TIP3     3744     SWM4     OM       LPDW     -1.11466       0.00000          -1   0.00000       0.00000    
     44927 TIP3     3744     SWM4     H1       HDW      0.557330       1.00800           0   0.00000       0.00000    
     44928 TIP3     3744     SWM4     H2       HDW      0.557330       1.00800           0   0.00000       0.00000    
     44929 TIP3     3745     SWM4     OH2      ODW       1.71640       15.5994           0 -0.978253       1.30000    
     44930 TIP3     3745     SWM4     DOH2     DOH2     -1.71640      0.400000           0   0.00000       0.00000    
     44931 TIP3     3745     SWM4     OM       LPDW     -1.11466       0.00000          -1   0.00000       0.00000    
     44932 TIP3     3745     SWM4     H1       HDW      0.557330       1.00800           0   0.00000       0.00000    
     44933 TIP3     3745     SWM4     H2       HDW      0.557330       1.00800           0   0.00000       0.00000    
     44934 TIP3     3746     SWM4     OH2      ODW       1.71640       15.5994           0 -0.978253       1.30000    
     44935 TIP3     3746     SWM4     DOH2     DOH2     -1.71640      0.400000           0   0.00000       0.00000    
     44936 TIP3     3746     SWM4     OM       LPDW     -1.11466       0.00000          -1   0.00000       0.00000    
     44937 TIP3     3746     SWM4     H1       HDW      0.557330       1.00800           0   0.00000       0.00000    
     44938 TIP3     3746     SWM4     H2       HDW      0.557330       1.00800           0   0.00000       0.00000    
     44939 TIP3     3747     SWM4     OH2      ODW       1.71640       15.5994           0 -0.978253       1.30000    
     44940 TIP3     3747     SWM4     DOH2     DOH2     -1.71640      0.400000           0   0.00000       0.00000    
     44941 TIP3     3747     SWM4     OM       LPDW     -1.11466       0.00000          -1   0.00000       0.00000    
     44942 TIP3     3747     SWM4     H1       HDW      0.557330       1.00800           0   0.00000       0.00000    
     44943 TIP3     3747     SWM4     H2       HDW      0.557330       1.00800           0   0.00000       0.00000    
     44944 TIP3     3748     SWM4     OH2      ODW       1.71640       15.5994           0 -0.978253       1.30000    
     44945 TIP3     3748     SWM4     DOH2     DOH2     -1.71640      0.400000           0   0.00000       0.00000    
     44946 TIP3     3748     SWM4     OM       LPDW     -1.11466       0.00000          -1   0.00000       0.00000    
     44947 TIP3     3748     SWM4     H1       HDW      0.557330       1.00800           0   0.00000       0.00000    
     44948 TIP3     3748     SWM4     H2       HDW      0.557330       1.00800           0   0.00000       0.00000    
     44949 TIP3     3749     SWM4     OH2      ODW       1.71640       15.5994           0 -0.978253       1.30000    
     44950 TIP3     3749     SWM4     DOH2     DOH2     -1.71640      0.400000           0   0.00000       0.00000    
     44951 TIP3     3749     SWM4     OM       LPDW     -1.11466       0.00000          -1   0.00000       0.00000    
     44952 TIP3     3749     SWM4     H1       HDW      0.557330       1.00800           0   0.00000       0.00000    
     44953 TIP3     3749     SWM4     H2       HDW      0.557330       1.00800           0   0.00000       0.00000    
     44954 TIP3     3750     SWM4     OH2      ODW       1.71640       15.5994           0 -0.978253       1.30000    
     44955 TIP3     3750     SWM4     DOH2     DOH2     -1.71640      0.400000           0   0.00000       0.00000    
     44956 TIP3     3750     SWM4     OM       LPDW     -1.11466       0.00000          -1   0.00000       0.00000    
     44957 TIP3     3750     SWM4     H1       HDW      0.557330       1.00800           0   0.00000       0.00000    
     44958 TIP3     3750     SWM4     H2       HDW      0.557330       1.00800           0   0.00000       0.00000    
     44959 TIP3     3751     SWM4     OH2      ODW       1.71640       15.5994           0 -0.978253       1.30000    
     44960 TIP3     3751     SWM4     DOH2     DOH2     -1.71640      0.400000           0   0.00000       0.00000    
     44961 TIP3     3751     SWM4     OM       LPDW     -1.11466       0.00000          -1   0.00000       0.00000    
     44962 TIP3     3751     SWM4     H1       HDW      0.557330       1.00800           0   0.00000       0.00000    
     44963 TIP3     3751     SWM4     H2       HDW      0.557330       1.00800           0   0.00000       0.00000    
     44964 TIP3     3752     SWM4     OH2      ODW       1.71640       15.5994           0 -0.978253       1.30000    
     44965 TIP3     3752     SWM4     DOH2     DOH2     -1.71640      0.400000           0   0.00000       0.00000    
     44966 TIP3     3752     SWM4     OM       LPDW     -1.11466       0.00000          -1   0.00000       0.00000    
     44967 TIP3     3752     SWM4     H1       HDW      0.557330       1.00800           0   0.00000       0.00000    
     44968 TIP3     3752     SWM4     H2       HDW      0.557330       1.00800           0   0.00000       0.00000    
     44969 TIP3     3753     SWM4     OH2      ODW       1.71640       15.5994           0 -0.978253       1.30000    
     44970 TIP3     3753     SWM4     DOH2     DOH2     -1.71640      0.400000           0   0.00000       0.00000    
     44971 TIP3     3753     SWM4     OM       LPDW     -1.11466       0.00000          -1   0.00000       0.00000    
     44972 TIP3     3753     SWM4     H1       HDW      0.557330       1.00800           0   0.00000       0.00000    
     44973 TIP3     3753     SWM4     H2       HDW      0.557330       1.00800           0   0.00000       0.00000    
     44974 TIP3     3754     SWM4     OH2      ODW       1.71640       15.5994           0 -0.978253       1.30000    
     44975 TIP3     3754     SWM4     DOH2     DOH2     -1.71640      0.400000           0   0.00000       0.00000    
     44976 TIP3     3754     SWM4     OM       LPDW     -1.11466       0.00000          -1   0.00000       0.00000    
     44977 TIP3     3754     SWM4     H1       HDW      0.557330       1.00800           0   0.00000       0.00000    
     44978 TIP3     3754     SWM4     H2       HDW      0.557330       1.00800           0   0.00000       0.00000    
     44979 TIP3     3755     SWM4     OH2      ODW       1.71640       15.5994           0 -0.978253       1.30000    
     44980 TIP3     3755     SWM4     DOH2     DOH2     -1.71640      0.400000           0   0.00000       0.00000    
     44981 TIP3     3755     SWM4     OM       LPDW     -1.11466       0.00000          -1   0.00000       0.00000    
     44982 TIP3     3755     SWM4     H1       HDW      0.557330       1.00800           0   0.00000       0.00000    
     44983 TIP3     3755     SWM4     H2       HDW      0.557330       1.00800           0   0.00000       0.00000    
     44984 TIP3     3756     SWM4     OH2      ODW       1.71640       15.5994           0 -0.978253       1.30000    
     44985 TIP3     3756     SWM4     DOH2     DOH2     -1.71640      0.400000           0   0.00000       0.00000    
     44986 TIP3     3756     SWM4     OM       LPDW     -1.11466       0.00000          -1   0.00000       0.00000    
     44987 TIP3     3756     SWM4     H1       HDW      0.557330       1.00800           0   0.00000       0.00000    
     44988 TIP3     3756     SWM4     H2       HDW      0.557330       1.00800           0   0.00000       0.00000    
     44989 TIP3     3757     SWM4     OH2      ODW       1.71640       15.5994           0 -0.978253       1.30000    
     44990 TIP3     3757     SWM4     DOH2     DOH2     -1.71640      0.400000           0   0.00000       0.00000    
     44991 TIP3     3757     SWM4     OM       LPDW     -1.11466       0.00000          -1   0.00000       0.00000    
     44992 TIP3     3757     SWM4     H1       HDW      0.557330       1.00800           0   0.00000       0.00000    
     44993 TIP3     3757     SWM4     H2       HDW      0.557330       1.00800           0   0.00000       0.00000    
     44994 TIP3     3758     SWM4     OH2      ODW       1.71640       15.5994           0 -0.978253       1.30000    
     44995 TIP3     3758     SWM4     DOH2     DOH2     -1.71640      0.400000           0   0.00000       0.00000    
     44996 TIP3     3758     SWM4     OM       LPDW     -1.11466       0.00000          -1   0.00000       0.00000    
     44997 TIP3     3758     SWM4     H1       HDW      0.557330       1.00800           0   0.00000       0.00000    
     44998 TIP3     3758     SWM4     H2       HDW      0.557330       1.00800           0   0.00000       0.00000    
     44999 TIP3     3759     SWM4     OH2      ODW       1.71640       15.5994           0 -0.978253       1.30000    
     45000 TIP3     3759     SWM4     DOH2     DOH2     -1.71640      0.400000           0   0.00000       0.00000    
     45001 TIP3     3759     SWM4     OM       LPDW     -1.11466       0.00000          -1   0.00000       0.00000    
     45002 TIP3     3759     SWM4     H1       HDW      0.557330       1.00800           0   0.00000       0.00000    
     45003 TIP3     3759     SWM4     H2       HDW      0.557330       1.00800           0   0.00000       0.00000    
     45004 TIP3     3760     SWM4     OH2      ODW       1.71640       15.5994           0 -0.978253       1.30000    
     45005 TIP3     3760     SWM4     DOH2     DOH2     -1.71640      0.400000           0   0.00000       0.00000    
     45006 TIP3     3760     SWM4     OM       LPDW     -1.11466       0.00000          -1   0.00000       0.00000    
     45007 TIP3     3760     SWM4     H1       HDW      0.557330       1.00800           0   0.00000       0.00000    
     45008 TIP3     3760     SWM4     H2       HDW      0.557330       1.00800           0   0.00000       0.00000    
     45009 TIP3     3761     SWM4     OH2      ODW       1.71640       15.5994           0 -0.978253       1.30000    
     45010 TIP3     3761     SWM4     DOH2     DOH2     -1.71640      0.400000           0   0.00000       0.00000    
     45011 TIP3     3761     SWM4     OM       LPDW     -1.11466       0.00000          -1   0.00000       0.00000    
     45012 TIP3     3761     SWM4     H1       HDW      0.557330       1.00800           0   0.00000       0.00000    
     45013 TIP3     3761     SWM4     H2       HDW      0.557330       1.00800           0   0.00000       0.00000    
     45014 TIP3     3762     SWM4     OH2      ODW       1.71640       15.5994           0 -0.978253       1.30000    
     45015 TIP3     3762     SWM4     DOH2     DOH2     -1.71640      0.400000           0   0.00000       0.00000    
     45016 TIP3     3762     SWM4     OM       LPDW     -1.11466       0.00000          -1   0.00000       0.00000    
     45017 TIP3     3762     SWM4     H1       HDW      0.557330       1.00800           0   0.00000       0.00000    
     45018 TIP3     3762     SWM4     H2       HDW      0.557330       1.00800           0   0.00000       0.00000    
     45019 TIP3     3763     SWM4     OH2      ODW       1.71640       15.5994           0 -0.978253       1.30000    
     45020 TIP3     3763     SWM4     DOH2     DOH2     -1.71640      0.400000           0   0.00000       0.00000    
     45021 TIP3     3763     SWM4     OM       LPDW     -1.11466       0.00000          -1   0.00000       0.00000    
     45022 TIP3     3763     SWM4     H1       HDW      0.557330       1.00800           0   0.00000       0.00000    
     45023 TIP3     3763     SWM4     H2       HDW      0.557330       1.00800           0   0.00000       0.00000    
     45024 TIP3     3764     SWM4     OH2      ODW       1.71640       15.5994           0 -0.978253       1.30000    
     45025 TIP3     3764     SWM4     DOH2     DOH2     -1.71640      0.400000           0   0.00000       0.00000    
     45026 TIP3     3764     SWM4     OM       LPDW     -1.11466       0.00000          -1   0.00000       0.00000    
     45027 TIP3     3764     SWM4     H1       HDW      0.557330       1.00800           0   0.00000       0.00000    
     45028 TIP3     3764     SWM4     H2       HDW      0.557330       1.00800           0   0.00000       0.00000    
     45029 TIP3     3765     SWM4     OH2      ODW       1.71640       15.5994           0 -0.978253       1.30000    
     45030 TIP3     3765     SWM4     DOH2     DOH2     -1.71640      0.400000           0   0.00000       0.00000    
     45031 TIP3     3765     SWM4     OM       LPDW     -1.11466       0.00000          -1   0.00000       0.00000    
     45032 TIP3     3765     SWM4     H1       HDW      0.557330       1.00800           0   0.00000       0.00000    
     45033 TIP3     3765     SWM4     H2       HDW      0.557330       1.00800           0   0.00000       0.00000    
     45034 TIP3     3766     SWM4     OH2      ODW       1.71640       15.5994           0 -0.978253       1.30000    
     45035 TIP3     3766     SWM4     DOH2     DOH2     -1.71640      0.400000           0   0.00000       0.00000    
     45036 TIP3     3766     SWM4     OM       LPDW     -1.11466       0.00000          -1   0.00000       0.00000    
     45037 TIP3     3766     SWM4     H1       HDW      0.557330       1.00800           0   0.00000       0.00000    
     45038 TIP3     3766     SWM4     H2       HDW      0.557330       1.00800           0   0.00000       0.00000    
     45039 TIP3     3767     SWM4     OH2      ODW       1.71640       15.5994           0 -0.978253       1.30000    
     45040 TIP3     3767     SWM4     DOH2     DOH2     -1.71640      0.400000           0   0.00000       0.00000    
     45041 TIP3     3767     SWM4     OM       LPDW     -1.11466       0.00000          -1   0.00000       0.00000    
     45042 TIP3     3767     SWM4     H1       HDW      0.557330       1.00800           0   0.00000       0.00000    
     45043 TIP3     3767     SWM4     H2       HDW      0.557330       1.00800           0   0.00000       0.00000    
     45044 TIP3     3768     SWM4     OH2      ODW       1.71640       15.5994           0 -0.978253       1.30000    
     45045 TIP3     3768     SWM4     DOH2     DOH2     -1.71640      0.400000           0   0.00000       0.00000    
     45046 TIP3     3768     SWM4     OM       LPDW     -1.11466       0.00000          -1   0.00000       0.00000    
     45047 TIP3     3768     SWM4     H1       HDW      0.557330       1.00800           0   0.00000       0.00000    
     45048 TIP3     3768     SWM4     H2       HDW      0.557330       1.00800           0   0.00000       0.00000    
     45049 TIP3     3769     SWM4     OH2      ODW       1.71640       15.5994           0 -0.978253       1.30000    
     45050 TIP3     3769     SWM4     DOH2     DOH2     -1.71640      0.400000           0   0.00000       0.00000    
     45051 TIP3     3769     SWM4     OM       LPDW     -1.11466       0.00000          -1   0.00000       0.00000    
     45052 TIP3     3769     SWM4     H1       HDW      0.557330       1.00800           0   0.00000       0.00000    
     45053 TIP3     3769     SWM4     H2       HDW      0.557330       1.00800           0   0.00000       0.00000    
     45054 TIP3     3770     SWM4     OH2      ODW       1.71640       15.5994           0 -0.978253       1.30000    
     45055 TIP3     3770     SWM4     DOH2     DOH2     -1.71640      0.400000           0   0.00000       0.00000    
     45056 TIP3     3770     SWM4     OM       LPDW     -1.11466       0.00000          -1   0.00000       0.00000    
     45057 TIP3     3770     SWM4     H1       HDW      0.557330       1.00800           0   0.00000       0.00000    
     45058 TIP3     3770     SWM4     H2       HDW      0.557330       1.00800           0   0.00000       0.00000    
     45059 TIP3     3771     SWM4     OH2      ODW       1.71640       15.5994           0 -0.978253       1.30000    
     45060 TIP3     3771     SWM4     DOH2     DOH2     -1.71640      0.400000           0   0.00000       0.00000    
     45061 TIP3     3771     SWM4     OM       LPDW     -1.11466       0.00000          -1   0.00000       0.00000    
     45062 TIP3     3771     SWM4     H1       HDW      0.557330       1.00800           0   0.00000       0.00000    
     45063 TIP3     3771     SWM4     H2       HDW      0.557330       1.00800           0   0.00000       0.00000    
     45064 TIP3     3772     SWM4     OH2      ODW       1.71640       15.5994           0 -0.978253       1.30000    
     45065 TIP3     3772     SWM4     DOH2     DOH2     -1.71640      0.400000           0   0.00000       0.00000    
     45066 TIP3     3772     SWM4     OM       LPDW     -1.11466       0.00000          -1   0.00000       0.00000    
     45067 TIP3     3772     SWM4     H1       HDW      0.557330       1.00800           0   0.00000       0.00000    
     45068 TIP3     3772     SWM4     H2       HDW      0.557330       1.00800           0   0.00000       0.00000    
     45069 TIP3     3773     SWM4     OH2      ODW       1.71640       15.5994           0 -0.978253       1.30000    
     45070 TIP3     3773     SWM4     DOH2     DOH2     -1.71640      0.400000           0   0.00000       0.00000    
     45071 TIP3     3773     SWM4     OM       LPDW     -1.11466       0.00000          -1   0.00000       0.00000    
     45072 TIP3     3773     SWM4     H1       HDW      0.557330       1.00800           0   0.00000       0.00000    
     45073 TIP3     3773     SWM4     H2       HDW      0.557330       1.00800           0   0.00000       0.00000    
     45074 TIP3     3774     SWM4     OH2      ODW       1.71640       15.5994           0 -0.978253       1.30000    
     45075 TIP3     3774     SWM4     DOH2     DOH2     -1.71640      0.400000           0   0.00000       0.00000    
     45076 TIP3     3774     SWM4     OM       LPDW     -1.11466       0.00000          -1   0.00000       0.00000    
     45077 TIP3     3774     SWM4     H1       HDW      0.557330       1.00800           0   0.00000       0.00000    
     45078 TIP3     3774     SWM4     H2       HDW      0.557330       1.00800           0   0.00000       0.00000    
     45079 TIP3     3775     SWM4     OH2      ODW       1.71640       15.5994           0 -0.978253       1.30000    
     45080 TIP3     3775     SWM4     DOH2     DOH2     -1.71640      0.400000           0   0.00000       0.00000    
     45081 TIP3     3775     SWM4     OM       LPDW     -1.11466       0.00000          -1   0.00000       0.00000    
     45082 TIP3     3775     SWM4     H1       HDW      0.557330       1.00800           0   0.00000       0.00000    
     45083 TIP3     3775     SWM4     H2       HDW      0.557330       1.00800           0   0.00000       0.00000    
     45084 TIP3     3776     SWM4     OH2      ODW       1.71640       15.5994           0 -0.978253       1.30000    
     45085 TIP3     3776     SWM4     DOH2     DOH2     -1.71640      0.400000           0   0.00000       0.00000    
     45086 TIP3     3776     SWM4     OM       LPDW     -1.11466       0.00000          -1   0.00000       0.00000    
     45087 TIP3     3776     SWM4     H1       HDW      0.557330       1.00800           0   0.00000       0.00000    
     45088 TIP3     3776     SWM4     H2       HDW      0.557330       1.00800           0   0.00000       0.00000    
     45089 TIP3     3777     SWM4     OH2      ODW       1.71640       15.5994           0 -0.978253       1.30000    
     45090 TIP3     3777     SWM4     DOH2     DOH2     -1.71640      0.400000           0   0.00000       0.00000    
     45091 TIP3     3777     SWM4     OM       LPDW     -1.11466       0.00000          -1   0.00000       0.00000    
     45092 TIP3     3777     SWM4     H1       HDW      0.557330       1.00800           0   0.00000       0.00000    
     45093 TIP3     3777     SWM4     H2       HDW      0.557330       1.00800           0   0.00000       0.00000    
     45094 TIP3     3778     SWM4     OH2      ODW       1.71640       15.5994           0 -0.978253       1.30000    
     45095 TIP3     3778     SWM4     DOH2     DOH2     -1.71640      0.400000           0   0.00000       0.00000    
     45096 TIP3     3778     SWM4     OM       LPDW     -1.11466       0.00000          -1   0.00000       0.00000    
     45097 TIP3     3778     SWM4     H1       HDW      0.557330       1.00800           0   0.00000       0.00000    
     45098 TIP3     3778     SWM4     H2       HDW      0.557330       1.00800           0   0.00000       0.00000    
     45099 TIP3     3779     SWM4     OH2      ODW       1.71640       15.5994           0 -0.978253       1.30000    
     45100 TIP3     3779     SWM4     DOH2     DOH2     -1.71640      0.400000           0   0.00000       0.00000    
     45101 TIP3     3779     SWM4     OM       LPDW     -1.11466       0.00000          -1   0.00000       0.00000    
     45102 TIP3     3779     SWM4     H1       HDW      0.557330       1.00800           0   0.00000       0.00000    
     45103 TIP3     3779     SWM4     H2       HDW      0.557330       1.00800           0   0.00000       0.00000    
     45104 TIP3     3780     SWM4     OH2      ODW       1.71640       15.5994           0 -0.978253       1.30000    
     45105 TIP3     3780     SWM4     DOH2     DOH2     -1.71640      0.400000           0   0.00000       0.00000    
     45106 TIP3     3780     SWM4     OM       LPDW     -1.11466       0.00000          -1   0.00000       0.00000    
     45107 TIP3     3780     SWM4     H1       HDW      0.557330       1.00800           0   0.00000       0.00000    
     45108 TIP3     3780     SWM4     H2       HDW      0.557330       1.00800           0   0.00000       0.00000    
     45109 TIP3     3781     SWM4     OH2      ODW       1.71640       15.5994           0 -0.978253       1.30000    
     45110 TIP3     3781     SWM4     DOH2     DOH2     -1.71640      0.400000           0   0.00000       0.00000    
     45111 TIP3     3781     SWM4     OM       LPDW     -1.11466       0.00000          -1   0.00000       0.00000    
     45112 TIP3     3781     SWM4     H1       HDW      0.557330       1.00800           0   0.00000       0.00000    
     45113 TIP3     3781     SWM4     H2       HDW      0.557330       1.00800           0   0.00000       0.00000    
     45114 TIP3     3782     SWM4     OH2      ODW       1.71640       15.5994           0 -0.978253       1.30000    
     45115 TIP3     3782     SWM4     DOH2     DOH2     -1.71640      0.400000           0   0.00000       0.00000    
     45116 TIP3     3782     SWM4     OM       LPDW     -1.11466       0.00000          -1   0.00000       0.00000    
     45117 TIP3     3782     SWM4     H1       HDW      0.557330       1.00800           0   0.00000       0.00000    
     45118 TIP3     3782     SWM4     H2       HDW      0.557330       1.00800           0   0.00000       0.00000    
     45119 TIP3     3783     SWM4     OH2      ODW       1.71640       15.5994           0 -0.978253       1.30000    
     45120 TIP3     3783     SWM4     DOH2     DOH2     -1.71640      0.400000           0   0.00000       0.00000    
     45121 TIP3     3783     SWM4     OM       LPDW     -1.11466       0.00000          -1   0.00000       0.00000    
     45122 TIP3     3783     SWM4     H1       HDW      0.557330       1.00800           0   0.00000       0.00000    
     45123 TIP3     3783     SWM4     H2       HDW      0.557330       1.00800           0   0.00000       0.00000    
     45124 TIP3     3784     SWM4     OH2      ODW       1.71640       15.5994           0 -0.978253       1.30000    
     45125 TIP3     3784     SWM4     DOH2     DOH2     -1.71640      0.400000           0   0.00000       0.00000    
     45126 TIP3     3784     SWM4     OM       LPDW     -1.11466       0.00000          -1   0.00000       0.00000    
     45127 TIP3     3784     SWM4     H1       HDW      0.557330       1.00800           0   0.00000       0.00000    
     45128 TIP3     3784     SWM4     H2       HDW      0.557330       1.00800           0   0.00000       0.00000    
     45129 TIP3     3785     SWM4     OH2      ODW       1.71640       15.5994           0 -0.978253       1.30000    
     45130 TIP3     3785     SWM4     DOH2     DOH2     -1.71640      0.400000           0   0.00000       0.00000    
     45131 TIP3     3785     SWM4     OM       LPDW     -1.11466       0.00000          -1   0.00000       0.00000    
     45132 TIP3     3785     SWM4     H1       HDW      0.557330       1.00800           0   0.00000       0.00000    
     45133 TIP3     3785     SWM4     H2       HDW      0.557330       1.00800           0   0.00000       0.00000    
     45134 TIP3     3786     SWM4     OH2      ODW       1.71640       15.5994           0 -0.978253       1.30000    
     45135 TIP3     3786     SWM4     DOH2     DOH2     -1.71640      0.400000           0   0.00000       0.00000    
     45136 TIP3     3786     SWM4     OM       LPDW     -1.11466       0.00000          -1   0.00000       0.00000    
     45137 TIP3     3786     SWM4     H1       HDW      0.557330       1.00800           0   0.00000       0.00000    
     45138 TIP3     3786     SWM4     H2       HDW      0.557330       1.00800           0   0.00000       0.00000    
     45139 TIP3     3787     SWM4     OH2      ODW       1.71640       15.5994           0 -0.978253       1.30000    
     45140 TIP3     3787     SWM4     DOH2     DOH2     -1.71640      0.400000           0   0.00000       0.00000    
     45141 TIP3     3787     SWM4     OM       LPDW     -1.11466       0.00000          -1   0.00000       0.00000    
     45142 TIP3     3787     SWM4     H1       HDW      0.557330       1.00800           0   0.00000       0.00000    
     45143 TIP3     3787     SWM4     H2       HDW      0.557330       1.00800           0   0.00000       0.00000    
     45144 TIP3     3788     SWM4     OH2      ODW       1.71640       15.5994           0 -0.978253       1.30000    
     45145 TIP3     3788     SWM4     DOH2     DOH2     -1.71640      0.400000           0   0.00000       0.00000    
     45146 TIP3     3788     SWM4     OM       LPDW     -1.11466       0.00000          -1   0.00000       0.00000    
     45147 TIP3     3788     SWM4     H1       HDW      0.557330       1.00800           0   0.00000       0.00000    
     45148 TIP3     3788     SWM4     H2       HDW      0.557330       1.00800           0   0.00000       0.00000    
     45149 TIP3     3789     SWM4     OH2      ODW       1.71640       15.5994           0 -0.978253       1.30000    
     45150 TIP3     3789     SWM4     DOH2     DOH2     -1.71640      0.400000           0   0.00000       0.00000    
     45151 TIP3     3789     SWM4     OM       LPDW     -1.11466       0.00000          -1   0.00000       0.00000    
     45152 TIP3     3789     SWM4     H1       HDW      0.557330       1.00800           0   0.00000       0.00000    
     45153 TIP3     3789     SWM4     H2       HDW      0.557330       1.00800           0   0.00000       0.00000    
     45154 TIP3     3790     SWM4     OH2      ODW       1.71640       15.5994           0 -0.978253       1.30000    
     45155 TIP3     3790     SWM4     DOH2     DOH2     -1.71640      0.400000           0   0.00000       0.00000    
     45156 TIP3     3790     SWM4     OM       LPDW     -1.11466       0.00000          -1   0.00000       0.00000    
     45157 TIP3     3790     SWM4     H1       HDW      0.557330       1.00800           0   0.00000       0.00000    
     45158 TIP3     3790     SWM4     H2       HDW      0.557330       1.00800           0   0.00000       0.00000    
     45159 TIP3     3791     SWM4     OH2      ODW       1.71640       15.5994           0 -0.978253       1.30000    
     45160 TIP3     3791     SWM4     DOH2     DOH2     -1.71640      0.400000           0   0.00000       0.00000    
     45161 TIP3     3791     SWM4     OM       LPDW     -1.11466       0.00000          -1   0.00000       0.00000    
     45162 TIP3     3791     SWM4     H1       HDW      0.557330       1.00800           0   0.00000       0.00000    
     45163 TIP3     3791     SWM4     H2       HDW      0.557330       1.00800           0   0.00000       0.00000    
     45164 TIP3     3792     SWM4     OH2      ODW       1.71640       15.5994           0 -0.978253       1.30000    
     45165 TIP3     3792     SWM4     DOH2     DOH2     -1.71640      0.400000           0   0.00000       0.00000    
     45166 TIP3     3792     SWM4     OM       LPDW     -1.11466       0.00000          -1   0.00000       0.00000    
     45167 TIP3     3792     SWM4     H1       HDW      0.557330       1.00800           0   0.00000       0.00000    
     45168 TIP3     3792     SWM4     H2       HDW      0.557330       1.00800           0   0.00000       0.00000    
     45169 TIP3     3793     SWM4     OH2      ODW       1.71640       15.5994           0 -0.978253       1.30000    
     45170 TIP3     3793     SWM4     DOH2     DOH2     -1.71640      0.400000           0   0.00000       0.00000    
     45171 TIP3     3793     SWM4     OM       LPDW     -1.11466       0.00000          -1   0.00000       0.00000    
     45172 TIP3     3793     SWM4     H1       HDW      0.557330       1.00800           0   0.00000       0.00000    
     45173 TIP3     3793     SWM4     H2       HDW      0.557330       1.00800           0   0.00000       0.00000    
     45174 TIP3     3794     SWM4     OH2      ODW       1.71640       15.5994           0 -0.978253       1.30000    
     45175 TIP3     3794     SWM4     DOH2     DOH2     -1.71640      0.400000           0   0.00000       0.00000    
     45176 TIP3     3794     SWM4     OM       LPDW     -1.11466       0.00000          -1   0.00000       0.00000    
     45177 TIP3     3794     SWM4     H1       HDW      0.557330       1.00800           0   0.00000       0.00000    
     45178 TIP3     3794     SWM4     H2       HDW      0.557330       1.00800           0   0.00000       0.00000    
     45179 TIP3     3795     SWM4     OH2      ODW       1.71640       15.5994           0 -0.978253       1.30000    
     45180 TIP3     3795     SWM4     DOH2     DOH2     -1.71640      0.400000           0   0.00000       0.00000    
     45181 TIP3     3795     SWM4     OM       LPDW     -1.11466       0.00000          -1   0.00000       0.00000    
     45182 TIP3     3795     SWM4     H1       HDW      0.557330       1.00800           0   0.00000       0.00000    
     45183 TIP3     3795     SWM4     H2       HDW      0.557330       1.00800           0   0.00000       0.00000    
     45184 TIP3     3796     SWM4     OH2      ODW       1.71640       15.5994           0 -0.978253       1.30000    
     45185 TIP3     3796     SWM4     DOH2     DOH2     -1.71640      0.400000           0   0.00000       0.00000    
     45186 TIP3     3796     SWM4     OM       LPDW     -1.11466       0.00000          -1   0.00000       0.00000    
     45187 TIP3     3796     SWM4     H1       HDW      0.557330       1.00800           0   0.00000       0.00000    
     45188 TIP3     3796     SWM4     H2       HDW      0.557330       1.00800           0   0.00000       0.00000    
     45189 TIP3     3797     SWM4     OH2      ODW       1.71640       15.5994           0 -0.978253       1.30000    
     45190 TIP3     3797     SWM4     DOH2     DOH2     -1.71640      0.400000           0   0.00000       0.00000    
     45191 TIP3     3797     SWM4     OM       LPDW     -1.11466       0.00000          -1   0.00000       0.00000    
     45192 TIP3     3797     SWM4     H1       HDW      0.557330       1.00800           0   0.00000       0.00000    
     45193 TIP3     3797     SWM4     H2       HDW      0.557330       1.00800           0   0.00000       0.00000    
     45194 TIP3     3798     SWM4     OH2      ODW       1.71640       15.5994           0 -0.978253       1.30000    
     45195 TIP3     3798     SWM4     DOH2     DOH2     -1.71640      0.400000           0   0.00000       0.00000    
     45196 TIP3     3798     SWM4     OM       LPDW     -1.11466       0.00000          -1   0.00000       0.00000    
     45197 TIP3     3798     SWM4     H1       HDW      0.557330       1.00800           0   0.00000       0.00000    
     45198 TIP3     3798     SWM4     H2       HDW      0.557330       1.00800           0   0.00000       0.00000    
     45199 TIP3     3799     SWM4     OH2      ODW       1.71640       15.5994           0 -0.978253       1.30000    
     45200 TIP3     3799     SWM4     DOH2     DOH2     -1.71640      0.400000           0   0.00000       0.00000    
     45201 TIP3     3799     SWM4     OM       LPDW     -1.11466       0.00000          -1   0.00000       0.00000    
     45202 TIP3     3799     SWM4     H1       HDW      0.557330       1.00800           0   0.00000       0.00000    
     45203 TIP3     3799     SWM4     H2       HDW      0.557330       1.00800           0   0.00000       0.00000    
     45204 TIP3     3800     SWM4     OH2      ODW       1.71640       15.5994           0 -0.978253       1.30000    
     45205 TIP3     3800     SWM4     DOH2     DOH2     -1.71640      0.400000           0   0.00000       0.00000    
     45206 TIP3     3800     SWM4     OM       LPDW     -1.11466       0.00000          -1   0.00000       0.00000    
     45207 TIP3     3800     SWM4     H1       HDW      0.557330       1.00800           0   0.00000       0.00000    
     45208 TIP3     3800     SWM4     H2       HDW      0.557330       1.00800           0   0.00000       0.00000    
     45209 TIP3     3801     SWM4     OH2      ODW       1.71640       15.5994           0 -0.978253       1.30000    
     45210 TIP3     3801     SWM4     DOH2     DOH2     -1.71640      0.400000           0   0.00000       0.00000    
     45211 TIP3     3801     SWM4     OM       LPDW     -1.11466       0.00000          -1   0.00000       0.00000    
     45212 TIP3     3801     SWM4     H1       HDW      0.557330       1.00800           0   0.00000       0.00000    
     45213 TIP3     3801     SWM4     H2       HDW      0.557330       1.00800           0   0.00000       0.00000    
     45214 TIP3     3802     SWM4     OH2      ODW       1.71640       15.5994           0 -0.978253       1.30000    
     45215 TIP3     3802     SWM4     DOH2     DOH2     -1.71640      0.400000           0   0.00000       0.00000    
     45216 TIP3     3802     SWM4     OM       LPDW     -1.11466       0.00000          -1   0.00000       0.00000    
     45217 TIP3     3802     SWM4     H1       HDW      0.557330       1.00800           0   0.00000       0.00000    
     45218 TIP3     3802     SWM4     H2       HDW      0.557330       1.00800           0   0.00000       0.00000    
     45219 TIP3     3803     SWM4     OH2      ODW       1.71640       15.5994           0 -0.978253       1.30000    
     45220 TIP3     3803     SWM4     DOH2     DOH2     -1.71640      0.400000           0   0.00000       0.00000    
     45221 TIP3     3803     SWM4     OM       LPDW     -1.11466       0.00000          -1   0.00000       0.00000    
     45222 TIP3     3803     SWM4     H1       HDW      0.557330       1.00800           0   0.00000       0.00000    
     45223 TIP3     3803     SWM4     H2       HDW      0.557330       1.00800           0   0.00000       0.00000    
     45224 TIP3     3804     SWM4     OH2      ODW       1.71640       15.5994           0 -0.978253       1.30000    
     45225 TIP3     3804     SWM4     DOH2     DOH2     -1.71640      0.400000           0   0.00000       0.00000    
     45226 TIP3     3804     SWM4     OM       LPDW     -1.11466       0.00000          -1   0.00000       0.00000    
     45227 TIP3     3804     SWM4     H1       HDW      0.557330       1.00800           0   0.00000       0.00000    
     45228 TIP3     3804     SWM4     H2       HDW      0.557330       1.00800           0   0.00000       0.00000    
     45229 TIP3     3805     SWM4     OH2      ODW       1.71640       15.5994           0 -0.978253       1.30000    
     45230 TIP3     3805     SWM4     DOH2     DOH2     -1.71640      0.400000           0   0.00000       0.00000    
     45231 TIP3     3805     SWM4     OM       LPDW     -1.11466       0.00000          -1   0.00000       0.00000    
     45232 TIP3     3805     SWM4     H1       HDW      0.557330       1.00800           0   0.00000       0.00000    
     45233 TIP3     3805     SWM4     H2       HDW      0.557330       1.00800           0   0.00000       0.00000    
     45234 TIP3     3806     SWM4     OH2      ODW       1.71640       15.5994           0 -0.978253       1.30000    
     45235 TIP3     3806     SWM4     DOH2     DOH2     -1.71640      0.400000           0   0.00000       0.00000    
     45236 TIP3     3806     SWM4     OM       LPDW     -1.11466       0.00000          -1   0.00000       0.00000    
     45237 TIP3     3806     SWM4     H1       HDW      0.557330       1.00800           0   0.00000       0.00000    
     45238 TIP3     3806     SWM4     H2       HDW      0.557330       1.00800           0   0.00000       0.00000    
     45239 TIP3     3807     SWM4     OH2      ODW       1.71640       15.5994           0 -0.978253       1.30000    
     45240 TIP3     3807     SWM4     DOH2     DOH2     -1.71640      0.400000           0   0.00000       0.00000    
     45241 TIP3     3807     SWM4     OM       LPDW     -1.11466       0.00000          -1   0.00000       0.00000    
     45242 TIP3     3807     SWM4     H1       HDW      0.557330       1.00800           0   0.00000       0.00000    
     45243 TIP3     3807     SWM4     H2       HDW      0.557330       1.00800           0   0.00000       0.00000    
     45244 TIP3     3808     SWM4     OH2      ODW       1.71640       15.5994           0 -0.978253       1.30000    
     45245 TIP3     3808     SWM4     DOH2     DOH2     -1.71640      0.400000           0   0.00000       0.00000    
     45246 TIP3     3808     SWM4     OM       LPDW     -1.11466       0.00000          -1   0.00000       0.00000    
     45247 TIP3     3808     SWM4     H1       HDW      0.557330       1.00800           0   0.00000       0.00000    
     45248 TIP3     3808     SWM4     H2       HDW      0.557330       1.00800           0   0.00000       0.00000    
     45249 TIP3     3809     SWM4     OH2      ODW       1.71640       15.5994           0 -0.978253       1.30000    
     45250 TIP3     3809     SWM4     DOH2     DOH2     -1.71640      0.400000           0   0.00000       0.00000    
     45251 TIP3     3809     SWM4     OM       LPDW     -1.11466       0.00000          -1   0.00000       0.00000    
     45252 TIP3     3809     SWM4     H1       HDW      0.557330       1.00800           0   0.00000       0.00000    
     45253 TIP3     3809     SWM4     H2       HDW      0.557330       1.00800           0   0.00000       0.00000    
     45254 TIP3     3810     SWM4     OH2      ODW       1.71640       15.5994           0 -0.978253       1.30000    
     45255 TIP3     3810     SWM4     DOH2     DOH2     -1.71640      0.400000           0   0.00000       0.00000    
     45256 TIP3     3810     SWM4     OM       LPDW     -1.11466       0.00000          -1   0.00000       0.00000    
     45257 TIP3     3810     SWM4     H1       HDW      0.557330       1.00800           0   0.00000       0.00000    
     45258 TIP3     3810     SWM4     H2       HDW      0.557330       1.00800           0   0.00000       0.00000    
     45259 TIP3     3811     SWM4     OH2      ODW       1.71640       15.5994           0 -0.978253       1.30000    
     45260 TIP3     3811     SWM4     DOH2     DOH2     -1.71640      0.400000           0   0.00000       0.00000    
     45261 TIP3     3811     SWM4     OM       LPDW     -1.11466       0.00000          -1   0.00000       0.00000    
     45262 TIP3     3811     SWM4     H1       HDW      0.557330       1.00800           0   0.00000       0.00000    
     45263 TIP3     3811     SWM4     H2       HDW      0.557330       1.00800           0   0.00000       0.00000    
     45264 TIP3     3812     SWM4     OH2      ODW       1.71640       15.5994           0 -0.978253       1.30000    
     45265 TIP3     3812     SWM4     DOH2     DOH2     -1.71640      0.400000           0   0.00000       0.00000    
     45266 TIP3     3812     SWM4     OM       LPDW     -1.11466       0.00000          -1   0.00000       0.00000    
     45267 TIP3     3812     SWM4     H1       HDW      0.557330       1.00800           0   0.00000       0.00000    
     45268 TIP3     3812     SWM4     H2       HDW      0.557330       1.00800           0   0.00000       0.00000    
     45269 TIP3     3813     SWM4     OH2      ODW       1.71640       15.5994           0 -0.978253       1.30000    
     45270 TIP3     3813     SWM4     DOH2     DOH2     -1.71640      0.400000           0   0.00000       0.00000    
     45271 TIP3     3813     SWM4     OM       LPDW     -1.11466       0.00000          -1   0.00000       0.00000    
     45272 TIP3     3813     SWM4     H1       HDW      0.557330       1.00800           0   0.00000       0.00000    
     45273 TIP3     3813     SWM4     H2       HDW      0.557330       1.00800           0   0.00000       0.00000    
     45274 TIP3     3814     SWM4     OH2      ODW       1.71640       15.5994           0 -0.978253       1.30000    
     45275 TIP3     3814     SWM4     DOH2     DOH2     -1.71640      0.400000           0   0.00000       0.00000    
     45276 TIP3     3814     SWM4     OM       LPDW     -1.11466       0.00000          -1   0.00000       0.00000    
     45277 TIP3     3814     SWM4     H1       HDW      0.557330       1.00800           0   0.00000       0.00000    
     45278 TIP3     3814     SWM4     H2       HDW      0.557330       1.00800           0   0.00000       0.00000    
     45279 TIP3     3815     SWM4     OH2      ODW       1.71640       15.5994           0 -0.978253       1.30000    
     45280 TIP3     3815     SWM4     DOH2     DOH2     -1.71640      0.400000           0   0.00000       0.00000    
     45281 TIP3     3815     SWM4     OM       LPDW     -1.11466       0.00000          -1   0.00000       0.00000    
     45282 TIP3     3815     SWM4     H1       HDW      0.557330       1.00800           0   0.00000       0.00000    
     45283 TIP3     3815     SWM4     H2       HDW      0.557330       1.00800           0   0.00000       0.00000    
     45284 TIP3     3816     SWM4     OH2      ODW       1.71640       15.5994           0 -0.978253       1.30000    
     45285 TIP3     3816     SWM4     DOH2     DOH2     -1.71640      0.400000           0   0.00000       0.00000    
     45286 TIP3     3816     SWM4     OM       LPDW     -1.11466       0.00000          -1   0.00000       0.00000    
     45287 TIP3     3816     SWM4     H1       HDW      0.557330       1.00800           0   0.00000       0.00000    
     45288 TIP3     3816     SWM4     H2       HDW      0.557330       1.00800           0   0.00000       0.00000    
     45289 TIP3     3817     SWM4     OH2      ODW       1.71640       15.5994           0 -0.978253       1.30000    
     45290 TIP3     3817     SWM4     DOH2     DOH2     -1.71640      0.400000           0   0.00000       0.00000    
     45291 TIP3     3817     SWM4     OM       LPDW     -1.11466       0.00000          -1   0.00000       0.00000    
     45292 TIP3     3817     SWM4     H1       HDW      0.557330       1.00800           0   0.00000       0.00000    
     45293 TIP3     3817     SWM4     H2       HDW      0.557330       1.00800           0   0.00000       0.00000    
     45294 TIP3     3818     SWM4     OH2      ODW       1.71640       15.5994           0 -0.978253       1.30000    
     45295 TIP3     3818     SWM4     DOH2     DOH2     -1.71640      0.400000           0   0.00000       0.00000    
     45296 TIP3     3818     SWM4     OM       LPDW     -1.11466       0.00000          -1   0.00000       0.00000    
     45297 TIP3     3818     SWM4     H1       HDW      0.557330       1.00800           0   0.00000       0.00000    
     45298 TIP3     3818     SWM4     H2       HDW      0.557330       1.00800           0   0.00000       0.00000    
     45299 TIP3     3819     SWM4     OH2      ODW       1.71640       15.5994           0 -0.978253       1.30000    
     45300 TIP3     3819     SWM4     DOH2     DOH2     -1.71640      0.400000           0   0.00000       0.00000    
     45301 TIP3     3819     SWM4     OM       LPDW     -1.11466       0.00000          -1   0.00000       0.00000    
     45302 TIP3     3819     SWM4     H1       HDW      0.557330       1.00800           0   0.00000       0.00000    
     45303 TIP3     3819     SWM4     H2       HDW      0.557330       1.00800           0   0.00000       0.00000    
     45304 TIP3     3820     SWM4     OH2      ODW       1.71640       15.5994           0 -0.978253       1.30000    
     45305 TIP3     3820     SWM4     DOH2     DOH2     -1.71640      0.400000           0   0.00000       0.00000    
     45306 TIP3     3820     SWM4     OM       LPDW     -1.11466       0.00000          -1   0.00000       0.00000    
     45307 TIP3     3820     SWM4     H1       HDW      0.557330       1.00800           0   0.00000       0.00000    
     45308 TIP3     3820     SWM4     H2       HDW      0.557330       1.00800           0   0.00000       0.00000    
     45309 TIP3     3821     SWM4     OH2      ODW       1.71640       15.5994           0 -0.978253       1.30000    
     45310 TIP3     3821     SWM4     DOH2     DOH2     -1.71640      0.400000           0   0.00000       0.00000    
     45311 TIP3     3821     SWM4     OM       LPDW     -1.11466       0.00000          -1   0.00000       0.00000    
     45312 TIP3     3821     SWM4     H1       HDW      0.557330       1.00800           0   0.00000       0.00000    
     45313 TIP3     3821     SWM4     H2       HDW      0.557330       1.00800           0   0.00000       0.00000    
     45314 TIP3     3822     SWM4     OH2      ODW       1.71640       15.5994           0 -0.978253       1.30000    
     45315 TIP3     3822     SWM4     DOH2     DOH2     -1.71640      0.400000           0   0.00000       0.00000    
     45316 TIP3     3822     SWM4     OM       LPDW     -1.11466       0.00000          -1   0.00000       0.00000    
     45317 TIP3     3822     SWM4     H1       HDW      0.557330       1.00800           0   0.00000       0.00000    
     45318 TIP3     3822     SWM4     H2       HDW      0.557330       1.00800           0   0.00000       0.00000    
     45319 TIP3     3823     SWM4     OH2      ODW       1.71640       15.5994           0 -0.978253       1.30000    
     45320 TIP3     3823     SWM4     DOH2     DOH2     -1.71640      0.400000           0   0.00000       0.00000    
     45321 TIP3     3823     SWM4     OM       LPDW     -1.11466       0.00000          -1   0.00000       0.00000    
     45322 TIP3     3823     SWM4     H1       HDW      0.557330       1.00800           0   0.00000       0.00000    
     45323 TIP3     3823     SWM4     H2       HDW      0.557330       1.00800           0   0.00000       0.00000    
     45324 TIP3     3824     SWM4     OH2      ODW       1.71640       15.5994           0 -0.978253       1.30000    
     45325 TIP3     3824     SWM4     DOH2     DOH2     -1.71640      0.400000           0   0.00000       0.00000    
     45326 TIP3     3824     SWM4     OM       LPDW     -1.11466       0.00000          -1   0.00000       0.00000    
     45327 TIP3     3824     SWM4     H1       HDW      0.557330       1.00800           0   0.00000       0.00000    
     45328 TIP3     3824     SWM4     H2       HDW      0.557330       1.00800           0   0.00000       0.00000    
     45329 TIP3     3825     SWM4     OH2      ODW       1.71640       15.5994           0 -0.978253       1.30000    
     45330 TIP3     3825     SWM4     DOH2     DOH2     -1.71640      0.400000           0   0.00000       0.00000    
     45331 TIP3     3825     SWM4     OM       LPDW     -1.11466       0.00000          -1   0.00000       0.00000    
     45332 TIP3     3825     SWM4     H1       HDW      0.557330       1.00800           0   0.00000       0.00000    
     45333 TIP3     3825     SWM4     H2       HDW      0.557330       1.00800           0   0.00000       0.00000    
     45334 TIP3     3826     SWM4     OH2      ODW       1.71640       15.5994           0 -0.978253       1.30000    
     45335 TIP3     3826     SWM4     DOH2     DOH2     -1.71640      0.400000           0   0.00000       0.00000    
     45336 TIP3     3826     SWM4     OM       LPDW     -1.11466       0.00000          -1   0.00000       0.00000    
     45337 TIP3     3826     SWM4     H1       HDW      0.557330       1.00800           0   0.00000       0.00000    
     45338 TIP3     3826     SWM4     H2       HDW      0.557330       1.00800           0   0.00000       0.00000    
     45339 TIP3     3827     SWM4     OH2      ODW       1.71640       15.5994           0 -0.978253       1.30000    
     45340 TIP3     3827     SWM4     DOH2     DOH2     -1.71640      0.400000           0   0.00000       0.00000    
     45341 TIP3     3827     SWM4     OM       LPDW     -1.11466       0.00000          -1   0.00000       0.00000    
     45342 TIP3     3827     SWM4     H1       HDW      0.557330       1.00800           0   0.00000       0.00000    
     45343 TIP3     3827     SWM4     H2       HDW      0.557330       1.00800           0   0.00000       0.00000    
     45344 TIP3     3828     SWM4     OH2      ODW       1.71640       15.5994           0 -0.978253       1.30000    
     45345 TIP3     3828     SWM4     DOH2     DOH2     -1.71640      0.400000           0   0.00000       0.00000    
     45346 TIP3     3828     SWM4     OM       LPDW     -1.11466       0.00000          -1   0.00000       0.00000    
     45347 TIP3     3828     SWM4     H1       HDW      0.557330       1.00800           0   0.00000       0.00000    
     45348 TIP3     3828     SWM4     H2       HDW      0.557330       1.00800           0   0.00000       0.00000    
     45349 TIP3     3829     SWM4     OH2      ODW       1.71640       15.5994           0 -0.978253       1.30000    
     45350 TIP3     3829     SWM4     DOH2     DOH2     -1.71640      0.400000           0   0.00000       0.00000    
     45351 TIP3     3829     SWM4     OM       LPDW     -1.11466       0.00000          -1   0.00000       0.00000    
     45352 TIP3     3829     SWM4     H1       HDW      0.557330       1.00800           0   0.00000       0.00000    
     45353 TIP3     3829     SWM4     H2       HDW      0.557330       1.00800           0   0.00000       0.00000    
     45354 TIP3     3830     SWM4     OH2      ODW       1.71640       15.5994           0 -0.978253       1.30000    
     45355 TIP3     3830     SWM4     DOH2     DOH2     -1.71640      0.400000           0   0.00000       0.00000    
     45356 TIP3     3830     SWM4     OM       LPDW     -1.11466       0.00000          -1   0.00000       0.00000    
     45357 TIP3     3830     SWM4     H1       HDW      0.557330       1.00800           0   0.00000       0.00000    
     45358 TIP3     3830     SWM4     H2       HDW      0.557330       1.00800           0   0.00000       0.00000    
     45359 TIP3     3831     SWM4     OH2      ODW       1.71640       15.5994           0 -0.978253       1.30000    
     45360 TIP3     3831     SWM4     DOH2     DOH2     -1.71640      0.400000           0   0.00000       0.00000    
     45361 TIP3     3831     SWM4     OM       LPDW     -1.11466       0.00000          -1   0.00000       0.00000    
     45362 TIP3     3831     SWM4     H1       HDW      0.557330       1.00800           0   0.00000       0.00000    
     45363 TIP3     3831     SWM4     H2       HDW      0.557330       1.00800           0   0.00000       0.00000    
     45364 TIP3     3832     SWM4     OH2      ODW       1.71640       15.5994           0 -0.978253       1.30000    
     45365 TIP3     3832     SWM4     DOH2     DOH2     -1.71640      0.400000           0   0.00000       0.00000    
     45366 TIP3     3832     SWM4     OM       LPDW     -1.11466       0.00000          -1   0.00000       0.00000    
     45367 TIP3     3832     SWM4     H1       HDW      0.557330       1.00800           0   0.00000       0.00000    
     45368 TIP3     3832     SWM4     H2       HDW      0.557330       1.00800           0   0.00000       0.00000    
     45369 TIP3     3833     SWM4     OH2      ODW       1.71640       15.5994           0 -0.978253       1.30000    
     45370 TIP3     3833     SWM4     DOH2     DOH2     -1.71640      0.400000           0   0.00000       0.00000    
     45371 TIP3     3833     SWM4     OM       LPDW     -1.11466       0.00000          -1   0.00000       0.00000    
     45372 TIP3     3833     SWM4     H1       HDW      0.557330       1.00800           0   0.00000       0.00000    
     45373 TIP3     3833     SWM4     H2       HDW      0.557330       1.00800           0   0.00000       0.00000    
     45374 TIP3     3834     SWM4     OH2      ODW       1.71640       15.5994           0 -0.978253       1.30000    
     45375 TIP3     3834     SWM4     DOH2     DOH2     -1.71640      0.400000           0   0.00000       0.00000    
     45376 TIP3     3834     SWM4     OM       LPDW     -1.11466       0.00000          -1   0.00000       0.00000    
     45377 TIP3     3834     SWM4     H1       HDW      0.557330       1.00800           0   0.00000       0.00000    
     45378 TIP3     3834     SWM4     H2       HDW      0.557330       1.00800           0   0.00000       0.00000    
     45379 TIP3     3835     SWM4     OH2      ODW       1.71640       15.5994           0 -0.978253       1.30000    
     45380 TIP3     3835     SWM4     DOH2     DOH2     -1.71640      0.400000           0   0.00000       0.00000    
     45381 TIP3     3835     SWM4     OM       LPDW     -1.11466       0.00000          -1   0.00000       0.00000    
     45382 TIP3     3835     SWM4     H1       HDW      0.557330       1.00800           0   0.00000       0.00000    
     45383 TIP3     3835     SWM4     H2       HDW      0.557330       1.00800           0   0.00000       0.00000    
     45384 TIP3     3836     SWM4     OH2      ODW       1.71640       15.5994           0 -0.978253       1.30000    
     45385 TIP3     3836     SWM4     DOH2     DOH2     -1.71640      0.400000           0   0.00000       0.00000    
     45386 TIP3     3836     SWM4     OM       LPDW     -1.11466       0.00000          -1   0.00000       0.00000    
     45387 TIP3     3836     SWM4     H1       HDW      0.557330       1.00800           0   0.00000       0.00000    
     45388 TIP3     3836     SWM4     H2       HDW      0.557330       1.00800           0   0.00000       0.00000    
     45389 TIP3     3837     SWM4     OH2      ODW       1.71640       15.5994           0 -0.978253       1.30000    
     45390 TIP3     3837     SWM4     DOH2     DOH2     -1.71640      0.400000           0   0.00000       0.00000    
     45391 TIP3     3837     SWM4     OM       LPDW     -1.11466       0.00000          -1   0.00000       0.00000    
     45392 TIP3     3837     SWM4     H1       HDW      0.557330       1.00800           0   0.00000       0.00000    
     45393 TIP3     3837     SWM4     H2       HDW      0.557330       1.00800           0   0.00000       0.00000    
     45394 TIP3     3838     SWM4     OH2      ODW       1.71640       15.5994           0 -0.978253       1.30000    
     45395 TIP3     3838     SWM4     DOH2     DOH2     -1.71640      0.400000           0   0.00000       0.00000    
     45396 TIP3     3838     SWM4     OM       LPDW     -1.11466       0.00000          -1   0.00000       0.00000    
     45397 TIP3     3838     SWM4     H1       HDW      0.557330       1.00800           0   0.00000       0.00000    
     45398 TIP3     3838     SWM4     H2       HDW      0.557330       1.00800           0   0.00000       0.00000    
     45399 TIP3     3839     SWM4     OH2      ODW       1.71640       15.5994           0 -0.978253       1.30000    
     45400 TIP3     3839     SWM4     DOH2     DOH2     -1.71640      0.400000           0   0.00000       0.00000    
     45401 TIP3     3839     SWM4     OM       LPDW     -1.11466       0.00000          -1   0.00000       0.00000    
     45402 TIP3     3839     SWM4     H1       HDW      0.557330       1.00800           0   0.00000       0.00000    
     45403 TIP3     3839     SWM4     H2       HDW      0.557330       1.00800           0   0.00000       0.00000    
     45404 TIP3     3840     SWM4     OH2      ODW       1.71640       15.5994           0 -0.978253       1.30000    
     45405 TIP3     3840     SWM4     DOH2     DOH2     -1.71640      0.400000           0   0.00000       0.00000    
     45406 TIP3     3840     SWM4     OM       LPDW     -1.11466       0.00000          -1   0.00000       0.00000    
     45407 TIP3     3840     SWM4     H1       HDW      0.557330       1.00800           0   0.00000       0.00000    
     45408 TIP3     3840     SWM4     H2       HDW      0.557330       1.00800           0   0.00000       0.00000    
     45409 TIP3     3841     SWM4     OH2      ODW       1.71640       15.5994           0 -0.978253       1.30000    
     45410 TIP3     3841     SWM4     DOH2     DOH2     -1.71640      0.400000           0   0.00000       0.00000    
     45411 TIP3     3841     SWM4     OM       LPDW     -1.11466       0.00000          -1   0.00000       0.00000    
     45412 TIP3     3841     SWM4     H1       HDW      0.557330       1.00800           0   0.00000       0.00000    
     45413 TIP3     3841     SWM4     H2       HDW      0.557330       1.00800           0   0.00000       0.00000    
     45414 TIP3     3842     SWM4     OH2      ODW       1.71640       15.5994           0 -0.978253       1.30000    
     45415 TIP3     3842     SWM4     DOH2     DOH2     -1.71640      0.400000           0   0.00000       0.00000    
     45416 TIP3     3842     SWM4     OM       LPDW     -1.11466       0.00000          -1   0.00000       0.00000    
     45417 TIP3     3842     SWM4     H1       HDW      0.557330       1.00800           0   0.00000       0.00000    
     45418 TIP3     3842     SWM4     H2       HDW      0.557330       1.00800           0   0.00000       0.00000    
     45419 TIP3     3843     SWM4     OH2      ODW       1.71640       15.5994           0 -0.978253       1.30000    
     45420 TIP3     3843     SWM4     DOH2     DOH2     -1.71640      0.400000           0   0.00000       0.00000    
     45421 TIP3     3843     SWM4     OM       LPDW     -1.11466       0.00000          -1   0.00000       0.00000    
     45422 TIP3     3843     SWM4     H1       HDW      0.557330       1.00800           0   0.00000       0.00000    
     45423 TIP3     3843     SWM4     H2       HDW      0.557330       1.00800           0   0.00000       0.00000    
     45424 TIP3     3844     SWM4     OH2      ODW       1.71640       15.5994           0 -0.978253       1.30000    
     45425 TIP3     3844     SWM4     DOH2     DOH2     -1.71640      0.400000           0   0.00000       0.00000    
     45426 TIP3     3844     SWM4     OM       LPDW     -1.11466       0.00000          -1   0.00000       0.00000    
     45427 TIP3     3844     SWM4     H1       HDW      0.557330       1.00800           0   0.00000       0.00000    
     45428 TIP3     3844     SWM4     H2       HDW      0.557330       1.00800           0   0.00000       0.00000    
     45429 TIP3     3845     SWM4     OH2      ODW       1.71640       15.5994           0 -0.978253       1.30000    
     45430 TIP3     3845     SWM4     DOH2     DOH2     -1.71640      0.400000           0   0.00000       0.00000    
     45431 TIP3     3845     SWM4     OM       LPDW     -1.11466       0.00000          -1   0.00000       0.00000    
     45432 TIP3     3845     SWM4     H1       HDW      0.557330       1.00800           0   0.00000       0.00000    
     45433 TIP3     3845     SWM4     H2       HDW      0.557330       1.00800           0   0.00000       0.00000    
     45434 TIP3     3846     SWM4     OH2      ODW       1.71640       15.5994           0 -0.978253       1.30000    
     45435 TIP3     3846     SWM4     DOH2     DOH2     -1.71640      0.400000           0   0.00000       0.00000    
     45436 TIP3     3846     SWM4     OM       LPDW     -1.11466       0.00000          -1   0.00000       0.00000    
     45437 TIP3     3846     SWM4     H1       HDW      0.557330       1.00800           0   0.00000       0.00000    
     45438 TIP3     3846     SWM4     H2       HDW      0.557330       1.00800           0   0.00000       0.00000    
     45439 TIP3     3847     SWM4     OH2      ODW       1.71640       15.5994           0 -0.978253       1.30000    
     45440 TIP3     3847     SWM4     DOH2     DOH2     -1.71640      0.400000           0   0.00000       0.00000    
     45441 TIP3     3847     SWM4     OM       LPDW     -1.11466       0.00000          -1   0.00000       0.00000    
     45442 TIP3     3847     SWM4     H1       HDW      0.557330       1.00800           0   0.00000       0.00000    
     45443 TIP3     3847     SWM4     H2       HDW      0.557330       1.00800           0   0.00000       0.00000    
     45444 TIP3     3848     SWM4     OH2      ODW       1.71640       15.5994           0 -0.978253       1.30000    
     45445 TIP3     3848     SWM4     DOH2     DOH2     -1.71640      0.400000           0   0.00000       0.00000    
     45446 TIP3     3848     SWM4     OM       LPDW     -1.11466       0.00000          -1   0.00000       0.00000    
     45447 TIP3     3848     SWM4     H1       HDW      0.557330       1.00800           0   0.00000       0.00000    
     45448 TIP3     3848     SWM4     H2       HDW      0.557330       1.00800           0   0.00000       0.00000    
     45449 TIP3     3849     SWM4     OH2      ODW       1.71640       15.5994           0 -0.978253       1.30000    
     45450 TIP3     3849     SWM4     DOH2     DOH2     -1.71640      0.400000           0   0.00000       0.00000    
     45451 TIP3     3849     SWM4     OM       LPDW     -1.11466       0.00000          -1   0.00000       0.00000    
     45452 TIP3     3849     SWM4     H1       HDW      0.557330       1.00800           0   0.00000       0.00000    
     45453 TIP3     3849     SWM4     H2       HDW      0.557330       1.00800           0   0.00000       0.00000    
     45454 TIP3     3850     SWM4     OH2      ODW       1.71640       15.5994           0 -0.978253       1.30000    
     45455 TIP3     3850     SWM4     DOH2     DOH2     -1.71640      0.400000           0   0.00000       0.00000    
     45456 TIP3     3850     SWM4     OM       LPDW     -1.11466       0.00000          -1   0.00000       0.00000    
     45457 TIP3     3850     SWM4     H1       HDW      0.557330       1.00800           0   0.00000       0.00000    
     45458 TIP3     3850     SWM4     H2       HDW      0.557330       1.00800           0   0.00000       0.00000    
     45459 TIP3     3851     SWM4     OH2      ODW       1.71640       15.5994           0 -0.978253       1.30000    
     45460 TIP3     3851     SWM4     DOH2     DOH2     -1.71640      0.400000           0   0.00000       0.00000    
     45461 TIP3     3851     SWM4     OM       LPDW     -1.11466       0.00000          -1   0.00000       0.00000    
     45462 TIP3     3851     SWM4     H1       HDW      0.557330       1.00800           0   0.00000       0.00000    
     45463 TIP3     3851     SWM4     H2       HDW      0.557330       1.00800           0   0.00000       0.00000    
     45464 TIP3     3852     SWM4     OH2      ODW       1.71640       15.5994           0 -0.978253       1.30000    
     45465 TIP3     3852     SWM4     DOH2     DOH2     -1.71640      0.400000           0   0.00000       0.00000    
     45466 TIP3     3852     SWM4     OM       LPDW     -1.11466       0.00000          -1   0.00000       0.00000    
     45467 TIP3     3852     SWM4     H1       HDW      0.557330       1.00800           0   0.00000       0.00000    
     45468 TIP3     3852     SWM4     H2       HDW      0.557330       1.00800           0   0.00000       0.00000    
     45469 TIP3     3853     SWM4     OH2      ODW       1.71640       15.5994           0 -0.978253       1.30000    
     45470 TIP3     3853     SWM4     DOH2     DOH2     -1.71640      0.400000           0   0.00000       0.00000    
     45471 TIP3     3853     SWM4     OM       LPDW     -1.11466       0.00000          -1   0.00000       0.00000    
     45472 TIP3     3853     SWM4     H1       HDW      0.557330       1.00800           0   0.00000       0.00000    
     45473 TIP3     3853     SWM4     H2       HDW      0.557330       1.00800           0   0.00000       0.00000    
     45474 TIP3     3854     SWM4     OH2      ODW       1.71640       15.5994           0 -0.978253       1.30000    
     45475 TIP3     3854     SWM4     DOH2     DOH2     -1.71640      0.400000           0   0.00000       0.00000    
     45476 TIP3     3854     SWM4     OM       LPDW     -1.11466       0.00000          -1   0.00000       0.00000    
     45477 TIP3     3854     SWM4     H1       HDW      0.557330       1.00800           0   0.00000       0.00000    
     45478 TIP3     3854     SWM4     H2       HDW      0.557330       1.00800           0   0.00000       0.00000    
     45479 TIP3     3855     SWM4     OH2      ODW       1.71640       15.5994           0 -0.978253       1.30000    
     45480 TIP3     3855     SWM4     DOH2     DOH2     -1.71640      0.400000           0   0.00000       0.00000    
     45481 TIP3     3855     SWM4     OM       LPDW     -1.11466       0.00000          -1   0.00000       0.00000    
     45482 TIP3     3855     SWM4     H1       HDW      0.557330       1.00800           0   0.00000       0.00000    
     45483 TIP3     3855     SWM4     H2       HDW      0.557330       1.00800           0   0.00000       0.00000    
     45484 TIP3     3856     SWM4     OH2      ODW       1.71640       15.5994           0 -0.978253       1.30000    
     45485 TIP3     3856     SWM4     DOH2     DOH2     -1.71640      0.400000           0   0.00000       0.00000    
     45486 TIP3     3856     SWM4     OM       LPDW     -1.11466       0.00000          -1   0.00000       0.00000    
     45487 TIP3     3856     SWM4     H1       HDW      0.557330       1.00800           0   0.00000       0.00000    
     45488 TIP3     3856     SWM4     H2       HDW      0.557330       1.00800           0   0.00000       0.00000    
     45489 TIP3     3857     SWM4     OH2      ODW       1.71640       15.5994           0 -0.978253       1.30000    
     45490 TIP3     3857     SWM4     DOH2     DOH2     -1.71640      0.400000           0   0.00000       0.00000    
     45491 TIP3     3857     SWM4     OM       LPDW     -1.11466       0.00000          -1   0.00000       0.00000    
     45492 TIP3     3857     SWM4     H1       HDW      0.557330       1.00800           0   0.00000       0.00000    
     45493 TIP3     3857     SWM4     H2       HDW      0.557330       1.00800           0   0.00000       0.00000    
     45494 TIP3     3858     SWM4     OH2      ODW       1.71640       15.5994           0 -0.978253       1.30000    
     45495 TIP3     3858     SWM4     DOH2     DOH2     -1.71640      0.400000           0   0.00000       0.00000    
     45496 TIP3     3858     SWM4     OM       LPDW     -1.11466       0.00000          -1   0.00000       0.00000    
     45497 TIP3     3858     SWM4     H1       HDW      0.557330       1.00800           0   0.00000       0.00000    
     45498 TIP3     3858     SWM4     H2       HDW      0.557330       1.00800           0   0.00000       0.00000    
     45499 TIP3     3859     SWM4     OH2      ODW       1.71640       15.5994           0 -0.978253       1.30000    
     45500 TIP3     3859     SWM4     DOH2     DOH2     -1.71640      0.400000           0   0.00000       0.00000    
     45501 TIP3     3859     SWM4     OM       LPDW     -1.11466       0.00000          -1   0.00000       0.00000    
     45502 TIP3     3859     SWM4     H1       HDW      0.557330       1.00800           0   0.00000       0.00000    
     45503 TIP3     3859     SWM4     H2       HDW      0.557330       1.00800           0   0.00000       0.00000    
     45504 TIP3     3860     SWM4     OH2      ODW       1.71640       15.5994           0 -0.978253       1.30000    
     45505 TIP3     3860     SWM4     DOH2     DOH2     -1.71640      0.400000           0   0.00000       0.00000    
     45506 TIP3     3860     SWM4     OM       LPDW     -1.11466       0.00000          -1   0.00000       0.00000    
     45507 TIP3     3860     SWM4     H1       HDW      0.557330       1.00800           0   0.00000       0.00000    
     45508 TIP3     3860     SWM4     H2       HDW      0.557330       1.00800           0   0.00000       0.00000    
     45509 TIP3     3861     SWM4     OH2      ODW       1.71640       15.5994           0 -0.978253       1.30000    
     45510 TIP3     3861     SWM4     DOH2     DOH2     -1.71640      0.400000           0   0.00000       0.00000    
     45511 TIP3     3861     SWM4     OM       LPDW     -1.11466       0.00000          -1   0.00000       0.00000    
     45512 TIP3     3861     SWM4     H1       HDW      0.557330       1.00800           0   0.00000       0.00000    
     45513 TIP3     3861     SWM4     H2       HDW      0.557330       1.00800           0   0.00000       0.00000    
     45514 TIP3     3862     SWM4     OH2      ODW       1.71640       15.5994           0 -0.978253       1.30000    
     45515 TIP3     3862     SWM4     DOH2     DOH2     -1.71640      0.400000           0   0.00000       0.00000    
     45516 TIP3     3862     SWM4     OM       LPDW     -1.11466       0.00000          -1   0.00000       0.00000    
     45517 TIP3     3862     SWM4     H1       HDW      0.557330       1.00800           0   0.00000       0.00000    
     45518 TIP3     3862     SWM4     H2       HDW      0.557330       1.00800           0   0.00000       0.00000    
     45519 TIP3     3863     SWM4     OH2      ODW       1.71640       15.5994           0 -0.978253       1.30000    
     45520 TIP3     3863     SWM4     DOH2     DOH2     -1.71640      0.400000           0   0.00000       0.00000    
     45521 TIP3     3863     SWM4     OM       LPDW     -1.11466       0.00000          -1   0.00000       0.00000    
     45522 TIP3     3863     SWM4     H1       HDW      0.557330       1.00800           0   0.00000       0.00000    
     45523 TIP3     3863     SWM4     H2       HDW      0.557330       1.00800           0   0.00000       0.00000    
     45524 TIP3     3864     SWM4     OH2      ODW       1.71640       15.5994           0 -0.978253       1.30000    
     45525 TIP3     3864     SWM4     DOH2     DOH2     -1.71640      0.400000           0   0.00000       0.00000    
     45526 TIP3     3864     SWM4     OM       LPDW     -1.11466       0.00000          -1   0.00000       0.00000    
     45527 TIP3     3864     SWM4     H1       HDW      0.557330       1.00800           0   0.00000       0.00000    
     45528 TIP3     3864     SWM4     H2       HDW      0.557330       1.00800           0   0.00000       0.00000    
     45529 TIP3     3865     SWM4     OH2      ODW       1.71640       15.5994           0 -0.978253       1.30000    
     45530 TIP3     3865     SWM4     DOH2     DOH2     -1.71640      0.400000           0   0.00000       0.00000    
     45531 TIP3     3865     SWM4     OM       LPDW     -1.11466       0.00000          -1   0.00000       0.00000    
     45532 TIP3     3865     SWM4     H1       HDW      0.557330       1.00800           0   0.00000       0.00000    
     45533 TIP3     3865     SWM4     H2       HDW      0.557330       1.00800           0   0.00000       0.00000    
     45534 TIP3     3866     SWM4     OH2      ODW       1.71640       15.5994           0 -0.978253       1.30000    
     45535 TIP3     3866     SWM4     DOH2     DOH2     -1.71640      0.400000           0   0.00000       0.00000    
     45536 TIP3     3866     SWM4     OM       LPDW     -1.11466       0.00000          -1   0.00000       0.00000    
     45537 TIP3     3866     SWM4     H1       HDW      0.557330       1.00800           0   0.00000       0.00000    
     45538 TIP3     3866     SWM4     H2       HDW      0.557330       1.00800           0   0.00000       0.00000    
     45539 TIP3     3867     SWM4     OH2      ODW       1.71640       15.5994           0 -0.978253       1.30000    
     45540 TIP3     3867     SWM4     DOH2     DOH2     -1.71640      0.400000           0   0.00000       0.00000    
     45541 TIP3     3867     SWM4     OM       LPDW     -1.11466       0.00000          -1   0.00000       0.00000    
     45542 TIP3     3867     SWM4     H1       HDW      0.557330       1.00800           0   0.00000       0.00000    
     45543 TIP3     3867     SWM4     H2       HDW      0.557330       1.00800           0   0.00000       0.00000    
     45544 TIP3     3868     SWM4     OH2      ODW       1.71640       15.5994           0 -0.978253       1.30000    
     45545 TIP3     3868     SWM4     DOH2     DOH2     -1.71640      0.400000           0   0.00000       0.00000    
     45546 TIP3     3868     SWM4     OM       LPDW     -1.11466       0.00000          -1   0.00000       0.00000    
     45547 TIP3     3868     SWM4     H1       HDW      0.557330       1.00800           0   0.00000       0.00000    
     45548 TIP3     3868     SWM4     H2       HDW      0.557330       1.00800           0   0.00000       0.00000    
     45549 TIP3     3869     SWM4     OH2      ODW       1.71640       15.5994           0 -0.978253       1.30000    
     45550 TIP3     3869     SWM4     DOH2     DOH2     -1.71640      0.400000           0   0.00000       0.00000    
     45551 TIP3     3869     SWM4     OM       LPDW     -1.11466       0.00000          -1   0.00000       0.00000    
     45552 TIP3     3869     SWM4     H1       HDW      0.557330       1.00800           0   0.00000       0.00000    
     45553 TIP3     3869     SWM4     H2       HDW      0.557330       1.00800           0   0.00000       0.00000    
     45554 TIP3     3870     SWM4     OH2      ODW       1.71640       15.5994           0 -0.978253       1.30000    
     45555 TIP3     3870     SWM4     DOH2     DOH2     -1.71640      0.400000           0   0.00000       0.00000    
     45556 TIP3     3870     SWM4     OM       LPDW     -1.11466       0.00000          -1   0.00000       0.00000    
     45557 TIP3     3870     SWM4     H1       HDW      0.557330       1.00800           0   0.00000       0.00000    
     45558 TIP3     3870     SWM4     H2       HDW      0.557330       1.00800           0   0.00000       0.00000    
     45559 TIP3     3871     SWM4     OH2      ODW       1.71640       15.5994           0 -0.978253       1.30000    
     45560 TIP3     3871     SWM4     DOH2     DOH2     -1.71640      0.400000           0   0.00000       0.00000    
     45561 TIP3     3871     SWM4     OM       LPDW     -1.11466       0.00000          -1   0.00000       0.00000    
     45562 TIP3     3871     SWM4     H1       HDW      0.557330       1.00800           0   0.00000       0.00000    
     45563 TIP3     3871     SWM4     H2       HDW      0.557330       1.00800           0   0.00000       0.00000    
     45564 TIP3     3872     SWM4     OH2      ODW       1.71640       15.5994           0 -0.978253       1.30000    
     45565 TIP3     3872     SWM4     DOH2     DOH2     -1.71640      0.400000           0   0.00000       0.00000    
     45566 TIP3     3872     SWM4     OM       LPDW     -1.11466       0.00000          -1   0.00000       0.00000    
     45567 TIP3     3872     SWM4     H1       HDW      0.557330       1.00800           0   0.00000       0.00000    
     45568 TIP3     3872     SWM4     H2       HDW      0.557330       1.00800           0   0.00000       0.00000    
     45569 TIP3     3873     SWM4     OH2      ODW       1.71640       15.5994           0 -0.978253       1.30000    
     45570 TIP3     3873     SWM4     DOH2     DOH2     -1.71640      0.400000           0   0.00000       0.00000    
     45571 TIP3     3873     SWM4     OM       LPDW     -1.11466       0.00000          -1   0.00000       0.00000    
     45572 TIP3     3873     SWM4     H1       HDW      0.557330       1.00800           0   0.00000       0.00000    
     45573 TIP3     3873     SWM4     H2       HDW      0.557330       1.00800           0   0.00000       0.00000    
     45574 TIP3     3874     SWM4     OH2      ODW       1.71640       15.5994           0 -0.978253       1.30000    
     45575 TIP3     3874     SWM4     DOH2     DOH2     -1.71640      0.400000           0   0.00000       0.00000    
     45576 TIP3     3874     SWM4     OM       LPDW     -1.11466       0.00000          -1   0.00000       0.00000    
     45577 TIP3     3874     SWM4     H1       HDW      0.557330       1.00800           0   0.00000       0.00000    
     45578 TIP3     3874     SWM4     H2       HDW      0.557330       1.00800           0   0.00000       0.00000    
     45579 TIP3     3875     SWM4     OH2      ODW       1.71640       15.5994           0 -0.978253       1.30000    
     45580 TIP3     3875     SWM4     DOH2     DOH2     -1.71640      0.400000           0   0.00000       0.00000    
     45581 TIP3     3875     SWM4     OM       LPDW     -1.11466       0.00000          -1   0.00000       0.00000    
     45582 TIP3     3875     SWM4     H1       HDW      0.557330       1.00800           0   0.00000       0.00000    
     45583 TIP3     3875     SWM4     H2       HDW      0.557330       1.00800           0   0.00000       0.00000    
     45584 TIP3     3876     SWM4     OH2      ODW       1.71640       15.5994           0 -0.978253       1.30000    
     45585 TIP3     3876     SWM4     DOH2     DOH2     -1.71640      0.400000           0   0.00000       0.00000    
     45586 TIP3     3876     SWM4     OM       LPDW     -1.11466       0.00000          -1   0.00000       0.00000    
     45587 TIP3     3876     SWM4     H1       HDW      0.557330       1.00800           0   0.00000       0.00000    
     45588 TIP3     3876     SWM4     H2       HDW      0.557330       1.00800           0   0.00000       0.00000    
     45589 TIP3     3877     SWM4     OH2      ODW       1.71640       15.5994           0 -0.978253       1.30000    
     45590 TIP3     3877     SWM4     DOH2     DOH2     -1.71640      0.400000           0   0.00000       0.00000    
     45591 TIP3     3877     SWM4     OM       LPDW     -1.11466       0.00000          -1   0.00000       0.00000    
     45592 TIP3     3877     SWM4     H1       HDW      0.557330       1.00800           0   0.00000       0.00000    
     45593 TIP3     3877     SWM4     H2       HDW      0.557330       1.00800           0   0.00000       0.00000    
     45594 TIP3     3878     SWM4     OH2      ODW       1.71640       15.5994           0 -0.978253       1.30000    
     45595 TIP3     3878     SWM4     DOH2     DOH2     -1.71640      0.400000           0   0.00000       0.00000    
     45596 TIP3     3878     SWM4     OM       LPDW     -1.11466       0.00000          -1   0.00000       0.00000    
     45597 TIP3     3878     SWM4     H1       HDW      0.557330       1.00800           0   0.00000       0.00000    
     45598 TIP3     3878     SWM4     H2       HDW      0.557330       1.00800           0   0.00000       0.00000    
     45599 TIP3     3879     SWM4     OH2      ODW       1.71640       15.5994           0 -0.978253       1.30000    
     45600 TIP3     3879     SWM4     DOH2     DOH2     -1.71640      0.400000           0   0.00000       0.00000    
     45601 TIP3     3879     SWM4     OM       LPDW     -1.11466       0.00000          -1   0.00000       0.00000    
     45602 TIP3     3879     SWM4     H1       HDW      0.557330       1.00800           0   0.00000       0.00000    
     45603 TIP3     3879     SWM4     H2       HDW      0.557330       1.00800           0   0.00000       0.00000    
     45604 TIP3     3880     SWM4     OH2      ODW       1.71640       15.5994           0 -0.978253       1.30000    
     45605 TIP3     3880     SWM4     DOH2     DOH2     -1.71640      0.400000           0   0.00000       0.00000    
     45606 TIP3     3880     SWM4     OM       LPDW     -1.11466       0.00000          -1   0.00000       0.00000    
     45607 TIP3     3880     SWM4     H1       HDW      0.557330       1.00800           0   0.00000       0.00000    
     45608 TIP3     3880     SWM4     H2       HDW      0.557330       1.00800           0   0.00000       0.00000    
     45609 TIP3     3881     SWM4     OH2      ODW       1.71640       15.5994           0 -0.978253       1.30000    
     45610 TIP3     3881     SWM4     DOH2     DOH2     -1.71640      0.400000           0   0.00000       0.00000    
     45611 TIP3     3881     SWM4     OM       LPDW     -1.11466       0.00000          -1   0.00000       0.00000    
     45612 TIP3     3881     SWM4     H1       HDW      0.557330       1.00800           0   0.00000       0.00000    
     45613 TIP3     3881     SWM4     H2       HDW      0.557330       1.00800           0   0.00000       0.00000    
     45614 TIP3     3882     SWM4     OH2      ODW       1.71640       15.5994           0 -0.978253       1.30000    
     45615 TIP3     3882     SWM4     DOH2     DOH2     -1.71640      0.400000           0   0.00000       0.00000    
     45616 TIP3     3882     SWM4     OM       LPDW     -1.11466       0.00000          -1   0.00000       0.00000    
     45617 TIP3     3882     SWM4     H1       HDW      0.557330       1.00800           0   0.00000       0.00000    
     45618 TIP3     3882     SWM4     H2       HDW      0.557330       1.00800           0   0.00000       0.00000    
     45619 TIP3     3883     SWM4     OH2      ODW       1.71640       15.5994           0 -0.978253       1.30000    
     45620 TIP3     3883     SWM4     DOH2     DOH2     -1.71640      0.400000           0   0.00000       0.00000    
     45621 TIP3     3883     SWM4     OM       LPDW     -1.11466       0.00000          -1   0.00000       0.00000    
     45622 TIP3     3883     SWM4     H1       HDW      0.557330       1.00800           0   0.00000       0.00000    
     45623 TIP3     3883     SWM4     H2       HDW      0.557330       1.00800           0   0.00000       0.00000    
     45624 TIP3     3884     SWM4     OH2      ODW       1.71640       15.5994           0 -0.978253       1.30000    
     45625 TIP3     3884     SWM4     DOH2     DOH2     -1.71640      0.400000           0   0.00000       0.00000    
     45626 TIP3     3884     SWM4     OM       LPDW     -1.11466       0.00000          -1   0.00000       0.00000    
     45627 TIP3     3884     SWM4     H1       HDW      0.557330       1.00800           0   0.00000       0.00000    
     45628 TIP3     3884     SWM4     H2       HDW      0.557330       1.00800           0   0.00000       0.00000    
     45629 TIP3     3885     SWM4     OH2      ODW       1.71640       15.5994           0 -0.978253       1.30000    
     45630 TIP3     3885     SWM4     DOH2     DOH2     -1.71640      0.400000           0   0.00000       0.00000    
     45631 TIP3     3885     SWM4     OM       LPDW     -1.11466       0.00000          -1   0.00000       0.00000    
     45632 TIP3     3885     SWM4     H1       HDW      0.557330       1.00800           0   0.00000       0.00000    
     45633 TIP3     3885     SWM4     H2       HDW      0.557330       1.00800           0   0.00000       0.00000    
     45634 TIP3     3886     SWM4     OH2      ODW       1.71640       15.5994           0 -0.978253       1.30000    
     45635 TIP3     3886     SWM4     DOH2     DOH2     -1.71640      0.400000           0   0.00000       0.00000    
     45636 TIP3     3886     SWM4     OM       LPDW     -1.11466       0.00000          -1   0.00000       0.00000    
     45637 TIP3     3886     SWM4     H1       HDW      0.557330       1.00800           0   0.00000       0.00000    
     45638 TIP3     3886     SWM4     H2       HDW      0.557330       1.00800           0   0.00000       0.00000    
     45639 TIP3     3887     SWM4     OH2      ODW       1.71640       15.5994           0 -0.978253       1.30000    
     45640 TIP3     3887     SWM4     DOH2     DOH2     -1.71640      0.400000           0   0.00000       0.00000    
     45641 TIP3     3887     SWM4     OM       LPDW     -1.11466       0.00000          -1   0.00000       0.00000    
     45642 TIP3     3887     SWM4     H1       HDW      0.557330       1.00800           0   0.00000       0.00000    
     45643 TIP3     3887     SWM4     H2       HDW      0.557330       1.00800           0   0.00000       0.00000    
     45644 TIP3     3888     SWM4     OH2      ODW       1.71640       15.5994           0 -0.978253       1.30000    
     45645 TIP3     3888     SWM4     DOH2     DOH2     -1.71640      0.400000           0   0.00000       0.00000    
     45646 TIP3     3888     SWM4     OM       LPDW     -1.11466       0.00000          -1   0.00000       0.00000    
     45647 TIP3     3888     SWM4     H1       HDW      0.557330       1.00800           0   0.00000       0.00000    
     45648 TIP3     3888     SWM4     H2       HDW      0.557330       1.00800           0   0.00000       0.00000    
     45649 TIP3     3889     SWM4     OH2      ODW       1.71640       15.5994           0 -0.978253       1.30000    
     45650 TIP3     3889     SWM4     DOH2     DOH2     -1.71640      0.400000           0   0.00000       0.00000    
     45651 TIP3     3889     SWM4     OM       LPDW     -1.11466       0.00000          -1   0.00000       0.00000    
     45652 TIP3     3889     SWM4     H1       HDW      0.557330       1.00800           0   0.00000       0.00000    
     45653 TIP3     3889     SWM4     H2       HDW      0.557330       1.00800           0   0.00000       0.00000    
     45654 TIP3     3890     SWM4     OH2      ODW       1.71640       15.5994           0 -0.978253       1.30000    
     45655 TIP3     3890     SWM4     DOH2     DOH2     -1.71640      0.400000           0   0.00000       0.00000    
     45656 TIP3     3890     SWM4     OM       LPDW     -1.11466       0.00000          -1   0.00000       0.00000    
     45657 TIP3     3890     SWM4     H1       HDW      0.557330       1.00800           0   0.00000       0.00000    
     45658 TIP3     3890     SWM4     H2       HDW      0.557330       1.00800           0   0.00000       0.00000    
     45659 TIP3     3891     SWM4     OH2      ODW       1.71640       15.5994           0 -0.978253       1.30000    
     45660 TIP3     3891     SWM4     DOH2     DOH2     -1.71640      0.400000           0   0.00000       0.00000    
     45661 TIP3     3891     SWM4     OM       LPDW     -1.11466       0.00000          -1   0.00000       0.00000    
     45662 TIP3     3891     SWM4     H1       HDW      0.557330       1.00800           0   0.00000       0.00000    
     45663 TIP3     3891     SWM4     H2       HDW      0.557330       1.00800           0   0.00000       0.00000    
     45664 TIP3     3892     SWM4     OH2      ODW       1.71640       15.5994           0 -0.978253       1.30000    
     45665 TIP3     3892     SWM4     DOH2     DOH2     -1.71640      0.400000           0   0.00000       0.00000    
     45666 TIP3     3892     SWM4     OM       LPDW     -1.11466       0.00000          -1   0.00000       0.00000    
     45667 TIP3     3892     SWM4     H1       HDW      0.557330       1.00800           0   0.00000       0.00000    
     45668 TIP3     3892     SWM4     H2       HDW      0.557330       1.00800           0   0.00000       0.00000    
     45669 TIP3     3893     SWM4     OH2      ODW       1.71640       15.5994           0 -0.978253       1.30000    
     45670 TIP3     3893     SWM4     DOH2     DOH2     -1.71640      0.400000           0   0.00000       0.00000    
     45671 TIP3     3893     SWM4     OM       LPDW     -1.11466       0.00000          -1   0.00000       0.00000    
     45672 TIP3     3893     SWM4     H1       HDW      0.557330       1.00800           0   0.00000       0.00000    
     45673 TIP3     3893     SWM4     H2       HDW      0.557330       1.00800           0   0.00000       0.00000    
     45674 TIP3     3894     SWM4     OH2      ODW       1.71640       15.5994           0 -0.978253       1.30000    
     45675 TIP3     3894     SWM4     DOH2     DOH2     -1.71640      0.400000           0   0.00000       0.00000    
     45676 TIP3     3894     SWM4     OM       LPDW     -1.11466       0.00000          -1   0.00000       0.00000    
     45677 TIP3     3894     SWM4     H1       HDW      0.557330       1.00800           0   0.00000       0.00000    
     45678 TIP3     3894     SWM4     H2       HDW      0.557330       1.00800           0   0.00000       0.00000    
     45679 TIP3     3895     SWM4     OH2      ODW       1.71640       15.5994           0 -0.978253       1.30000    
     45680 TIP3     3895     SWM4     DOH2     DOH2     -1.71640      0.400000           0   0.00000       0.00000    
     45681 TIP3     3895     SWM4     OM       LPDW     -1.11466       0.00000          -1   0.00000       0.00000    
     45682 TIP3     3895     SWM4     H1       HDW      0.557330       1.00800           0   0.00000       0.00000    
     45683 TIP3     3895     SWM4     H2       HDW      0.557330       1.00800           0   0.00000       0.00000    
     45684 TIP3     3896     SWM4     OH2      ODW       1.71640       15.5994           0 -0.978253       1.30000    
     45685 TIP3     3896     SWM4     DOH2     DOH2     -1.71640      0.400000           0   0.00000       0.00000    
     45686 TIP3     3896     SWM4     OM       LPDW     -1.11466       0.00000          -1   0.00000       0.00000    
     45687 TIP3     3896     SWM4     H1       HDW      0.557330       1.00800           0   0.00000       0.00000    
     45688 TIP3     3896     SWM4     H2       HDW      0.557330       1.00800           0   0.00000       0.00000    
     45689 TIP3     3897     SWM4     OH2      ODW       1.71640       15.5994           0 -0.978253       1.30000    
     45690 TIP3     3897     SWM4     DOH2     DOH2     -1.71640      0.400000           0   0.00000       0.00000    
     45691 TIP3     3897     SWM4     OM       LPDW     -1.11466       0.00000          -1   0.00000       0.00000    
     45692 TIP3     3897     SWM4     H1       HDW      0.557330       1.00800           0   0.00000       0.00000    
     45693 TIP3     3897     SWM4     H2       HDW      0.557330       1.00800           0   0.00000       0.00000    
     45694 TIP3     3898     SWM4     OH2      ODW       1.71640       15.5994           0 -0.978253       1.30000    
     45695 TIP3     3898     SWM4     DOH2     DOH2     -1.71640      0.400000           0   0.00000       0.00000    
     45696 TIP3     3898     SWM4     OM       LPDW     -1.11466       0.00000          -1   0.00000       0.00000    
     45697 TIP3     3898     SWM4     H1       HDW      0.557330       1.00800           0   0.00000       0.00000    
     45698 TIP3     3898     SWM4     H2       HDW      0.557330       1.00800           0   0.00000       0.00000    
     45699 TIP3     3899     SWM4     OH2      ODW       1.71640       15.5994           0 -0.978253       1.30000    
     45700 TIP3     3899     SWM4     DOH2     DOH2     -1.71640      0.400000           0   0.00000       0.00000    
     45701 TIP3     3899     SWM4     OM       LPDW     -1.11466       0.00000          -1   0.00000       0.00000    
     45702 TIP3     3899     SWM4     H1       HDW      0.557330       1.00800           0   0.00000       0.00000    
     45703 TIP3     3899     SWM4     H2       HDW      0.557330       1.00800           0   0.00000       0.00000    
     45704 TIP3     3900     SWM4     OH2      ODW       1.71640       15.5994           0 -0.978253       1.30000    
     45705 TIP3     3900     SWM4     DOH2     DOH2     -1.71640      0.400000           0   0.00000       0.00000    
     45706 TIP3     3900     SWM4     OM       LPDW     -1.11466       0.00000          -1   0.00000       0.00000    
     45707 TIP3     3900     SWM4     H1       HDW      0.557330       1.00800           0   0.00000       0.00000    
     45708 TIP3     3900     SWM4     H2       HDW      0.557330       1.00800           0   0.00000       0.00000    
     45709 TIP3     3901     SWM4     OH2      ODW       1.71640       15.5994           0 -0.978253       1.30000    
     45710 TIP3     3901     SWM4     DOH2     DOH2     -1.71640      0.400000           0   0.00000       0.00000    
     45711 TIP3     3901     SWM4     OM       LPDW     -1.11466       0.00000          -1   0.00000       0.00000    
     45712 TIP3     3901     SWM4     H1       HDW      0.557330       1.00800           0   0.00000       0.00000    
     45713 TIP3     3901     SWM4     H2       HDW      0.557330       1.00800           0   0.00000       0.00000    
     45714 TIP3     3902     SWM4     OH2      ODW       1.71640       15.5994           0 -0.978253       1.30000    
     45715 TIP3     3902     SWM4     DOH2     DOH2     -1.71640      0.400000           0   0.00000       0.00000    
     45716 TIP3     3902     SWM4     OM       LPDW     -1.11466       0.00000          -1   0.00000       0.00000    
     45717 TIP3     3902     SWM4     H1       HDW      0.557330       1.00800           0   0.00000       0.00000    
     45718 TIP3     3902     SWM4     H2       HDW      0.557330       1.00800           0   0.00000       0.00000    
     45719 TIP3     3903     SWM4     OH2      ODW       1.71640       15.5994           0 -0.978253       1.30000    
     45720 TIP3     3903     SWM4     DOH2     DOH2     -1.71640      0.400000           0   0.00000       0.00000    
     45721 TIP3     3903     SWM4     OM       LPDW     -1.11466       0.00000          -1   0.00000       0.00000    
     45722 TIP3     3903     SWM4     H1       HDW      0.557330       1.00800           0   0.00000       0.00000    
     45723 TIP3     3903     SWM4     H2       HDW      0.557330       1.00800           0   0.00000       0.00000    
     45724 TIP3     3904     SWM4     OH2      ODW       1.71640       15.5994           0 -0.978253       1.30000    
     45725 TIP3     3904     SWM4     DOH2     DOH2     -1.71640      0.400000           0   0.00000       0.00000    
     45726 TIP3     3904     SWM4     OM       LPDW     -1.11466       0.00000          -1   0.00000       0.00000    
     45727 TIP3     3904     SWM4     H1       HDW      0.557330       1.00800           0   0.00000       0.00000    
     45728 TIP3     3904     SWM4     H2       HDW      0.557330       1.00800           0   0.00000       0.00000    
     45729 TIP3     3905     SWM4     OH2      ODW       1.71640       15.5994           0 -0.978253       1.30000    
     45730 TIP3     3905     SWM4     DOH2     DOH2     -1.71640      0.400000           0   0.00000       0.00000    
     45731 TIP3     3905     SWM4     OM       LPDW     -1.11466       0.00000          -1   0.00000       0.00000    
     45732 TIP3     3905     SWM4     H1       HDW      0.557330       1.00800           0   0.00000       0.00000    
     45733 TIP3     3905     SWM4     H2       HDW      0.557330       1.00800           0   0.00000       0.00000    
     45734 TIP3     3906     SWM4     OH2      ODW       1.71640       15.5994           0 -0.978253       1.30000    
     45735 TIP3     3906     SWM4     DOH2     DOH2     -1.71640      0.400000           0   0.00000       0.00000    
     45736 TIP3     3906     SWM4     OM       LPDW     -1.11466       0.00000          -1   0.00000       0.00000    
     45737 TIP3     3906     SWM4     H1       HDW      0.557330       1.00800           0   0.00000       0.00000    
     45738 TIP3     3906     SWM4     H2       HDW      0.557330       1.00800           0   0.00000       0.00000    
     45739 TIP3     3907     SWM4     OH2      ODW       1.71640       15.5994           0 -0.978253       1.30000    
     45740 TIP3     3907     SWM4     DOH2     DOH2     -1.71640      0.400000           0   0.00000       0.00000    
     45741 TIP3     3907     SWM4     OM       LPDW     -1.11466       0.00000          -1   0.00000       0.00000    
     45742 TIP3     3907     SWM4     H1       HDW      0.557330       1.00800           0   0.00000       0.00000    
     45743 TIP3     3907     SWM4     H2       HDW      0.557330       1.00800           0   0.00000       0.00000    
     45744 TIP3     3908     SWM4     OH2      ODW       1.71640       15.5994           0 -0.978253       1.30000    
     45745 TIP3     3908     SWM4     DOH2     DOH2     -1.71640      0.400000           0   0.00000       0.00000    
     45746 TIP3     3908     SWM4     OM       LPDW     -1.11466       0.00000          -1   0.00000       0.00000    
     45747 TIP3     3908     SWM4     H1       HDW      0.557330       1.00800           0   0.00000       0.00000    
     45748 TIP3     3908     SWM4     H2       HDW      0.557330       1.00800           0   0.00000       0.00000    
     45749 TIP3     3909     SWM4     OH2      ODW       1.71640       15.5994           0 -0.978253       1.30000    
     45750 TIP3     3909     SWM4     DOH2     DOH2     -1.71640      0.400000           0   0.00000       0.00000    
     45751 TIP3     3909     SWM4     OM       LPDW     -1.11466       0.00000          -1   0.00000       0.00000    
     45752 TIP3     3909     SWM4     H1       HDW      0.557330       1.00800           0   0.00000       0.00000    
     45753 TIP3     3909     SWM4     H2       HDW      0.557330       1.00800           0   0.00000       0.00000    
     45754 TIP3     3910     SWM4     OH2      ODW       1.71640       15.5994           0 -0.978253       1.30000    
     45755 TIP3     3910     SWM4     DOH2     DOH2     -1.71640      0.400000           0   0.00000       0.00000    
     45756 TIP3     3910     SWM4     OM       LPDW     -1.11466       0.00000          -1   0.00000       0.00000    
     45757 TIP3     3910     SWM4     H1       HDW      0.557330       1.00800           0   0.00000       0.00000    
     45758 TIP3     3910     SWM4     H2       HDW      0.557330       1.00800           0   0.00000       0.00000    
     45759 TIP3     3911     SWM4     OH2      ODW       1.71640       15.5994           0 -0.978253       1.30000    
     45760 TIP3     3911     SWM4     DOH2     DOH2     -1.71640      0.400000           0   0.00000       0.00000    
     45761 TIP3     3911     SWM4     OM       LPDW     -1.11466       0.00000          -1   0.00000       0.00000    
     45762 TIP3     3911     SWM4     H1       HDW      0.557330       1.00800           0   0.00000       0.00000    
     45763 TIP3     3911     SWM4     H2       HDW      0.557330       1.00800           0   0.00000       0.00000    
     45764 TIP3     3912     SWM4     OH2      ODW       1.71640       15.5994           0 -0.978253       1.30000    
     45765 TIP3     3912     SWM4     DOH2     DOH2     -1.71640      0.400000           0   0.00000       0.00000    
     45766 TIP3     3912     SWM4     OM       LPDW     -1.11466       0.00000          -1   0.00000       0.00000    
     45767 TIP3     3912     SWM4     H1       HDW      0.557330       1.00800           0   0.00000       0.00000    
     45768 TIP3     3912     SWM4     H2       HDW      0.557330       1.00800           0   0.00000       0.00000    
     45769 TIP3     3913     SWM4     OH2      ODW       1.71640       15.5994           0 -0.978253       1.30000    
     45770 TIP3     3913     SWM4     DOH2     DOH2     -1.71640      0.400000           0   0.00000       0.00000    
     45771 TIP3     3913     SWM4     OM       LPDW     -1.11466       0.00000          -1   0.00000       0.00000    
     45772 TIP3     3913     SWM4     H1       HDW      0.557330       1.00800           0   0.00000       0.00000    
     45773 TIP3     3913     SWM4     H2       HDW      0.557330       1.00800           0   0.00000       0.00000    
     45774 TIP3     3914     SWM4     OH2      ODW       1.71640       15.5994           0 -0.978253       1.30000    
     45775 TIP3     3914     SWM4     DOH2     DOH2     -1.71640      0.400000           0   0.00000       0.00000    
     45776 TIP3     3914     SWM4     OM       LPDW     -1.11466       0.00000          -1   0.00000       0.00000    
     45777 TIP3     3914     SWM4     H1       HDW      0.557330       1.00800           0   0.00000       0.00000    
     45778 TIP3     3914     SWM4     H2       HDW      0.557330       1.00800           0   0.00000       0.00000    
     45779 TIP3     3915     SWM4     OH2      ODW       1.71640       15.5994           0 -0.978253       1.30000    
     45780 TIP3     3915     SWM4     DOH2     DOH2     -1.71640      0.400000           0   0.00000       0.00000    
     45781 TIP3     3915     SWM4     OM       LPDW     -1.11466       0.00000          -1   0.00000       0.00000    
     45782 TIP3     3915     SWM4     H1       HDW      0.557330       1.00800           0   0.00000       0.00000    
     45783 TIP3     3915     SWM4     H2       HDW      0.557330       1.00800           0   0.00000       0.00000    
     45784 TIP3     3916     SWM4     OH2      ODW       1.71640       15.5994           0 -0.978253       1.30000    
     45785 TIP3     3916     SWM4     DOH2     DOH2     -1.71640      0.400000           0   0.00000       0.00000    
     45786 TIP3     3916     SWM4     OM       LPDW     -1.11466       0.00000          -1   0.00000       0.00000    
     45787 TIP3     3916     SWM4     H1       HDW      0.557330       1.00800           0   0.00000       0.00000    
     45788 TIP3     3916     SWM4     H2       HDW      0.557330       1.00800           0   0.00000       0.00000    
     45789 TIP3     3917     SWM4     OH2      ODW       1.71640       15.5994           0 -0.978253       1.30000    
     45790 TIP3     3917     SWM4     DOH2     DOH2     -1.71640      0.400000           0   0.00000       0.00000    
     45791 TIP3     3917     SWM4     OM       LPDW     -1.11466       0.00000          -1   0.00000       0.00000    
     45792 TIP3     3917     SWM4     H1       HDW      0.557330       1.00800           0   0.00000       0.00000    
     45793 TIP3     3917     SWM4     H2       HDW      0.557330       1.00800           0   0.00000       0.00000    
     45794 TIP3     3918     SWM4     OH2      ODW       1.71640       15.5994           0 -0.978253       1.30000    
     45795 TIP3     3918     SWM4     DOH2     DOH2     -1.71640      0.400000           0   0.00000       0.00000    
     45796 TIP3     3918     SWM4     OM       LPDW     -1.11466       0.00000          -1   0.00000       0.00000    
     45797 TIP3     3918     SWM4     H1       HDW      0.557330       1.00800           0   0.00000       0.00000    
     45798 TIP3     3918     SWM4     H2       HDW      0.557330       1.00800           0   0.00000       0.00000    
     45799 TIP3     3919     SWM4     OH2      ODW       1.71640       15.5994           0 -0.978253       1.30000    
     45800 TIP3     3919     SWM4     DOH2     DOH2     -1.71640      0.400000           0   0.00000       0.00000    
     45801 TIP3     3919     SWM4     OM       LPDW     -1.11466       0.00000          -1   0.00000       0.00000    
     45802 TIP3     3919     SWM4     H1       HDW      0.557330       1.00800           0   0.00000       0.00000    
     45803 TIP3     3919     SWM4     H2       HDW      0.557330       1.00800           0   0.00000       0.00000    
     45804 TIP3     3920     SWM4     OH2      ODW       1.71640       15.5994           0 -0.978253       1.30000    
     45805 TIP3     3920     SWM4     DOH2     DOH2     -1.71640      0.400000           0   0.00000       0.00000    
     45806 TIP3     3920     SWM4     OM       LPDW     -1.11466       0.00000          -1   0.00000       0.00000    
     45807 TIP3     3920     SWM4     H1       HDW      0.557330       1.00800           0   0.00000       0.00000    
     45808 TIP3     3920     SWM4     H2       HDW      0.557330       1.00800           0   0.00000       0.00000    
     45809 TIP3     3921     SWM4     OH2      ODW       1.71640       15.5994           0 -0.978253       1.30000    
     45810 TIP3     3921     SWM4     DOH2     DOH2     -1.71640      0.400000           0   0.00000       0.00000    
     45811 TIP3     3921     SWM4     OM       LPDW     -1.11466       0.00000          -1   0.00000       0.00000    
     45812 TIP3     3921     SWM4     H1       HDW      0.557330       1.00800           0   0.00000       0.00000    
     45813 TIP3     3921     SWM4     H2       HDW      0.557330       1.00800           0   0.00000       0.00000    
     45814 TIP3     3922     SWM4     OH2      ODW       1.71640       15.5994           0 -0.978253       1.30000    
     45815 TIP3     3922     SWM4     DOH2     DOH2     -1.71640      0.400000           0   0.00000       0.00000    
     45816 TIP3     3922     SWM4     OM       LPDW     -1.11466       0.00000          -1   0.00000       0.00000    
     45817 TIP3     3922     SWM4     H1       HDW      0.557330       1.00800           0   0.00000       0.00000    
     45818 TIP3     3922     SWM4     H2       HDW      0.557330       1.00800           0   0.00000       0.00000    
     45819 TIP3     3923     SWM4     OH2      ODW       1.71640       15.5994           0 -0.978253       1.30000    
     45820 TIP3     3923     SWM4     DOH2     DOH2     -1.71640      0.400000           0   0.00000       0.00000    
     45821 TIP3     3923     SWM4     OM       LPDW     -1.11466       0.00000          -1   0.00000       0.00000    
     45822 TIP3     3923     SWM4     H1       HDW      0.557330       1.00800           0   0.00000       0.00000    
     45823 TIP3     3923     SWM4     H2       HDW      0.557330       1.00800           0   0.00000       0.00000    
     45824 TIP3     3924     SWM4     OH2      ODW       1.71640       15.5994           0 -0.978253       1.30000    
     45825 TIP3     3924     SWM4     DOH2     DOH2     -1.71640      0.400000           0   0.00000       0.00000    
     45826 TIP3     3924     SWM4     OM       LPDW     -1.11466       0.00000          -1   0.00000       0.00000    
     45827 TIP3     3924     SWM4     H1       HDW      0.557330       1.00800           0   0.00000       0.00000    
     45828 TIP3     3924     SWM4     H2       HDW      0.557330       1.00800           0   0.00000       0.00000    
     45829 TIP3     3925     SWM4     OH2      ODW       1.71640       15.5994           0 -0.978253       1.30000    
     45830 TIP3     3925     SWM4     DOH2     DOH2     -1.71640      0.400000           0   0.00000       0.00000    
     45831 TIP3     3925     SWM4     OM       LPDW     -1.11466       0.00000          -1   0.00000       0.00000    
     45832 TIP3     3925     SWM4     H1       HDW      0.557330       1.00800           0   0.00000       0.00000    
     45833 TIP3     3925     SWM4     H2       HDW      0.557330       1.00800           0   0.00000       0.00000    
     45834 TIP3     3926     SWM4     OH2      ODW       1.71640       15.5994           0 -0.978253       1.30000    
     45835 TIP3     3926     SWM4     DOH2     DOH2     -1.71640      0.400000           0   0.00000       0.00000    
     45836 TIP3     3926     SWM4     OM       LPDW     -1.11466       0.00000          -1   0.00000       0.00000    
     45837 TIP3     3926     SWM4     H1       HDW      0.557330       1.00800           0   0.00000       0.00000    
     45838 TIP3     3926     SWM4     H2       HDW      0.557330       1.00800           0   0.00000       0.00000    
     45839 TIP3     3927     SWM4     OH2      ODW       1.71640       15.5994           0 -0.978253       1.30000    
     45840 TIP3     3927     SWM4     DOH2     DOH2     -1.71640      0.400000           0   0.00000       0.00000    
     45841 TIP3     3927     SWM4     OM       LPDW     -1.11466       0.00000          -1   0.00000       0.00000    
     45842 TIP3     3927     SWM4     H1       HDW      0.557330       1.00800           0   0.00000       0.00000    
     45843 TIP3     3927     SWM4     H2       HDW      0.557330       1.00800           0   0.00000       0.00000    
     45844 TIP3     3928     SWM4     OH2      ODW       1.71640       15.5994           0 -0.978253       1.30000    
     45845 TIP3     3928     SWM4     DOH2     DOH2     -1.71640      0.400000           0   0.00000       0.00000    
     45846 TIP3     3928     SWM4     OM       LPDW     -1.11466       0.00000          -1   0.00000       0.00000    
     45847 TIP3     3928     SWM4     H1       HDW      0.557330       1.00800           0   0.00000       0.00000    
     45848 TIP3     3928     SWM4     H2       HDW      0.557330       1.00800           0   0.00000       0.00000    
     45849 TIP3     3929     SWM4     OH2      ODW       1.71640       15.5994           0 -0.978253       1.30000    
     45850 TIP3     3929     SWM4     DOH2     DOH2     -1.71640      0.400000           0   0.00000       0.00000    
     45851 TIP3     3929     SWM4     OM       LPDW     -1.11466       0.00000          -1   0.00000       0.00000    
     45852 TIP3     3929     SWM4     H1       HDW      0.557330       1.00800           0   0.00000       0.00000    
     45853 TIP3     3929     SWM4     H2       HDW      0.557330       1.00800           0   0.00000       0.00000    
     45854 TIP3     3930     SWM4     OH2      ODW       1.71640       15.5994           0 -0.978253       1.30000    
     45855 TIP3     3930     SWM4     DOH2     DOH2     -1.71640      0.400000           0   0.00000       0.00000    
     45856 TIP3     3930     SWM4     OM       LPDW     -1.11466       0.00000          -1   0.00000       0.00000    
     45857 TIP3     3930     SWM4     H1       HDW      0.557330       1.00800           0   0.00000       0.00000    
     45858 TIP3     3930     SWM4     H2       HDW      0.557330       1.00800           0   0.00000       0.00000    
     45859 TIP3     3931     SWM4     OH2      ODW       1.71640       15.5994           0 -0.978253       1.30000    
     45860 TIP3     3931     SWM4     DOH2     DOH2     -1.71640      0.400000           0   0.00000       0.00000    
     45861 TIP3     3931     SWM4     OM       LPDW     -1.11466       0.00000          -1   0.00000       0.00000    
     45862 TIP3     3931     SWM4     H1       HDW      0.557330       1.00800           0   0.00000       0.00000    
     45863 TIP3     3931     SWM4     H2       HDW      0.557330       1.00800           0   0.00000       0.00000    
     45864 TIP3     3932     SWM4     OH2      ODW       1.71640       15.5994           0 -0.978253       1.30000    
     45865 TIP3     3932     SWM4     DOH2     DOH2     -1.71640      0.400000           0   0.00000       0.00000    
     45866 TIP3     3932     SWM4     OM       LPDW     -1.11466       0.00000          -1   0.00000       0.00000    
     45867 TIP3     3932     SWM4     H1       HDW      0.557330       1.00800           0   0.00000       0.00000    
     45868 TIP3     3932     SWM4     H2       HDW      0.557330       1.00800           0   0.00000       0.00000    
     45869 TIP3     3933     SWM4     OH2      ODW       1.71640       15.5994           0 -0.978253       1.30000    
     45870 TIP3     3933     SWM4     DOH2     DOH2     -1.71640      0.400000           0   0.00000       0.00000    
     45871 TIP3     3933     SWM4     OM       LPDW     -1.11466       0.00000          -1   0.00000       0.00000    
     45872 TIP3     3933     SWM4     H1       HDW      0.557330       1.00800           0   0.00000       0.00000    
     45873 TIP3     3933     SWM4     H2       HDW      0.557330       1.00800           0   0.00000       0.00000    
     45874 TIP3     3934     SWM4     OH2      ODW       1.71640       15.5994           0 -0.978253       1.30000    
     45875 TIP3     3934     SWM4     DOH2     DOH2     -1.71640      0.400000           0   0.00000       0.00000    
     45876 TIP3     3934     SWM4     OM       LPDW     -1.11466       0.00000          -1   0.00000       0.00000    
     45877 TIP3     3934     SWM4     H1       HDW      0.557330       1.00800           0   0.00000       0.00000    
     45878 TIP3     3934     SWM4     H2       HDW      0.557330       1.00800           0   0.00000       0.00000    
     45879 TIP3     3935     SWM4     OH2      ODW       1.71640       15.5994           0 -0.978253       1.30000    
     45880 TIP3     3935     SWM4     DOH2     DOH2     -1.71640      0.400000           0   0.00000       0.00000    
     45881 TIP3     3935     SWM4     OM       LPDW     -1.11466       0.00000          -1   0.00000       0.00000    
     45882 TIP3     3935     SWM4     H1       HDW      0.557330       1.00800           0   0.00000       0.00000    
     45883 TIP3     3935     SWM4     H2       HDW      0.557330       1.00800           0   0.00000       0.00000    
     45884 TIP3     3936     SWM4     OH2      ODW       1.71640       15.5994           0 -0.978253       1.30000    
     45885 TIP3     3936     SWM4     DOH2     DOH2     -1.71640      0.400000           0   0.00000       0.00000    
     45886 TIP3     3936     SWM4     OM       LPDW     -1.11466       0.00000          -1   0.00000       0.00000    
     45887 TIP3     3936     SWM4     H1       HDW      0.557330       1.00800           0   0.00000       0.00000    
     45888 TIP3     3936     SWM4     H2       HDW      0.557330       1.00800           0   0.00000       0.00000    
     45889 TIP3     3937     SWM4     OH2      ODW       1.71640       15.5994           0 -0.978253       1.30000    
     45890 TIP3     3937     SWM4     DOH2     DOH2     -1.71640      0.400000           0   0.00000       0.00000    
     45891 TIP3     3937     SWM4     OM       LPDW     -1.11466       0.00000          -1   0.00000       0.00000    
     45892 TIP3     3937     SWM4     H1       HDW      0.557330       1.00800           0   0.00000       0.00000    
     45893 TIP3     3937     SWM4     H2       HDW      0.557330       1.00800           0   0.00000       0.00000    
     45894 TIP3     3938     SWM4     OH2      ODW       1.71640       15.5994           0 -0.978253       1.30000    
     45895 TIP3     3938     SWM4     DOH2     DOH2     -1.71640      0.400000           0   0.00000       0.00000    
     45896 TIP3     3938     SWM4     OM       LPDW     -1.11466       0.00000          -1   0.00000       0.00000    
     45897 TIP3     3938     SWM4     H1       HDW      0.557330       1.00800           0   0.00000       0.00000    
     45898 TIP3     3938     SWM4     H2       HDW      0.557330       1.00800           0   0.00000       0.00000    
     45899 TIP3     3939     SWM4     OH2      ODW       1.71640       15.5994           0 -0.978253       1.30000    
     45900 TIP3     3939     SWM4     DOH2     DOH2     -1.71640      0.400000           0   0.00000       0.00000    
     45901 TIP3     3939     SWM4     OM       LPDW     -1.11466       0.00000          -1   0.00000       0.00000    
     45902 TIP3     3939     SWM4     H1       HDW      0.557330       1.00800           0   0.00000       0.00000    
     45903 TIP3     3939     SWM4     H2       HDW      0.557330       1.00800           0   0.00000       0.00000    
     45904 TIP3     3940     SWM4     OH2      ODW       1.71640       15.5994           0 -0.978253       1.30000    
     45905 TIP3     3940     SWM4     DOH2     DOH2     -1.71640      0.400000           0   0.00000       0.00000    
     45906 TIP3     3940     SWM4     OM       LPDW     -1.11466       0.00000          -1   0.00000       0.00000    
     45907 TIP3     3940     SWM4     H1       HDW      0.557330       1.00800           0   0.00000       0.00000    
     45908 TIP3     3940     SWM4     H2       HDW      0.557330       1.00800           0   0.00000       0.00000    
     45909 TIP3     3941     SWM4     OH2      ODW       1.71640       15.5994           0 -0.978253       1.30000    
     45910 TIP3     3941     SWM4     DOH2     DOH2     -1.71640      0.400000           0   0.00000       0.00000    
     45911 TIP3     3941     SWM4     OM       LPDW     -1.11466       0.00000          -1   0.00000       0.00000    
     45912 TIP3     3941     SWM4     H1       HDW      0.557330       1.00800           0   0.00000       0.00000    
     45913 TIP3     3941     SWM4     H2       HDW      0.557330       1.00800           0   0.00000       0.00000    
     45914 TIP3     3942     SWM4     OH2      ODW       1.71640       15.5994           0 -0.978253       1.30000    
     45915 TIP3     3942     SWM4     DOH2     DOH2     -1.71640      0.400000           0   0.00000       0.00000    
     45916 TIP3     3942     SWM4     OM       LPDW     -1.11466       0.00000          -1   0.00000       0.00000    
     45917 TIP3     3942     SWM4     H1       HDW      0.557330       1.00800           0   0.00000       0.00000    
     45918 TIP3     3942     SWM4     H2       HDW      0.557330       1.00800           0   0.00000       0.00000    
     45919 TIP3     3943     SWM4     OH2      ODW       1.71640       15.5994           0 -0.978253       1.30000    
     45920 TIP3     3943     SWM4     DOH2     DOH2     -1.71640      0.400000           0   0.00000       0.00000    
     45921 TIP3     3943     SWM4     OM       LPDW     -1.11466       0.00000          -1   0.00000       0.00000    
     45922 TIP3     3943     SWM4     H1       HDW      0.557330       1.00800           0   0.00000       0.00000    
     45923 TIP3     3943     SWM4     H2       HDW      0.557330       1.00800           0   0.00000       0.00000    
     45924 TIP3     3944     SWM4     OH2      ODW       1.71640       15.5994           0 -0.978253       1.30000    
     45925 TIP3     3944     SWM4     DOH2     DOH2     -1.71640      0.400000           0   0.00000       0.00000    
     45926 TIP3     3944     SWM4     OM       LPDW     -1.11466       0.00000          -1   0.00000       0.00000    
     45927 TIP3     3944     SWM4     H1       HDW      0.557330       1.00800           0   0.00000       0.00000    
     45928 TIP3     3944     SWM4     H2       HDW      0.557330       1.00800           0   0.00000       0.00000    
     45929 TIP3     3945     SWM4     OH2      ODW       1.71640       15.5994           0 -0.978253       1.30000    
     45930 TIP3     3945     SWM4     DOH2     DOH2     -1.71640      0.400000           0   0.00000       0.00000    
     45931 TIP3     3945     SWM4     OM       LPDW     -1.11466       0.00000          -1   0.00000       0.00000    
     45932 TIP3     3945     SWM4     H1       HDW      0.557330       1.00800           0   0.00000       0.00000    
     45933 TIP3     3945     SWM4     H2       HDW      0.557330       1.00800           0   0.00000       0.00000    
     45934 TIP3     3946     SWM4     OH2      ODW       1.71640       15.5994           0 -0.978253       1.30000    
     45935 TIP3     3946     SWM4     DOH2     DOH2     -1.71640      0.400000           0   0.00000       0.00000    
     45936 TIP3     3946     SWM4     OM       LPDW     -1.11466       0.00000          -1   0.00000       0.00000    
     45937 TIP3     3946     SWM4     H1       HDW      0.557330       1.00800           0   0.00000       0.00000    
     45938 TIP3     3946     SWM4     H2       HDW      0.557330       1.00800           0   0.00000       0.00000    
     45939 TIP3     3947     SWM4     OH2      ODW       1.71640       15.5994           0 -0.978253       1.30000    
     45940 TIP3     3947     SWM4     DOH2     DOH2     -1.71640      0.400000           0   0.00000       0.00000    
     45941 TIP3     3947     SWM4     OM       LPDW     -1.11466       0.00000          -1   0.00000       0.00000    
     45942 TIP3     3947     SWM4     H1       HDW      0.557330       1.00800           0   0.00000       0.00000    
     45943 TIP3     3947     SWM4     H2       HDW      0.557330       1.00800           0   0.00000       0.00000    
     45944 TIP3     3948     SWM4     OH2      ODW       1.71640       15.5994           0 -0.978253       1.30000    
     45945 TIP3     3948     SWM4     DOH2     DOH2     -1.71640      0.400000           0   0.00000       0.00000    
     45946 TIP3     3948     SWM4     OM       LPDW     -1.11466       0.00000          -1   0.00000       0.00000    
     45947 TIP3     3948     SWM4     H1       HDW      0.557330       1.00800           0   0.00000       0.00000    
     45948 TIP3     3948     SWM4     H2       HDW      0.557330       1.00800           0   0.00000       0.00000    
     45949 TIP3     3949     SWM4     OH2      ODW       1.71640       15.5994           0 -0.978253       1.30000    
     45950 TIP3     3949     SWM4     DOH2     DOH2     -1.71640      0.400000           0   0.00000       0.00000    
     45951 TIP3     3949     SWM4     OM       LPDW     -1.11466       0.00000          -1   0.00000       0.00000    
     45952 TIP3     3949     SWM4     H1       HDW      0.557330       1.00800           0   0.00000       0.00000    
     45953 TIP3     3949     SWM4     H2       HDW      0.557330       1.00800           0   0.00000       0.00000    
     45954 TIP3     3950     SWM4     OH2      ODW       1.71640       15.5994           0 -0.978253       1.30000    
     45955 TIP3     3950     SWM4     DOH2     DOH2     -1.71640      0.400000           0   0.00000       0.00000    
     45956 TIP3     3950     SWM4     OM       LPDW     -1.11466       0.00000          -1   0.00000       0.00000    
     45957 TIP3     3950     SWM4     H1       HDW      0.557330       1.00800           0   0.00000       0.00000    
     45958 TIP3     3950     SWM4     H2       HDW      0.557330       1.00800           0   0.00000       0.00000    
     45959 TIP3     3951     SWM4     OH2      ODW       1.71640       15.5994           0 -0.978253       1.30000    
     45960 TIP3     3951     SWM4     DOH2     DOH2     -1.71640      0.400000           0   0.00000       0.00000    
     45961 TIP3     3951     SWM4     OM       LPDW     -1.11466       0.00000          -1   0.00000       0.00000    
     45962 TIP3     3951     SWM4     H1       HDW      0.557330       1.00800           0   0.00000       0.00000    
     45963 TIP3     3951     SWM4     H2       HDW      0.557330       1.00800           0   0.00000       0.00000    
     45964 TIP3     3952     SWM4     OH2      ODW       1.71640       15.5994           0 -0.978253       1.30000    
     45965 TIP3     3952     SWM4     DOH2     DOH2     -1.71640      0.400000           0   0.00000       0.00000    
     45966 TIP3     3952     SWM4     OM       LPDW     -1.11466       0.00000          -1   0.00000       0.00000    
     45967 TIP3     3952     SWM4     H1       HDW      0.557330       1.00800           0   0.00000       0.00000    
     45968 TIP3     3952     SWM4     H2       HDW      0.557330       1.00800           0   0.00000       0.00000    
     45969 TIP3     3953     SWM4     OH2      ODW       1.71640       15.5994           0 -0.978253       1.30000    
     45970 TIP3     3953     SWM4     DOH2     DOH2     -1.71640      0.400000           0   0.00000       0.00000    
     45971 TIP3     3953     SWM4     OM       LPDW     -1.11466       0.00000          -1   0.00000       0.00000    
     45972 TIP3     3953     SWM4     H1       HDW      0.557330       1.00800           0   0.00000       0.00000    
     45973 TIP3     3953     SWM4     H2       HDW      0.557330       1.00800           0   0.00000       0.00000    
     45974 TIP3     3954     SWM4     OH2      ODW       1.71640       15.5994           0 -0.978253       1.30000    
     45975 TIP3     3954     SWM4     DOH2     DOH2     -1.71640      0.400000           0   0.00000       0.00000    
     45976 TIP3     3954     SWM4     OM       LPDW     -1.11466       0.00000          -1   0.00000       0.00000    
     45977 TIP3     3954     SWM4     H1       HDW      0.557330       1.00800           0   0.00000       0.00000    
     45978 TIP3     3954     SWM4     H2       HDW      0.557330       1.00800           0   0.00000       0.00000    
     45979 TIP3     3955     SWM4     OH2      ODW       1.71640       15.5994           0 -0.978253       1.30000    
     45980 TIP3     3955     SWM4     DOH2     DOH2     -1.71640      0.400000           0   0.00000       0.00000    
     45981 TIP3     3955     SWM4     OM       LPDW     -1.11466       0.00000          -1   0.00000       0.00000    
     45982 TIP3     3955     SWM4     H1       HDW      0.557330       1.00800           0   0.00000       0.00000    
     45983 TIP3     3955     SWM4     H2       HDW      0.557330       1.00800           0   0.00000       0.00000    
     45984 TIP3     3956     SWM4     OH2      ODW       1.71640       15.5994           0 -0.978253       1.30000    
     45985 TIP3     3956     SWM4     DOH2     DOH2     -1.71640      0.400000           0   0.00000       0.00000    
     45986 TIP3     3956     SWM4     OM       LPDW     -1.11466       0.00000          -1   0.00000       0.00000    
     45987 TIP3     3956     SWM4     H1       HDW      0.557330       1.00800           0   0.00000       0.00000    
     45988 TIP3     3956     SWM4     H2       HDW      0.557330       1.00800           0   0.00000       0.00000    
     45989 TIP3     3957     SWM4     OH2      ODW       1.71640       15.5994           0 -0.978253       1.30000    
     45990 TIP3     3957     SWM4     DOH2     DOH2     -1.71640      0.400000           0   0.00000       0.00000    
     45991 TIP3     3957     SWM4     OM       LPDW     -1.11466       0.00000          -1   0.00000       0.00000    
     45992 TIP3     3957     SWM4     H1       HDW      0.557330       1.00800           0   0.00000       0.00000    
     45993 TIP3     3957     SWM4     H2       HDW      0.557330       1.00800           0   0.00000       0.00000    
     45994 TIP3     3958     SWM4     OH2      ODW       1.71640       15.5994           0 -0.978253       1.30000    
     45995 TIP3     3958     SWM4     DOH2     DOH2     -1.71640      0.400000           0   0.00000       0.00000    
     45996 TIP3     3958     SWM4     OM       LPDW     -1.11466       0.00000          -1   0.00000       0.00000    
     45997 TIP3     3958     SWM4     H1       HDW      0.557330       1.00800           0   0.00000       0.00000    
     45998 TIP3     3958     SWM4     H2       HDW      0.557330       1.00800           0   0.00000       0.00000    
     45999 TIP3     3959     SWM4     OH2      ODW       1.71640       15.5994           0 -0.978253       1.30000    
     46000 TIP3     3959     SWM4     DOH2     DOH2     -1.71640      0.400000           0   0.00000       0.00000    
     46001 TIP3     3959     SWM4     OM       LPDW     -1.11466       0.00000          -1   0.00000       0.00000    
     46002 TIP3     3959     SWM4     H1       HDW      0.557330       1.00800           0   0.00000       0.00000    
     46003 TIP3     3959     SWM4     H2       HDW      0.557330       1.00800           0   0.00000       0.00000    
     46004 TIP3     3960     SWM4     OH2      ODW       1.71640       15.5994           0 -0.978253       1.30000    
     46005 TIP3     3960     SWM4     DOH2     DOH2     -1.71640      0.400000           0   0.00000       0.00000    
     46006 TIP3     3960     SWM4     OM       LPDW     -1.11466       0.00000          -1   0.00000       0.00000    
     46007 TIP3     3960     SWM4     H1       HDW      0.557330       1.00800           0   0.00000       0.00000    
     46008 TIP3     3960     SWM4     H2       HDW      0.557330       1.00800           0   0.00000       0.00000    
     46009 TIP3     3961     SWM4     OH2      ODW       1.71640       15.5994           0 -0.978253       1.30000    
     46010 TIP3     3961     SWM4     DOH2     DOH2     -1.71640      0.400000           0   0.00000       0.00000    
     46011 TIP3     3961     SWM4     OM       LPDW     -1.11466       0.00000          -1   0.00000       0.00000    
     46012 TIP3     3961     SWM4     H1       HDW      0.557330       1.00800           0   0.00000       0.00000    
     46013 TIP3     3961     SWM4     H2       HDW      0.557330       1.00800           0   0.00000       0.00000    
     46014 TIP3     3962     SWM4     OH2      ODW       1.71640       15.5994           0 -0.978253       1.30000    
     46015 TIP3     3962     SWM4     DOH2     DOH2     -1.71640      0.400000           0   0.00000       0.00000    
     46016 TIP3     3962     SWM4     OM       LPDW     -1.11466       0.00000          -1   0.00000       0.00000    
     46017 TIP3     3962     SWM4     H1       HDW      0.557330       1.00800           0   0.00000       0.00000    
     46018 TIP3     3962     SWM4     H2       HDW      0.557330       1.00800           0   0.00000       0.00000    
     46019 TIP3     3963     SWM4     OH2      ODW       1.71640       15.5994           0 -0.978253       1.30000    
     46020 TIP3     3963     SWM4     DOH2     DOH2     -1.71640      0.400000           0   0.00000       0.00000    
     46021 TIP3     3963     SWM4     OM       LPDW     -1.11466       0.00000          -1   0.00000       0.00000    
     46022 TIP3     3963     SWM4     H1       HDW      0.557330       1.00800           0   0.00000       0.00000    
     46023 TIP3     3963     SWM4     H2       HDW      0.557330       1.00800           0   0.00000       0.00000    
     46024 TIP3     3964     SWM4     OH2      ODW       1.71640       15.5994           0 -0.978253       1.30000    
     46025 TIP3     3964     SWM4     DOH2     DOH2     -1.71640      0.400000           0   0.00000       0.00000    
     46026 TIP3     3964     SWM4     OM       LPDW     -1.11466       0.00000          -1   0.00000       0.00000    
     46027 TIP3     3964     SWM4     H1       HDW      0.557330       1.00800           0   0.00000       0.00000    
     46028 TIP3     3964     SWM4     H2       HDW      0.557330       1.00800           0   0.00000       0.00000    
     46029 TIP3     3965     SWM4     OH2      ODW       1.71640       15.5994           0 -0.978253       1.30000    
     46030 TIP3     3965     SWM4     DOH2     DOH2     -1.71640      0.400000           0   0.00000       0.00000    
     46031 TIP3     3965     SWM4     OM       LPDW     -1.11466       0.00000          -1   0.00000       0.00000    
     46032 TIP3     3965     SWM4     H1       HDW      0.557330       1.00800           0   0.00000       0.00000    
     46033 TIP3     3965     SWM4     H2       HDW      0.557330       1.00800           0   0.00000       0.00000    
     46034 TIP3     3966     SWM4     OH2      ODW       1.71640       15.5994           0 -0.978253       1.30000    
     46035 TIP3     3966     SWM4     DOH2     DOH2     -1.71640      0.400000           0   0.00000       0.00000    
     46036 TIP3     3966     SWM4     OM       LPDW     -1.11466       0.00000          -1   0.00000       0.00000    
     46037 TIP3     3966     SWM4     H1       HDW      0.557330       1.00800           0   0.00000       0.00000    
     46038 TIP3     3966     SWM4     H2       HDW      0.557330       1.00800           0   0.00000       0.00000    
     46039 TIP3     3967     SWM4     OH2      ODW       1.71640       15.5994           0 -0.978253       1.30000    
     46040 TIP3     3967     SWM4     DOH2     DOH2     -1.71640      0.400000           0   0.00000       0.00000    
     46041 TIP3     3967     SWM4     OM       LPDW     -1.11466       0.00000          -1   0.00000       0.00000    
     46042 TIP3     3967     SWM4     H1       HDW      0.557330       1.00800           0   0.00000       0.00000    
     46043 TIP3     3967     SWM4     H2       HDW      0.557330       1.00800           0   0.00000       0.00000    
     46044 TIP3     3968     SWM4     OH2      ODW       1.71640       15.5994           0 -0.978253       1.30000    
     46045 TIP3     3968     SWM4     DOH2     DOH2     -1.71640      0.400000           0   0.00000       0.00000    
     46046 TIP3     3968     SWM4     OM       LPDW     -1.11466       0.00000          -1   0.00000       0.00000    
     46047 TIP3     3968     SWM4     H1       HDW      0.557330       1.00800           0   0.00000       0.00000    
     46048 TIP3     3968     SWM4     H2       HDW      0.557330       1.00800           0   0.00000       0.00000    
     46049 TIP3     3969     SWM4     OH2      ODW       1.71640       15.5994           0 -0.978253       1.30000    
     46050 TIP3     3969     SWM4     DOH2     DOH2     -1.71640      0.400000           0   0.00000       0.00000    
     46051 TIP3     3969     SWM4     OM       LPDW     -1.11466       0.00000          -1   0.00000       0.00000    
     46052 TIP3     3969     SWM4     H1       HDW      0.557330       1.00800           0   0.00000       0.00000    
     46053 TIP3     3969     SWM4     H2       HDW      0.557330       1.00800           0   0.00000       0.00000    
     46054 TIP3     3970     SWM4     OH2      ODW       1.71640       15.5994           0 -0.978253       1.30000    
     46055 TIP3     3970     SWM4     DOH2     DOH2     -1.71640      0.400000           0   0.00000       0.00000    
     46056 TIP3     3970     SWM4     OM       LPDW     -1.11466       0.00000          -1   0.00000       0.00000    
     46057 TIP3     3970     SWM4     H1       HDW      0.557330       1.00800           0   0.00000       0.00000    
     46058 TIP3     3970     SWM4     H2       HDW      0.557330       1.00800           0   0.00000       0.00000    
     46059 TIP3     3971     SWM4     OH2      ODW       1.71640       15.5994           0 -0.978253       1.30000    
     46060 TIP3     3971     SWM4     DOH2     DOH2     -1.71640      0.400000           0   0.00000       0.00000    
     46061 TIP3     3971     SWM4     OM       LPDW     -1.11466       0.00000          -1   0.00000       0.00000    
     46062 TIP3     3971     SWM4     H1       HDW      0.557330       1.00800           0   0.00000       0.00000    
     46063 TIP3     3971     SWM4     H2       HDW      0.557330       1.00800           0   0.00000       0.00000    
     46064 TIP3     3972     SWM4     OH2      ODW       1.71640       15.5994           0 -0.978253       1.30000    
     46065 TIP3     3972     SWM4     DOH2     DOH2     -1.71640      0.400000           0   0.00000       0.00000    
     46066 TIP3     3972     SWM4     OM       LPDW     -1.11466       0.00000          -1   0.00000       0.00000    
     46067 TIP3     3972     SWM4     H1       HDW      0.557330       1.00800           0   0.00000       0.00000    
     46068 TIP3     3972     SWM4     H2       HDW      0.557330       1.00800           0   0.00000       0.00000    
     46069 TIP3     3973     SWM4     OH2      ODW       1.71640       15.5994           0 -0.978253       1.30000    
     46070 TIP3     3973     SWM4     DOH2     DOH2     -1.71640      0.400000           0   0.00000       0.00000    
     46071 TIP3     3973     SWM4     OM       LPDW     -1.11466       0.00000          -1   0.00000       0.00000    
     46072 TIP3     3973     SWM4     H1       HDW      0.557330       1.00800           0   0.00000       0.00000    
     46073 TIP3     3973     SWM4     H2       HDW      0.557330       1.00800           0   0.00000       0.00000    
     46074 TIP3     3974     SWM4     OH2      ODW       1.71640       15.5994           0 -0.978253       1.30000    
     46075 TIP3     3974     SWM4     DOH2     DOH2     -1.71640      0.400000           0   0.00000       0.00000    
     46076 TIP3     3974     SWM4     OM       LPDW     -1.11466       0.00000          -1   0.00000       0.00000    
     46077 TIP3     3974     SWM4     H1       HDW      0.557330       1.00800           0   0.00000       0.00000    
     46078 TIP3     3974     SWM4     H2       HDW      0.557330       1.00800           0   0.00000       0.00000    
     46079 TIP3     3975     SWM4     OH2      ODW       1.71640       15.5994           0 -0.978253       1.30000    
     46080 TIP3     3975     SWM4     DOH2     DOH2     -1.71640      0.400000           0   0.00000       0.00000    
     46081 TIP3     3975     SWM4     OM       LPDW     -1.11466       0.00000          -1   0.00000       0.00000    
     46082 TIP3     3975     SWM4     H1       HDW      0.557330       1.00800           0   0.00000       0.00000    
     46083 TIP3     3975     SWM4     H2       HDW      0.557330       1.00800           0   0.00000       0.00000    
     46084 TIP3     3976     SWM4     OH2      ODW       1.71640       15.5994           0 -0.978253       1.30000    
     46085 TIP3     3976     SWM4     DOH2     DOH2     -1.71640      0.400000           0   0.00000       0.00000    
     46086 TIP3     3976     SWM4     OM       LPDW     -1.11466       0.00000          -1   0.00000       0.00000    
     46087 TIP3     3976     SWM4     H1       HDW      0.557330       1.00800           0   0.00000       0.00000    
     46088 TIP3     3976     SWM4     H2       HDW      0.557330       1.00800           0   0.00000       0.00000    
     46089 TIP3     3977     SWM4     OH2      ODW       1.71640       15.5994           0 -0.978253       1.30000    
     46090 TIP3     3977     SWM4     DOH2     DOH2     -1.71640      0.400000           0   0.00000       0.00000    
     46091 TIP3     3977     SWM4     OM       LPDW     -1.11466       0.00000          -1   0.00000       0.00000    
     46092 TIP3     3977     SWM4     H1       HDW      0.557330       1.00800           0   0.00000       0.00000    
     46093 TIP3     3977     SWM4     H2       HDW      0.557330       1.00800           0   0.00000       0.00000    
     46094 TIP3     3978     SWM4     OH2      ODW       1.71640       15.5994           0 -0.978253       1.30000    
     46095 TIP3     3978     SWM4     DOH2     DOH2     -1.71640      0.400000           0   0.00000       0.00000    
     46096 TIP3     3978     SWM4     OM       LPDW     -1.11466       0.00000          -1   0.00000       0.00000    
     46097 TIP3     3978     SWM4     H1       HDW      0.557330       1.00800           0   0.00000       0.00000    
     46098 TIP3     3978     SWM4     H2       HDW      0.557330       1.00800           0   0.00000       0.00000    
     46099 TIP3     3979     SWM4     OH2      ODW       1.71640       15.5994           0 -0.978253       1.30000    
     46100 TIP3     3979     SWM4     DOH2     DOH2     -1.71640      0.400000           0   0.00000       0.00000    
     46101 TIP3     3979     SWM4     OM       LPDW     -1.11466       0.00000          -1   0.00000       0.00000    
     46102 TIP3     3979     SWM4     H1       HDW      0.557330       1.00800           0   0.00000       0.00000    
     46103 TIP3     3979     SWM4     H2       HDW      0.557330       1.00800           0   0.00000       0.00000    
     46104 TIP3     3980     SWM4     OH2      ODW       1.71640       15.5994           0 -0.978253       1.30000    
     46105 TIP3     3980     SWM4     DOH2     DOH2     -1.71640      0.400000           0   0.00000       0.00000    
     46106 TIP3     3980     SWM4     OM       LPDW     -1.11466       0.00000          -1   0.00000       0.00000    
     46107 TIP3     3980     SWM4     H1       HDW      0.557330       1.00800           0   0.00000       0.00000    
     46108 TIP3     3980     SWM4     H2       HDW      0.557330       1.00800           0   0.00000       0.00000    
     46109 TIP3     3981     SWM4     OH2      ODW       1.71640       15.5994           0 -0.978253       1.30000    
     46110 TIP3     3981     SWM4     DOH2     DOH2     -1.71640      0.400000           0   0.00000       0.00000    
     46111 TIP3     3981     SWM4     OM       LPDW     -1.11466       0.00000          -1   0.00000       0.00000    
     46112 TIP3     3981     SWM4     H1       HDW      0.557330       1.00800           0   0.00000       0.00000    
     46113 TIP3     3981     SWM4     H2       HDW      0.557330       1.00800           0   0.00000       0.00000    
     46114 TIP3     3982     SWM4     OH2      ODW       1.71640       15.5994           0 -0.978253       1.30000    
     46115 TIP3     3982     SWM4     DOH2     DOH2     -1.71640      0.400000           0   0.00000       0.00000    
     46116 TIP3     3982     SWM4     OM       LPDW     -1.11466       0.00000          -1   0.00000       0.00000    
     46117 TIP3     3982     SWM4     H1       HDW      0.557330       1.00800           0   0.00000       0.00000    
     46118 TIP3     3982     SWM4     H2       HDW      0.557330       1.00800           0   0.00000       0.00000    
     46119 TIP3     3983     SWM4     OH2      ODW       1.71640       15.5994           0 -0.978253       1.30000    
     46120 TIP3     3983     SWM4     DOH2     DOH2     -1.71640      0.400000           0   0.00000       0.00000    
     46121 TIP3     3983     SWM4     OM       LPDW     -1.11466       0.00000          -1   0.00000       0.00000    
     46122 TIP3     3983     SWM4     H1       HDW      0.557330       1.00800           0   0.00000       0.00000    
     46123 TIP3     3983     SWM4     H2       HDW      0.557330       1.00800           0   0.00000       0.00000    
     46124 TIP3     3984     SWM4     OH2      ODW       1.71640       15.5994           0 -0.978253       1.30000    
     46125 TIP3     3984     SWM4     DOH2     DOH2     -1.71640      0.400000           0   0.00000       0.00000    
     46126 TIP3     3984     SWM4     OM       LPDW     -1.11466       0.00000          -1   0.00000       0.00000    
     46127 TIP3     3984     SWM4     H1       HDW      0.557330       1.00800           0   0.00000       0.00000    
     46128 TIP3     3984     SWM4     H2       HDW      0.557330       1.00800           0   0.00000       0.00000    
     46129 TIP3     3985     SWM4     OH2      ODW       1.71640       15.5994           0 -0.978253       1.30000    
     46130 TIP3     3985     SWM4     DOH2     DOH2     -1.71640      0.400000           0   0.00000       0.00000    
     46131 TIP3     3985     SWM4     OM       LPDW     -1.11466       0.00000          -1   0.00000       0.00000    
     46132 TIP3     3985     SWM4     H1       HDW      0.557330       1.00800           0   0.00000       0.00000    
     46133 TIP3     3985     SWM4     H2       HDW      0.557330       1.00800           0   0.00000       0.00000    
     46134 TIP3     3986     SWM4     OH2      ODW       1.71640       15.5994           0 -0.978253       1.30000    
     46135 TIP3     3986     SWM4     DOH2     DOH2     -1.71640      0.400000           0   0.00000       0.00000    
     46136 TIP3     3986     SWM4     OM       LPDW     -1.11466       0.00000          -1   0.00000       0.00000    
     46137 TIP3     3986     SWM4     H1       HDW      0.557330       1.00800           0   0.00000       0.00000    
     46138 TIP3     3986     SWM4     H2       HDW      0.557330       1.00800           0   0.00000       0.00000    
     46139 TIP3     3987     SWM4     OH2      ODW       1.71640       15.5994           0 -0.978253       1.30000    
     46140 TIP3     3987     SWM4     DOH2     DOH2     -1.71640      0.400000           0   0.00000       0.00000    
     46141 TIP3     3987     SWM4     OM       LPDW     -1.11466       0.00000          -1   0.00000       0.00000    
     46142 TIP3     3987     SWM4     H1       HDW      0.557330       1.00800           0   0.00000       0.00000    
     46143 TIP3     3987     SWM4     H2       HDW      0.557330       1.00800           0   0.00000       0.00000    
     46144 TIP3     3988     SWM4     OH2      ODW       1.71640       15.5994           0 -0.978253       1.30000    
     46145 TIP3     3988     SWM4     DOH2     DOH2     -1.71640      0.400000           0   0.00000       0.00000    
     46146 TIP3     3988     SWM4     OM       LPDW     -1.11466       0.00000          -1   0.00000       0.00000    
     46147 TIP3     3988     SWM4     H1       HDW      0.557330       1.00800           0   0.00000       0.00000    
     46148 TIP3     3988     SWM4     H2       HDW      0.557330       1.00800           0   0.00000       0.00000    
     46149 TIP3     3989     SWM4     OH2      ODW       1.71640       15.5994           0 -0.978253       1.30000    
     46150 TIP3     3989     SWM4     DOH2     DOH2     -1.71640      0.400000           0   0.00000       0.00000    
     46151 TIP3     3989     SWM4     OM       LPDW     -1.11466       0.00000          -1   0.00000       0.00000    
     46152 TIP3     3989     SWM4     H1       HDW      0.557330       1.00800           0   0.00000       0.00000    
     46153 TIP3     3989     SWM4     H2       HDW      0.557330       1.00800           0   0.00000       0.00000    
     46154 TIP3     3990     SWM4     OH2      ODW       1.71640       15.5994           0 -0.978253       1.30000    
     46155 TIP3     3990     SWM4     DOH2     DOH2     -1.71640      0.400000           0   0.00000       0.00000    
     46156 TIP3     3990     SWM4     OM       LPDW     -1.11466       0.00000          -1   0.00000       0.00000    
     46157 TIP3     3990     SWM4     H1       HDW      0.557330       1.00800           0   0.00000       0.00000    
     46158 TIP3     3990     SWM4     H2       HDW      0.557330       1.00800           0   0.00000       0.00000    
     46159 TIP3     3991     SWM4     OH2      ODW       1.71640       15.5994           0 -0.978253       1.30000    
     46160 TIP3     3991     SWM4     DOH2     DOH2     -1.71640      0.400000           0   0.00000       0.00000    
     46161 TIP3     3991     SWM4     OM       LPDW     -1.11466       0.00000          -1   0.00000       0.00000    
     46162 TIP3     3991     SWM4     H1       HDW      0.557330       1.00800           0   0.00000       0.00000    
     46163 TIP3     3991     SWM4     H2       HDW      0.557330       1.00800           0   0.00000       0.00000    
     46164 TIP3     3992     SWM4     OH2      ODW       1.71640       15.5994           0 -0.978253       1.30000    
     46165 TIP3     3992     SWM4     DOH2     DOH2     -1.71640      0.400000           0   0.00000       0.00000    
     46166 TIP3     3992     SWM4     OM       LPDW     -1.11466       0.00000          -1   0.00000       0.00000    
     46167 TIP3     3992     SWM4     H1       HDW      0.557330       1.00800           0   0.00000       0.00000    
     46168 TIP3     3992     SWM4     H2       HDW      0.557330       1.00800           0   0.00000       0.00000    
     46169 TIP3     3993     SWM4     OH2      ODW       1.71640       15.5994           0 -0.978253       1.30000    
     46170 TIP3     3993     SWM4     DOH2     DOH2     -1.71640      0.400000           0   0.00000       0.00000    
     46171 TIP3     3993     SWM4     OM       LPDW     -1.11466       0.00000          -1   0.00000       0.00000    
     46172 TIP3     3993     SWM4     H1       HDW      0.557330       1.00800           0   0.00000       0.00000    
     46173 TIP3     3993     SWM4     H2       HDW      0.557330       1.00800           0   0.00000       0.00000    
     46174 TIP3     3994     SWM4     OH2      ODW       1.71640       15.5994           0 -0.978253       1.30000    
     46175 TIP3     3994     SWM4     DOH2     DOH2     -1.71640      0.400000           0   0.00000       0.00000    
     46176 TIP3     3994     SWM4     OM       LPDW     -1.11466       0.00000          -1   0.00000       0.00000    
     46177 TIP3     3994     SWM4     H1       HDW      0.557330       1.00800           0   0.00000       0.00000    
     46178 TIP3     3994     SWM4     H2       HDW      0.557330       1.00800           0   0.00000       0.00000    
     46179 TIP3     3995     SWM4     OH2      ODW       1.71640       15.5994           0 -0.978253       1.30000    
     46180 TIP3     3995     SWM4     DOH2     DOH2     -1.71640      0.400000           0   0.00000       0.00000    
     46181 TIP3     3995     SWM4     OM       LPDW     -1.11466       0.00000          -1   0.00000       0.00000    
     46182 TIP3     3995     SWM4     H1       HDW      0.557330       1.00800           0   0.00000       0.00000    
     46183 TIP3     3995     SWM4     H2       HDW      0.557330       1.00800           0   0.00000       0.00000    
     46184 TIP3     3996     SWM4     OH2      ODW       1.71640       15.5994           0 -0.978253       1.30000    
     46185 TIP3     3996     SWM4     DOH2     DOH2     -1.71640      0.400000           0   0.00000       0.00000    
     46186 TIP3     3996     SWM4     OM       LPDW     -1.11466       0.00000          -1   0.00000       0.00000    
     46187 TIP3     3996     SWM4     H1       HDW      0.557330       1.00800           0   0.00000       0.00000    
     46188 TIP3     3996     SWM4     H2       HDW      0.557330       1.00800           0   0.00000       0.00000    
     46189 TIP3     3997     SWM4     OH2      ODW       1.71640       15.5994           0 -0.978253       1.30000    
     46190 TIP3     3997     SWM4     DOH2     DOH2     -1.71640      0.400000           0   0.00000       0.00000    
     46191 TIP3     3997     SWM4     OM       LPDW     -1.11466       0.00000          -1   0.00000       0.00000    
     46192 TIP3     3997     SWM4     H1       HDW      0.557330       1.00800           0   0.00000       0.00000    
     46193 TIP3     3997     SWM4     H2       HDW      0.557330       1.00800           0   0.00000       0.00000    
     46194 TIP3     3998     SWM4     OH2      ODW       1.71640       15.5994           0 -0.978253       1.30000    
     46195 TIP3     3998     SWM4     DOH2     DOH2     -1.71640      0.400000           0   0.00000       0.00000    
     46196 TIP3     3998     SWM4     OM       LPDW     -1.11466       0.00000          -1   0.00000       0.00000    
     46197 TIP3     3998     SWM4     H1       HDW      0.557330       1.00800           0   0.00000       0.00000    
     46198 TIP3     3998     SWM4     H2       HDW      0.557330       1.00800           0   0.00000       0.00000    
     46199 TIP3     3999     SWM4     OH2      ODW       1.71640       15.5994           0 -0.978253       1.30000    
     46200 TIP3     3999     SWM4     DOH2     DOH2     -1.71640      0.400000           0   0.00000       0.00000    
     46201 TIP3     3999     SWM4     OM       LPDW     -1.11466       0.00000          -1   0.00000       0.00000    
     46202 TIP3     3999     SWM4     H1       HDW      0.557330       1.00800           0   0.00000       0.00000    
     46203 TIP3     3999     SWM4     H2       HDW      0.557330       1.00800           0   0.00000       0.00000    
     46204 TIP3     4000     SWM4     OH2      ODW       1.71640       15.5994           0 -0.978253       1.30000    
     46205 TIP3     4000     SWM4     DOH2     DOH2     -1.71640      0.400000           0   0.00000       0.00000    
     46206 TIP3     4000     SWM4     OM       LPDW     -1.11466       0.00000          -1   0.00000       0.00000    
     46207 TIP3     4000     SWM4     H1       HDW      0.557330       1.00800           0   0.00000       0.00000    
     46208 TIP3     4000     SWM4     H2       HDW      0.557330       1.00800           0   0.00000       0.00000    
     46209 TIP3     4001     SWM4     OH2      ODW       1.71640       15.5994           0 -0.978253       1.30000    
     46210 TIP3     4001     SWM4     DOH2     DOH2     -1.71640      0.400000           0   0.00000       0.00000    
     46211 TIP3     4001     SWM4     OM       LPDW     -1.11466       0.00000          -1   0.00000       0.00000    
     46212 TIP3     4001     SWM4     H1       HDW      0.557330       1.00800           0   0.00000       0.00000    
     46213 TIP3     4001     SWM4     H2       HDW      0.557330       1.00800           0   0.00000       0.00000    
     46214 TIP3     4002     SWM4     OH2      ODW       1.71640       15.5994           0 -0.978253       1.30000    
     46215 TIP3     4002     SWM4     DOH2     DOH2     -1.71640      0.400000           0   0.00000       0.00000    
     46216 TIP3     4002     SWM4     OM       LPDW     -1.11466       0.00000          -1   0.00000       0.00000    
     46217 TIP3     4002     SWM4     H1       HDW      0.557330       1.00800           0   0.00000       0.00000    
     46218 TIP3     4002     SWM4     H2       HDW      0.557330       1.00800           0   0.00000       0.00000    
     46219 TIP3     4003     SWM4     OH2      ODW       1.71640       15.5994           0 -0.978253       1.30000    
     46220 TIP3     4003     SWM4     DOH2     DOH2     -1.71640      0.400000           0   0.00000       0.00000    
     46221 TIP3     4003     SWM4     OM       LPDW     -1.11466       0.00000          -1   0.00000       0.00000    
     46222 TIP3     4003     SWM4     H1       HDW      0.557330       1.00800           0   0.00000       0.00000    
     46223 TIP3     4003     SWM4     H2       HDW      0.557330       1.00800           0   0.00000       0.00000    
     46224 TIP3     4004     SWM4     OH2      ODW       1.71640       15.5994           0 -0.978253       1.30000    
     46225 TIP3     4004     SWM4     DOH2     DOH2     -1.71640      0.400000           0   0.00000       0.00000    
     46226 TIP3     4004     SWM4     OM       LPDW     -1.11466       0.00000          -1   0.00000       0.00000    
     46227 TIP3     4004     SWM4     H1       HDW      0.557330       1.00800           0   0.00000       0.00000    
     46228 TIP3     4004     SWM4     H2       HDW      0.557330       1.00800           0   0.00000       0.00000    
     46229 TIP3     4005     SWM4     OH2      ODW       1.71640       15.5994           0 -0.978253       1.30000    
     46230 TIP3     4005     SWM4     DOH2     DOH2     -1.71640      0.400000           0   0.00000       0.00000    
     46231 TIP3     4005     SWM4     OM       LPDW     -1.11466       0.00000          -1   0.00000       0.00000    
     46232 TIP3     4005     SWM4     H1       HDW      0.557330       1.00800           0   0.00000       0.00000    
     46233 TIP3     4005     SWM4     H2       HDW      0.557330       1.00800           0   0.00000       0.00000    
     46234 TIP3     4006     SWM4     OH2      ODW       1.71640       15.5994           0 -0.978253       1.30000    
     46235 TIP3     4006     SWM4     DOH2     DOH2     -1.71640      0.400000           0   0.00000       0.00000    
     46236 TIP3     4006     SWM4     OM       LPDW     -1.11466       0.00000          -1   0.00000       0.00000    
     46237 TIP3     4006     SWM4     H1       HDW      0.557330       1.00800           0   0.00000       0.00000    
     46238 TIP3     4006     SWM4     H2       HDW      0.557330       1.00800           0   0.00000       0.00000    
     46239 TIP3     4007     SWM4     OH2      ODW       1.71640       15.5994           0 -0.978253       1.30000    
     46240 TIP3     4007     SWM4     DOH2     DOH2     -1.71640      0.400000           0   0.00000       0.00000    
     46241 TIP3     4007     SWM4     OM       LPDW     -1.11466       0.00000          -1   0.00000       0.00000    
     46242 TIP3     4007     SWM4     H1       HDW      0.557330       1.00800           0   0.00000       0.00000    
     46243 TIP3     4007     SWM4     H2       HDW      0.557330       1.00800           0   0.00000       0.00000    
     46244 TIP3     4008     SWM4     OH2      ODW       1.71640       15.5994           0 -0.978253       1.30000    
     46245 TIP3     4008     SWM4     DOH2     DOH2     -1.71640      0.400000           0   0.00000       0.00000    
     46246 TIP3     4008     SWM4     OM       LPDW     -1.11466       0.00000          -1   0.00000       0.00000    
     46247 TIP3     4008     SWM4     H1       HDW      0.557330       1.00800           0   0.00000       0.00000    
     46248 TIP3     4008     SWM4     H2       HDW      0.557330       1.00800           0   0.00000       0.00000    
     46249 TIP3     4009     SWM4     OH2      ODW       1.71640       15.5994           0 -0.978253       1.30000    
     46250 TIP3     4009     SWM4     DOH2     DOH2     -1.71640      0.400000           0   0.00000       0.00000    
     46251 TIP3     4009     SWM4     OM       LPDW     -1.11466       0.00000          -1   0.00000       0.00000    
     46252 TIP3     4009     SWM4     H1       HDW      0.557330       1.00800           0   0.00000       0.00000    
     46253 TIP3     4009     SWM4     H2       HDW      0.557330       1.00800           0   0.00000       0.00000    
     46254 TIP3     4010     SWM4     OH2      ODW       1.71640       15.5994           0 -0.978253       1.30000    
     46255 TIP3     4010     SWM4     DOH2     DOH2     -1.71640      0.400000           0   0.00000       0.00000    
     46256 TIP3     4010     SWM4     OM       LPDW     -1.11466       0.00000          -1   0.00000       0.00000    
     46257 TIP3     4010     SWM4     H1       HDW      0.557330       1.00800           0   0.00000       0.00000    
     46258 TIP3     4010     SWM4     H2       HDW      0.557330       1.00800           0   0.00000       0.00000    
     46259 TIP3     4011     SWM4     OH2      ODW       1.71640       15.5994           0 -0.978253       1.30000    
     46260 TIP3     4011     SWM4     DOH2     DOH2     -1.71640      0.400000           0   0.00000       0.00000    
     46261 TIP3     4011     SWM4     OM       LPDW     -1.11466       0.00000          -1   0.00000       0.00000    
     46262 TIP3     4011     SWM4     H1       HDW      0.557330       1.00800           0   0.00000       0.00000    
     46263 TIP3     4011     SWM4     H2       HDW      0.557330       1.00800           0   0.00000       0.00000    
     46264 TIP3     4012     SWM4     OH2      ODW       1.71640       15.5994           0 -0.978253       1.30000    
     46265 TIP3     4012     SWM4     DOH2     DOH2     -1.71640      0.400000           0   0.00000       0.00000    
     46266 TIP3     4012     SWM4     OM       LPDW     -1.11466       0.00000          -1   0.00000       0.00000    
     46267 TIP3     4012     SWM4     H1       HDW      0.557330       1.00800           0   0.00000       0.00000    
     46268 TIP3     4012     SWM4     H2       HDW      0.557330       1.00800           0   0.00000       0.00000    
     46269 TIP3     4013     SWM4     OH2      ODW       1.71640       15.5994           0 -0.978253       1.30000    
     46270 TIP3     4013     SWM4     DOH2     DOH2     -1.71640      0.400000           0   0.00000       0.00000    
     46271 TIP3     4013     SWM4     OM       LPDW     -1.11466       0.00000          -1   0.00000       0.00000    
     46272 TIP3     4013     SWM4     H1       HDW      0.557330       1.00800           0   0.00000       0.00000    
     46273 TIP3     4013     SWM4     H2       HDW      0.557330       1.00800           0   0.00000       0.00000    
     46274 TIP3     4014     SWM4     OH2      ODW       1.71640       15.5994           0 -0.978253       1.30000    
     46275 TIP3     4014     SWM4     DOH2     DOH2     -1.71640      0.400000           0   0.00000       0.00000    
     46276 TIP3     4014     SWM4     OM       LPDW     -1.11466       0.00000          -1   0.00000       0.00000    
     46277 TIP3     4014     SWM4     H1       HDW      0.557330       1.00800           0   0.00000       0.00000    
     46278 TIP3     4014     SWM4     H2       HDW      0.557330       1.00800           0   0.00000       0.00000    
     46279 TIP3     4015     SWM4     OH2      ODW       1.71640       15.5994           0 -0.978253       1.30000    
     46280 TIP3     4015     SWM4     DOH2     DOH2     -1.71640      0.400000           0   0.00000       0.00000    
     46281 TIP3     4015     SWM4     OM       LPDW     -1.11466       0.00000          -1   0.00000       0.00000    
     46282 TIP3     4015     SWM4     H1       HDW      0.557330       1.00800           0   0.00000       0.00000    
     46283 TIP3     4015     SWM4     H2       HDW      0.557330       1.00800           0   0.00000       0.00000    
     46284 TIP3     4016     SWM4     OH2      ODW       1.71640       15.5994           0 -0.978253       1.30000    
     46285 TIP3     4016     SWM4     DOH2     DOH2     -1.71640      0.400000           0   0.00000       0.00000    
     46286 TIP3     4016     SWM4     OM       LPDW     -1.11466       0.00000          -1   0.00000       0.00000    
     46287 TIP3     4016     SWM4     H1       HDW      0.557330       1.00800           0   0.00000       0.00000    
     46288 TIP3     4016     SWM4     H2       HDW      0.557330       1.00800           0   0.00000       0.00000    
     46289 TIP3     4017     SWM4     OH2      ODW       1.71640       15.5994           0 -0.978253       1.30000    
     46290 TIP3     4017     SWM4     DOH2     DOH2     -1.71640      0.400000           0   0.00000       0.00000    
     46291 TIP3     4017     SWM4     OM       LPDW     -1.11466       0.00000          -1   0.00000       0.00000    
     46292 TIP3     4017     SWM4     H1       HDW      0.557330       1.00800           0   0.00000       0.00000    
     46293 TIP3     4017     SWM4     H2       HDW      0.557330       1.00800           0   0.00000       0.00000    
     46294 TIP3     4018     SWM4     OH2      ODW       1.71640       15.5994           0 -0.978253       1.30000    
     46295 TIP3     4018     SWM4     DOH2     DOH2     -1.71640      0.400000           0   0.00000       0.00000    
     46296 TIP3     4018     SWM4     OM       LPDW     -1.11466       0.00000          -1   0.00000       0.00000    
     46297 TIP3     4018     SWM4     H1       HDW      0.557330       1.00800           0   0.00000       0.00000    
     46298 TIP3     4018     SWM4     H2       HDW      0.557330       1.00800           0   0.00000       0.00000    
     46299 TIP3     4019     SWM4     OH2      ODW       1.71640       15.5994           0 -0.978253       1.30000    
     46300 TIP3     4019     SWM4     DOH2     DOH2     -1.71640      0.400000           0   0.00000       0.00000    
     46301 TIP3     4019     SWM4     OM       LPDW     -1.11466       0.00000          -1   0.00000       0.00000    
     46302 TIP3     4019     SWM4     H1       HDW      0.557330       1.00800           0   0.00000       0.00000    
     46303 TIP3     4019     SWM4     H2       HDW      0.557330       1.00800           0   0.00000       0.00000    
     46304 TIP3     4020     SWM4     OH2      ODW       1.71640       15.5994           0 -0.978253       1.30000    
     46305 TIP3     4020     SWM4     DOH2     DOH2     -1.71640      0.400000           0   0.00000       0.00000    
     46306 TIP3     4020     SWM4     OM       LPDW     -1.11466       0.00000          -1   0.00000       0.00000    
     46307 TIP3     4020     SWM4     H1       HDW      0.557330       1.00800           0   0.00000       0.00000    
     46308 TIP3     4020     SWM4     H2       HDW      0.557330       1.00800           0   0.00000       0.00000    
     46309 TIP3     4021     SWM4     OH2      ODW       1.71640       15.5994           0 -0.978253       1.30000    
     46310 TIP3     4021     SWM4     DOH2     DOH2     -1.71640      0.400000           0   0.00000       0.00000    
     46311 TIP3     4021     SWM4     OM       LPDW     -1.11466       0.00000          -1   0.00000       0.00000    
     46312 TIP3     4021     SWM4     H1       HDW      0.557330       1.00800           0   0.00000       0.00000    
     46313 TIP3     4021     SWM4     H2       HDW      0.557330       1.00800           0   0.00000       0.00000    
     46314 TIP3     4022     SWM4     OH2      ODW       1.71640       15.5994           0 -0.978253       1.30000    
     46315 TIP3     4022     SWM4     DOH2     DOH2     -1.71640      0.400000           0   0.00000       0.00000    
     46316 TIP3     4022     SWM4     OM       LPDW     -1.11466       0.00000          -1   0.00000       0.00000    
     46317 TIP3     4022     SWM4     H1       HDW      0.557330       1.00800           0   0.00000       0.00000    
     46318 TIP3     4022     SWM4     H2       HDW      0.557330       1.00800           0   0.00000       0.00000    
     46319 TIP3     4023     SWM4     OH2      ODW       1.71640       15.5994           0 -0.978253       1.30000    
     46320 TIP3     4023     SWM4     DOH2     DOH2     -1.71640      0.400000           0   0.00000       0.00000    
     46321 TIP3     4023     SWM4     OM       LPDW     -1.11466       0.00000          -1   0.00000       0.00000    
     46322 TIP3     4023     SWM4     H1       HDW      0.557330       1.00800           0   0.00000       0.00000    
     46323 TIP3     4023     SWM4     H2       HDW      0.557330       1.00800           0   0.00000       0.00000    
     46324 TIP3     4024     SWM4     OH2      ODW       1.71640       15.5994           0 -0.978253       1.30000    
     46325 TIP3     4024     SWM4     DOH2     DOH2     -1.71640      0.400000           0   0.00000       0.00000    
     46326 TIP3     4024     SWM4     OM       LPDW     -1.11466       0.00000          -1   0.00000       0.00000    
     46327 TIP3     4024     SWM4     H1       HDW      0.557330       1.00800           0   0.00000       0.00000    
     46328 TIP3     4024     SWM4     H2       HDW      0.557330       1.00800           0   0.00000       0.00000    
     46329 TIP3     4025     SWM4     OH2      ODW       1.71640       15.5994           0 -0.978253       1.30000    
     46330 TIP3     4025     SWM4     DOH2     DOH2     -1.71640      0.400000           0   0.00000       0.00000    
     46331 TIP3     4025     SWM4     OM       LPDW     -1.11466       0.00000          -1   0.00000       0.00000    
     46332 TIP3     4025     SWM4     H1       HDW      0.557330       1.00800           0   0.00000       0.00000    
     46333 TIP3     4025     SWM4     H2       HDW      0.557330       1.00800           0   0.00000       0.00000    
     46334 TIP3     4026     SWM4     OH2      ODW       1.71640       15.5994           0 -0.978253       1.30000    
     46335 TIP3     4026     SWM4     DOH2     DOH2     -1.71640      0.400000           0   0.00000       0.00000    
     46336 TIP3     4026     SWM4     OM       LPDW     -1.11466       0.00000          -1   0.00000       0.00000    
     46337 TIP3     4026     SWM4     H1       HDW      0.557330       1.00800           0   0.00000       0.00000    
     46338 TIP3     4026     SWM4     H2       HDW      0.557330       1.00800           0   0.00000       0.00000    
     46339 TIP3     4027     SWM4     OH2      ODW       1.71640       15.5994           0 -0.978253       1.30000    
     46340 TIP3     4027     SWM4     DOH2     DOH2     -1.71640      0.400000           0   0.00000       0.00000    
     46341 TIP3     4027     SWM4     OM       LPDW     -1.11466       0.00000          -1   0.00000       0.00000    
     46342 TIP3     4027     SWM4     H1       HDW      0.557330       1.00800           0   0.00000       0.00000    
     46343 TIP3     4027     SWM4     H2       HDW      0.557330       1.00800           0   0.00000       0.00000    
     46344 TIP3     4028     SWM4     OH2      ODW       1.71640       15.5994           0 -0.978253       1.30000    
     46345 TIP3     4028     SWM4     DOH2     DOH2     -1.71640      0.400000           0   0.00000       0.00000    
     46346 TIP3     4028     SWM4     OM       LPDW     -1.11466       0.00000          -1   0.00000       0.00000    
     46347 TIP3     4028     SWM4     H1       HDW      0.557330       1.00800           0   0.00000       0.00000    
     46348 TIP3     4028     SWM4     H2       HDW      0.557330       1.00800           0   0.00000       0.00000    
     46349 TIP3     4029     SWM4     OH2      ODW       1.71640       15.5994           0 -0.978253       1.30000    
     46350 TIP3     4029     SWM4     DOH2     DOH2     -1.71640      0.400000           0   0.00000       0.00000    
     46351 TIP3     4029     SWM4     OM       LPDW     -1.11466       0.00000          -1   0.00000       0.00000    
     46352 TIP3     4029     SWM4     H1       HDW      0.557330       1.00800           0   0.00000       0.00000    
     46353 TIP3     4029     SWM4     H2       HDW      0.557330       1.00800           0   0.00000       0.00000    
     46354 TIP3     4030     SWM4     OH2      ODW       1.71640       15.5994           0 -0.978253       1.30000    
     46355 TIP3     4030     SWM4     DOH2     DOH2     -1.71640      0.400000           0   0.00000       0.00000    
     46356 TIP3     4030     SWM4     OM       LPDW     -1.11466       0.00000          -1   0.00000       0.00000    
     46357 TIP3     4030     SWM4     H1       HDW      0.557330       1.00800           0   0.00000       0.00000    
     46358 TIP3     4030     SWM4     H2       HDW      0.557330       1.00800           0   0.00000       0.00000    
     46359 TIP3     4031     SWM4     OH2      ODW       1.71640       15.5994           0 -0.978253       1.30000    
     46360 TIP3     4031     SWM4     DOH2     DOH2     -1.71640      0.400000           0   0.00000       0.00000    
     46361 TIP3     4031     SWM4     OM       LPDW     -1.11466       0.00000          -1   0.00000       0.00000    
     46362 TIP3     4031     SWM4     H1       HDW      0.557330       1.00800           0   0.00000       0.00000    
     46363 TIP3     4031     SWM4     H2       HDW      0.557330       1.00800           0   0.00000       0.00000    
     46364 TIP3     4032     SWM4     OH2      ODW       1.71640       15.5994           0 -0.978253       1.30000    
     46365 TIP3     4032     SWM4     DOH2     DOH2     -1.71640      0.400000           0   0.00000       0.00000    
     46366 TIP3     4032     SWM4     OM       LPDW     -1.11466       0.00000          -1   0.00000       0.00000    
     46367 TIP3     4032     SWM4     H1       HDW      0.557330       1.00800           0   0.00000       0.00000    
     46368 TIP3     4032     SWM4     H2       HDW      0.557330       1.00800           0   0.00000       0.00000    
     46369 TIP3     4033     SWM4     OH2      ODW       1.71640       15.5994           0 -0.978253       1.30000    
     46370 TIP3     4033     SWM4     DOH2     DOH2     -1.71640      0.400000           0   0.00000       0.00000    
     46371 TIP3     4033     SWM4     OM       LPDW     -1.11466       0.00000          -1   0.00000       0.00000    
     46372 TIP3     4033     SWM4     H1       HDW      0.557330       1.00800           0   0.00000       0.00000    
     46373 TIP3     4033     SWM4     H2       HDW      0.557330       1.00800           0   0.00000       0.00000    
     46374 TIP3     4034     SWM4     OH2      ODW       1.71640       15.5994           0 -0.978253       1.30000    
     46375 TIP3     4034     SWM4     DOH2     DOH2     -1.71640      0.400000           0   0.00000       0.00000    
     46376 TIP3     4034     SWM4     OM       LPDW     -1.11466       0.00000          -1   0.00000       0.00000    
     46377 TIP3     4034     SWM4     H1       HDW      0.557330       1.00800           0   0.00000       0.00000    
     46378 TIP3     4034     SWM4     H2       HDW      0.557330       1.00800           0   0.00000       0.00000    
     46379 TIP3     4035     SWM4     OH2      ODW       1.71640       15.5994           0 -0.978253       1.30000    
     46380 TIP3     4035     SWM4     DOH2     DOH2     -1.71640      0.400000           0   0.00000       0.00000    
     46381 TIP3     4035     SWM4     OM       LPDW     -1.11466       0.00000          -1   0.00000       0.00000    
     46382 TIP3     4035     SWM4     H1       HDW      0.557330       1.00800           0   0.00000       0.00000    
     46383 TIP3     4035     SWM4     H2       HDW      0.557330       1.00800           0   0.00000       0.00000    
     46384 TIP3     4036     SWM4     OH2      ODW       1.71640       15.5994           0 -0.978253       1.30000    
     46385 TIP3     4036     SWM4     DOH2     DOH2     -1.71640      0.400000           0   0.00000       0.00000    
     46386 TIP3     4036     SWM4     OM       LPDW     -1.11466       0.00000          -1   0.00000       0.00000    
     46387 TIP3     4036     SWM4     H1       HDW      0.557330       1.00800           0   0.00000       0.00000    
     46388 TIP3     4036     SWM4     H2       HDW      0.557330       1.00800           0   0.00000       0.00000    
     46389 TIP3     4037     SWM4     OH2      ODW       1.71640       15.5994           0 -0.978253       1.30000    
     46390 TIP3     4037     SWM4     DOH2     DOH2     -1.71640      0.400000           0   0.00000       0.00000    
     46391 TIP3     4037     SWM4     OM       LPDW     -1.11466       0.00000          -1   0.00000       0.00000    
     46392 TIP3     4037     SWM4     H1       HDW      0.557330       1.00800           0   0.00000       0.00000    
     46393 TIP3     4037     SWM4     H2       HDW      0.557330       1.00800           0   0.00000       0.00000    
     46394 TIP3     4038     SWM4     OH2      ODW       1.71640       15.5994           0 -0.978253       1.30000    
     46395 TIP3     4038     SWM4     DOH2     DOH2     -1.71640      0.400000           0   0.00000       0.00000    
     46396 TIP3     4038     SWM4     OM       LPDW     -1.11466       0.00000          -1   0.00000       0.00000    
     46397 TIP3     4038     SWM4     H1       HDW      0.557330       1.00800           0   0.00000       0.00000    
     46398 TIP3     4038     SWM4     H2       HDW      0.557330       1.00800           0   0.00000       0.00000    
     46399 TIP3     4039     SWM4     OH2      ODW       1.71640       15.5994           0 -0.978253       1.30000    
     46400 TIP3     4039     SWM4     DOH2     DOH2     -1.71640      0.400000           0   0.00000       0.00000    
     46401 TIP3     4039     SWM4     OM       LPDW     -1.11466       0.00000          -1   0.00000       0.00000    
     46402 TIP3     4039     SWM4     H1       HDW      0.557330       1.00800           0   0.00000       0.00000    
     46403 TIP3     4039     SWM4     H2       HDW      0.557330       1.00800           0   0.00000       0.00000    
     46404 TIP3     4040     SWM4     OH2      ODW       1.71640       15.5994           0 -0.978253       1.30000    
     46405 TIP3     4040     SWM4     DOH2     DOH2     -1.71640      0.400000           0   0.00000       0.00000    
     46406 TIP3     4040     SWM4     OM       LPDW     -1.11466       0.00000          -1   0.00000       0.00000    
     46407 TIP3     4040     SWM4     H1       HDW      0.557330       1.00800           0   0.00000       0.00000    
     46408 TIP3     4040     SWM4     H2       HDW      0.557330       1.00800           0   0.00000       0.00000    
     46409 TIP3     4041     SWM4     OH2      ODW       1.71640       15.5994           0 -0.978253       1.30000    
     46410 TIP3     4041     SWM4     DOH2     DOH2     -1.71640      0.400000           0   0.00000       0.00000    
     46411 TIP3     4041     SWM4     OM       LPDW     -1.11466       0.00000          -1   0.00000       0.00000    
     46412 TIP3     4041     SWM4     H1       HDW      0.557330       1.00800           0   0.00000       0.00000    
     46413 TIP3     4041     SWM4     H2       HDW      0.557330       1.00800           0   0.00000       0.00000    
     46414 TIP3     4042     SWM4     OH2      ODW       1.71640       15.5994           0 -0.978253       1.30000    
     46415 TIP3     4042     SWM4     DOH2     DOH2     -1.71640      0.400000           0   0.00000       0.00000    
     46416 TIP3     4042     SWM4     OM       LPDW     -1.11466       0.00000          -1   0.00000       0.00000    
     46417 TIP3     4042     SWM4     H1       HDW      0.557330       1.00800           0   0.00000       0.00000    
     46418 TIP3     4042     SWM4     H2       HDW      0.557330       1.00800           0   0.00000       0.00000    
     46419 TIP3     4043     SWM4     OH2      ODW       1.71640       15.5994           0 -0.978253       1.30000    
     46420 TIP3     4043     SWM4     DOH2     DOH2     -1.71640      0.400000           0   0.00000       0.00000    
     46421 TIP3     4043     SWM4     OM       LPDW     -1.11466       0.00000          -1   0.00000       0.00000    
     46422 TIP3     4043     SWM4     H1       HDW      0.557330       1.00800           0   0.00000       0.00000    
     46423 TIP3     4043     SWM4     H2       HDW      0.557330       1.00800           0   0.00000       0.00000    
     46424 TIP3     4044     SWM4     OH2      ODW       1.71640       15.5994           0 -0.978253       1.30000    
     46425 TIP3     4044     SWM4     DOH2     DOH2     -1.71640      0.400000           0   0.00000       0.00000    
     46426 TIP3     4044     SWM4     OM       LPDW     -1.11466       0.00000          -1   0.00000       0.00000    
     46427 TIP3     4044     SWM4     H1       HDW      0.557330       1.00800           0   0.00000       0.00000    
     46428 TIP3     4044     SWM4     H2       HDW      0.557330       1.00800           0   0.00000       0.00000    
     46429 TIP3     4045     SWM4     OH2      ODW       1.71640       15.5994           0 -0.978253       1.30000    
     46430 TIP3     4045     SWM4     DOH2     DOH2     -1.71640      0.400000           0   0.00000       0.00000    
     46431 TIP3     4045     SWM4     OM       LPDW     -1.11466       0.00000          -1   0.00000       0.00000    
     46432 TIP3     4045     SWM4     H1       HDW      0.557330       1.00800           0   0.00000       0.00000    
     46433 TIP3     4045     SWM4     H2       HDW      0.557330       1.00800           0   0.00000       0.00000    
     46434 TIP3     4046     SWM4     OH2      ODW       1.71640       15.5994           0 -0.978253       1.30000    
     46435 TIP3     4046     SWM4     DOH2     DOH2     -1.71640      0.400000           0   0.00000       0.00000    
     46436 TIP3     4046     SWM4     OM       LPDW     -1.11466       0.00000          -1   0.00000       0.00000    
     46437 TIP3     4046     SWM4     H1       HDW      0.557330       1.00800           0   0.00000       0.00000    
     46438 TIP3     4046     SWM4     H2       HDW      0.557330       1.00800           0   0.00000       0.00000    
     46439 TIP3     4047     SWM4     OH2      ODW       1.71640       15.5994           0 -0.978253       1.30000    
     46440 TIP3     4047     SWM4     DOH2     DOH2     -1.71640      0.400000           0   0.00000       0.00000    
     46441 TIP3     4047     SWM4     OM       LPDW     -1.11466       0.00000          -1   0.00000       0.00000    
     46442 TIP3     4047     SWM4     H1       HDW      0.557330       1.00800           0   0.00000       0.00000    
     46443 TIP3     4047     SWM4     H2       HDW      0.557330       1.00800           0   0.00000       0.00000    
     46444 TIP3     4048     SWM4     OH2      ODW       1.71640       15.5994           0 -0.978253       1.30000    
     46445 TIP3     4048     SWM4     DOH2     DOH2     -1.71640      0.400000           0   0.00000       0.00000    
     46446 TIP3     4048     SWM4     OM       LPDW     -1.11466       0.00000          -1   0.00000       0.00000    
     46447 TIP3     4048     SWM4     H1       HDW      0.557330       1.00800           0   0.00000       0.00000    
     46448 TIP3     4048     SWM4     H2       HDW      0.557330       1.00800           0   0.00000       0.00000    
     46449 TIP3     4049     SWM4     OH2      ODW       1.71640       15.5994           0 -0.978253       1.30000    
     46450 TIP3     4049     SWM4     DOH2     DOH2     -1.71640      0.400000           0   0.00000       0.00000    
     46451 TIP3     4049     SWM4     OM       LPDW     -1.11466       0.00000          -1   0.00000       0.00000    
     46452 TIP3     4049     SWM4     H1       HDW      0.557330       1.00800           0   0.00000       0.00000    
     46453 TIP3     4049     SWM4     H2       HDW      0.557330       1.00800           0   0.00000       0.00000    
     46454 TIP3     4050     SWM4     OH2      ODW       1.71640       15.5994           0 -0.978253       1.30000    
     46455 TIP3     4050     SWM4     DOH2     DOH2     -1.71640      0.400000           0   0.00000       0.00000    
     46456 TIP3     4050     SWM4     OM       LPDW     -1.11466       0.00000          -1   0.00000       0.00000    
     46457 TIP3     4050     SWM4     H1       HDW      0.557330       1.00800           0   0.00000       0.00000    
     46458 TIP3     4050     SWM4     H2       HDW      0.557330       1.00800           0   0.00000       0.00000    
     46459 TIP3     4051     SWM4     OH2      ODW       1.71640       15.5994           0 -0.978253       1.30000    
     46460 TIP3     4051     SWM4     DOH2     DOH2     -1.71640      0.400000           0   0.00000       0.00000    
     46461 TIP3     4051     SWM4     OM       LPDW     -1.11466       0.00000          -1   0.00000       0.00000    
     46462 TIP3     4051     SWM4     H1       HDW      0.557330       1.00800           0   0.00000       0.00000    
     46463 TIP3     4051     SWM4     H2       HDW      0.557330       1.00800           0   0.00000       0.00000    
     46464 TIP3     4052     SWM4     OH2      ODW       1.71640       15.5994           0 -0.978253       1.30000    
     46465 TIP3     4052     SWM4     DOH2     DOH2     -1.71640      0.400000           0   0.00000       0.00000    
     46466 TIP3     4052     SWM4     OM       LPDW     -1.11466       0.00000          -1   0.00000       0.00000    
     46467 TIP3     4052     SWM4     H1       HDW      0.557330       1.00800           0   0.00000       0.00000    
     46468 TIP3     4052     SWM4     H2       HDW      0.557330       1.00800           0   0.00000       0.00000    
     46469 TIP3     4053     SWM4     OH2      ODW       1.71640       15.5994           0 -0.978253       1.30000    
     46470 TIP3     4053     SWM4     DOH2     DOH2     -1.71640      0.400000           0   0.00000       0.00000    
     46471 TIP3     4053     SWM4     OM       LPDW     -1.11466       0.00000          -1   0.00000       0.00000    
     46472 TIP3     4053     SWM4     H1       HDW      0.557330       1.00800           0   0.00000       0.00000    
     46473 TIP3     4053     SWM4     H2       HDW      0.557330       1.00800           0   0.00000       0.00000    
     46474 TIP3     4054     SWM4     OH2      ODW       1.71640       15.5994           0 -0.978253       1.30000    
     46475 TIP3     4054     SWM4     DOH2     DOH2     -1.71640      0.400000           0   0.00000       0.00000    
     46476 TIP3     4054     SWM4     OM       LPDW     -1.11466       0.00000          -1   0.00000       0.00000    
     46477 TIP3     4054     SWM4     H1       HDW      0.557330       1.00800           0   0.00000       0.00000    
     46478 TIP3     4054     SWM4     H2       HDW      0.557330       1.00800           0   0.00000       0.00000    
     46479 TIP3     4055     SWM4     OH2      ODW       1.71640       15.5994           0 -0.978253       1.30000    
     46480 TIP3     4055     SWM4     DOH2     DOH2     -1.71640      0.400000           0   0.00000       0.00000    
     46481 TIP3     4055     SWM4     OM       LPDW     -1.11466       0.00000          -1   0.00000       0.00000    
     46482 TIP3     4055     SWM4     H1       HDW      0.557330       1.00800           0   0.00000       0.00000    
     46483 TIP3     4055     SWM4     H2       HDW      0.557330       1.00800           0   0.00000       0.00000    
     46484 TIP3     4056     SWM4     OH2      ODW       1.71640       15.5994           0 -0.978253       1.30000    
     46485 TIP3     4056     SWM4     DOH2     DOH2     -1.71640      0.400000           0   0.00000       0.00000    
     46486 TIP3     4056     SWM4     OM       LPDW     -1.11466       0.00000          -1   0.00000       0.00000    
     46487 TIP3     4056     SWM4     H1       HDW      0.557330       1.00800           0   0.00000       0.00000    
     46488 TIP3     4056     SWM4     H2       HDW      0.557330       1.00800           0   0.00000       0.00000    
     46489 TIP3     4057     SWM4     OH2      ODW       1.71640       15.5994           0 -0.978253       1.30000    
     46490 TIP3     4057     SWM4     DOH2     DOH2     -1.71640      0.400000           0   0.00000       0.00000    
     46491 TIP3     4057     SWM4     OM       LPDW     -1.11466       0.00000          -1   0.00000       0.00000    
     46492 TIP3     4057     SWM4     H1       HDW      0.557330       1.00800           0   0.00000       0.00000    
     46493 TIP3     4057     SWM4     H2       HDW      0.557330       1.00800           0   0.00000       0.00000    
     46494 TIP3     4058     SWM4     OH2      ODW       1.71640       15.5994           0 -0.978253       1.30000    
     46495 TIP3     4058     SWM4     DOH2     DOH2     -1.71640      0.400000           0   0.00000       0.00000    
     46496 TIP3     4058     SWM4     OM       LPDW     -1.11466       0.00000          -1   0.00000       0.00000    
     46497 TIP3     4058     SWM4     H1       HDW      0.557330       1.00800           0   0.00000       0.00000    
     46498 TIP3     4058     SWM4     H2       HDW      0.557330       1.00800           0   0.00000       0.00000    
     46499 TIP3     4059     SWM4     OH2      ODW       1.71640       15.5994           0 -0.978253       1.30000    
     46500 TIP3     4059     SWM4     DOH2     DOH2     -1.71640      0.400000           0   0.00000       0.00000    
     46501 TIP3     4059     SWM4     OM       LPDW     -1.11466       0.00000          -1   0.00000       0.00000    
     46502 TIP3     4059     SWM4     H1       HDW      0.557330       1.00800           0   0.00000       0.00000    
     46503 TIP3     4059     SWM4     H2       HDW      0.557330       1.00800           0   0.00000       0.00000    
     46504 TIP3     4060     SWM4     OH2      ODW       1.71640       15.5994           0 -0.978253       1.30000    
     46505 TIP3     4060     SWM4     DOH2     DOH2     -1.71640      0.400000           0   0.00000       0.00000    
     46506 TIP3     4060     SWM4     OM       LPDW     -1.11466       0.00000          -1   0.00000       0.00000    
     46507 TIP3     4060     SWM4     H1       HDW      0.557330       1.00800           0   0.00000       0.00000    
     46508 TIP3     4060     SWM4     H2       HDW      0.557330       1.00800           0   0.00000       0.00000    
     46509 TIP3     4061     SWM4     OH2      ODW       1.71640       15.5994           0 -0.978253       1.30000    
     46510 TIP3     4061     SWM4     DOH2     DOH2     -1.71640      0.400000           0   0.00000       0.00000    
     46511 TIP3     4061     SWM4     OM       LPDW     -1.11466       0.00000          -1   0.00000       0.00000    
     46512 TIP3     4061     SWM4     H1       HDW      0.557330       1.00800           0   0.00000       0.00000    
     46513 TIP3     4061     SWM4     H2       HDW      0.557330       1.00800           0   0.00000       0.00000    
     46514 TIP3     4062     SWM4     OH2      ODW       1.71640       15.5994           0 -0.978253       1.30000    
     46515 TIP3     4062     SWM4     DOH2     DOH2     -1.71640      0.400000           0   0.00000       0.00000    
     46516 TIP3     4062     SWM4     OM       LPDW     -1.11466       0.00000          -1   0.00000       0.00000    
     46517 TIP3     4062     SWM4     H1       HDW      0.557330       1.00800           0   0.00000       0.00000    
     46518 TIP3     4062     SWM4     H2       HDW      0.557330       1.00800           0   0.00000       0.00000    
     46519 TIP3     4063     SWM4     OH2      ODW       1.71640       15.5994           0 -0.978253       1.30000    
     46520 TIP3     4063     SWM4     DOH2     DOH2     -1.71640      0.400000           0   0.00000       0.00000    
     46521 TIP3     4063     SWM4     OM       LPDW     -1.11466       0.00000          -1   0.00000       0.00000    
     46522 TIP3     4063     SWM4     H1       HDW      0.557330       1.00800           0   0.00000       0.00000    
     46523 TIP3     4063     SWM4     H2       HDW      0.557330       1.00800           0   0.00000       0.00000    
     46524 TIP3     4064     SWM4     OH2      ODW       1.71640       15.5994           0 -0.978253       1.30000    
     46525 TIP3     4064     SWM4     DOH2     DOH2     -1.71640      0.400000           0   0.00000       0.00000    
     46526 TIP3     4064     SWM4     OM       LPDW     -1.11466       0.00000          -1   0.00000       0.00000    
     46527 TIP3     4064     SWM4     H1       HDW      0.557330       1.00800           0   0.00000       0.00000    
     46528 TIP3     4064     SWM4     H2       HDW      0.557330       1.00800           0   0.00000       0.00000    
     46529 TIP3     4065     SWM4     OH2      ODW       1.71640       15.5994           0 -0.978253       1.30000    
     46530 TIP3     4065     SWM4     DOH2     DOH2     -1.71640      0.400000           0   0.00000       0.00000    
     46531 TIP3     4065     SWM4     OM       LPDW     -1.11466       0.00000          -1   0.00000       0.00000    
     46532 TIP3     4065     SWM4     H1       HDW      0.557330       1.00800           0   0.00000       0.00000    
     46533 TIP3     4065     SWM4     H2       HDW      0.557330       1.00800           0   0.00000       0.00000    
     46534 TIP3     4066     SWM4     OH2      ODW       1.71640       15.5994           0 -0.978253       1.30000    
     46535 TIP3     4066     SWM4     DOH2     DOH2     -1.71640      0.400000           0   0.00000       0.00000    
     46536 TIP3     4066     SWM4     OM       LPDW     -1.11466       0.00000          -1   0.00000       0.00000    
     46537 TIP3     4066     SWM4     H1       HDW      0.557330       1.00800           0   0.00000       0.00000    
     46538 TIP3     4066     SWM4     H2       HDW      0.557330       1.00800           0   0.00000       0.00000    
     46539 TIP3     4067     SWM4     OH2      ODW       1.71640       15.5994           0 -0.978253       1.30000    
     46540 TIP3     4067     SWM4     DOH2     DOH2     -1.71640      0.400000           0   0.00000       0.00000    
     46541 TIP3     4067     SWM4     OM       LPDW     -1.11466       0.00000          -1   0.00000       0.00000    
     46542 TIP3     4067     SWM4     H1       HDW      0.557330       1.00800           0   0.00000       0.00000    
     46543 TIP3     4067     SWM4     H2       HDW      0.557330       1.00800           0   0.00000       0.00000    
     46544 TIP3     4068     SWM4     OH2      ODW       1.71640       15.5994           0 -0.978253       1.30000    
     46545 TIP3     4068     SWM4     DOH2     DOH2     -1.71640      0.400000           0   0.00000       0.00000    
     46546 TIP3     4068     SWM4     OM       LPDW     -1.11466       0.00000          -1   0.00000       0.00000    
     46547 TIP3     4068     SWM4     H1       HDW      0.557330       1.00800           0   0.00000       0.00000    
     46548 TIP3     4068     SWM4     H2       HDW      0.557330       1.00800           0   0.00000       0.00000    
     46549 TIP3     4069     SWM4     OH2      ODW       1.71640       15.5994           0 -0.978253       1.30000    
     46550 TIP3     4069     SWM4     DOH2     DOH2     -1.71640      0.400000           0   0.00000       0.00000    
     46551 TIP3     4069     SWM4     OM       LPDW     -1.11466       0.00000          -1   0.00000       0.00000    
     46552 TIP3     4069     SWM4     H1       HDW      0.557330       1.00800           0   0.00000       0.00000    
     46553 TIP3     4069     SWM4     H2       HDW      0.557330       1.00800           0   0.00000       0.00000    
     46554 TIP3     4070     SWM4     OH2      ODW       1.71640       15.5994           0 -0.978253       1.30000    
     46555 TIP3     4070     SWM4     DOH2     DOH2     -1.71640      0.400000           0   0.00000       0.00000    
     46556 TIP3     4070     SWM4     OM       LPDW     -1.11466       0.00000          -1   0.00000       0.00000    
     46557 TIP3     4070     SWM4     H1       HDW      0.557330       1.00800           0   0.00000       0.00000    
     46558 TIP3     4070     SWM4     H2       HDW      0.557330       1.00800           0   0.00000       0.00000    
     46559 TIP3     4071     SWM4     OH2      ODW       1.71640       15.5994           0 -0.978253       1.30000    
     46560 TIP3     4071     SWM4     DOH2     DOH2     -1.71640      0.400000           0   0.00000       0.00000    
     46561 TIP3     4071     SWM4     OM       LPDW     -1.11466       0.00000          -1   0.00000       0.00000    
     46562 TIP3     4071     SWM4     H1       HDW      0.557330       1.00800           0   0.00000       0.00000    
     46563 TIP3     4071     SWM4     H2       HDW      0.557330       1.00800           0   0.00000       0.00000    
     46564 TIP3     4072     SWM4     OH2      ODW       1.71640       15.5994           0 -0.978253       1.30000    
     46565 TIP3     4072     SWM4     DOH2     DOH2     -1.71640      0.400000           0   0.00000       0.00000    
     46566 TIP3     4072     SWM4     OM       LPDW     -1.11466       0.00000          -1   0.00000       0.00000    
     46567 TIP3     4072     SWM4     H1       HDW      0.557330       1.00800           0   0.00000       0.00000    
     46568 TIP3     4072     SWM4     H2       HDW      0.557330       1.00800           0   0.00000       0.00000    
     46569 TIP3     4073     SWM4     OH2      ODW       1.71640       15.5994           0 -0.978253       1.30000    
     46570 TIP3     4073     SWM4     DOH2     DOH2     -1.71640      0.400000           0   0.00000       0.00000    
     46571 TIP3     4073     SWM4     OM       LPDW     -1.11466       0.00000          -1   0.00000       0.00000    
     46572 TIP3     4073     SWM4     H1       HDW      0.557330       1.00800           0   0.00000       0.00000    
     46573 TIP3     4073     SWM4     H2       HDW      0.557330       1.00800           0   0.00000       0.00000    
     46574 TIP3     4074     SWM4     OH2      ODW       1.71640       15.5994           0 -0.978253       1.30000    
     46575 TIP3     4074     SWM4     DOH2     DOH2     -1.71640      0.400000           0   0.00000       0.00000    
     46576 TIP3     4074     SWM4     OM       LPDW     -1.11466       0.00000          -1   0.00000       0.00000    
     46577 TIP3     4074     SWM4     H1       HDW      0.557330       1.00800           0   0.00000       0.00000    
     46578 TIP3     4074     SWM4     H2       HDW      0.557330       1.00800           0   0.00000       0.00000    
     46579 TIP3     4075     SWM4     OH2      ODW       1.71640       15.5994           0 -0.978253       1.30000    
     46580 TIP3     4075     SWM4     DOH2     DOH2     -1.71640      0.400000           0   0.00000       0.00000    
     46581 TIP3     4075     SWM4     OM       LPDW     -1.11466       0.00000          -1   0.00000       0.00000    
     46582 TIP3     4075     SWM4     H1       HDW      0.557330       1.00800           0   0.00000       0.00000    
     46583 TIP3     4075     SWM4     H2       HDW      0.557330       1.00800           0   0.00000       0.00000    
     46584 TIP3     4076     SWM4     OH2      ODW       1.71640       15.5994           0 -0.978253       1.30000    
     46585 TIP3     4076     SWM4     DOH2     DOH2     -1.71640      0.400000           0   0.00000       0.00000    
     46586 TIP3     4076     SWM4     OM       LPDW     -1.11466       0.00000          -1   0.00000       0.00000    
     46587 TIP3     4076     SWM4     H1       HDW      0.557330       1.00800           0   0.00000       0.00000    
     46588 TIP3     4076     SWM4     H2       HDW      0.557330       1.00800           0   0.00000       0.00000    
     46589 TIP3     4077     SWM4     OH2      ODW       1.71640       15.5994           0 -0.978253       1.30000    
     46590 TIP3     4077     SWM4     DOH2     DOH2     -1.71640      0.400000           0   0.00000       0.00000    
     46591 TIP3     4077     SWM4     OM       LPDW     -1.11466       0.00000          -1   0.00000       0.00000    
     46592 TIP3     4077     SWM4     H1       HDW      0.557330       1.00800           0   0.00000       0.00000    
     46593 TIP3     4077     SWM4     H2       HDW      0.557330       1.00800           0   0.00000       0.00000    
     46594 TIP3     4078     SWM4     OH2      ODW       1.71640       15.5994           0 -0.978253       1.30000    
     46595 TIP3     4078     SWM4     DOH2     DOH2     -1.71640      0.400000           0   0.00000       0.00000    
     46596 TIP3     4078     SWM4     OM       LPDW     -1.11466       0.00000          -1   0.00000       0.00000    
     46597 TIP3     4078     SWM4     H1       HDW      0.557330       1.00800           0   0.00000       0.00000    
     46598 TIP3     4078     SWM4     H2       HDW      0.557330       1.00800           0   0.00000       0.00000    
     46599 TIP3     4079     SWM4     OH2      ODW       1.71640       15.5994           0 -0.978253       1.30000    
     46600 TIP3     4079     SWM4     DOH2     DOH2     -1.71640      0.400000           0   0.00000       0.00000    
     46601 TIP3     4079     SWM4     OM       LPDW     -1.11466       0.00000          -1   0.00000       0.00000    
     46602 TIP3     4079     SWM4     H1       HDW      0.557330       1.00800           0   0.00000       0.00000    
     46603 TIP3     4079     SWM4     H2       HDW      0.557330       1.00800           0   0.00000       0.00000    
     46604 TIP3     4080     SWM4     OH2      ODW       1.71640       15.5994           0 -0.978253       1.30000    
     46605 TIP3     4080     SWM4     DOH2     DOH2     -1.71640      0.400000           0   0.00000       0.00000    
     46606 TIP3     4080     SWM4     OM       LPDW     -1.11466       0.00000          -1   0.00000       0.00000    
     46607 TIP3     4080     SWM4     H1       HDW      0.557330       1.00800           0   0.00000       0.00000    
     46608 TIP3     4080     SWM4     H2       HDW      0.557330       1.00800           0   0.00000       0.00000    
     46609 TIP3     4081     SWM4     OH2      ODW       1.71640       15.5994           0 -0.978253       1.30000    
     46610 TIP3     4081     SWM4     DOH2     DOH2     -1.71640      0.400000           0   0.00000       0.00000    
     46611 TIP3     4081     SWM4     OM       LPDW     -1.11466       0.00000          -1   0.00000       0.00000    
     46612 TIP3     4081     SWM4     H1       HDW      0.557330       1.00800           0   0.00000       0.00000    
     46613 TIP3     4081     SWM4     H2       HDW      0.557330       1.00800           0   0.00000       0.00000    
     46614 TIP3     4082     SWM4     OH2      ODW       1.71640       15.5994           0 -0.978253       1.30000    
     46615 TIP3     4082     SWM4     DOH2     DOH2     -1.71640      0.400000           0   0.00000       0.00000    
     46616 TIP3     4082     SWM4     OM       LPDW     -1.11466       0.00000          -1   0.00000       0.00000    
     46617 TIP3     4082     SWM4     H1       HDW      0.557330       1.00800           0   0.00000       0.00000    
     46618 TIP3     4082     SWM4     H2       HDW      0.557330       1.00800           0   0.00000       0.00000    
     46619 TIP3     4083     SWM4     OH2      ODW       1.71640       15.5994           0 -0.978253       1.30000    
     46620 TIP3     4083     SWM4     DOH2     DOH2     -1.71640      0.400000           0   0.00000       0.00000    
     46621 TIP3     4083     SWM4     OM       LPDW     -1.11466       0.00000          -1   0.00000       0.00000    
     46622 TIP3     4083     SWM4     H1       HDW      0.557330       1.00800           0   0.00000       0.00000    
     46623 TIP3     4083     SWM4     H2       HDW      0.557330       1.00800           0   0.00000       0.00000    
     46624 TIP3     4084     SWM4     OH2      ODW       1.71640       15.5994           0 -0.978253       1.30000    
     46625 TIP3     4084     SWM4     DOH2     DOH2     -1.71640      0.400000           0   0.00000       0.00000    
     46626 TIP3     4084     SWM4     OM       LPDW     -1.11466       0.00000          -1   0.00000       0.00000    
     46627 TIP3     4084     SWM4     H1       HDW      0.557330       1.00800           0   0.00000       0.00000    
     46628 TIP3     4084     SWM4     H2       HDW      0.557330       1.00800           0   0.00000       0.00000    
     46629 TIP3     4085     SWM4     OH2      ODW       1.71640       15.5994           0 -0.978253       1.30000    
     46630 TIP3     4085     SWM4     DOH2     DOH2     -1.71640      0.400000           0   0.00000       0.00000    
     46631 TIP3     4085     SWM4     OM       LPDW     -1.11466       0.00000          -1   0.00000       0.00000    
     46632 TIP3     4085     SWM4     H1       HDW      0.557330       1.00800           0   0.00000       0.00000    
     46633 TIP3     4085     SWM4     H2       HDW      0.557330       1.00800           0   0.00000       0.00000    
     46634 TIP3     4086     SWM4     OH2      ODW       1.71640       15.5994           0 -0.978253       1.30000    
     46635 TIP3     4086     SWM4     DOH2     DOH2     -1.71640      0.400000           0   0.00000       0.00000    
     46636 TIP3     4086     SWM4     OM       LPDW     -1.11466       0.00000          -1   0.00000       0.00000    
     46637 TIP3     4086     SWM4     H1       HDW      0.557330       1.00800           0   0.00000       0.00000    
     46638 TIP3     4086     SWM4     H2       HDW      0.557330       1.00800           0   0.00000       0.00000    
     46639 TIP3     4087     SWM4     OH2      ODW       1.71640       15.5994           0 -0.978253       1.30000    
     46640 TIP3     4087     SWM4     DOH2     DOH2     -1.71640      0.400000           0   0.00000       0.00000    
     46641 TIP3     4087     SWM4     OM       LPDW     -1.11466       0.00000          -1   0.00000       0.00000    
     46642 TIP3     4087     SWM4     H1       HDW      0.557330       1.00800           0   0.00000       0.00000    
     46643 TIP3     4087     SWM4     H2       HDW      0.557330       1.00800           0   0.00000       0.00000    
     46644 TIP3     4088     SWM4     OH2      ODW       1.71640       15.5994           0 -0.978253       1.30000    
     46645 TIP3     4088     SWM4     DOH2     DOH2     -1.71640      0.400000           0   0.00000       0.00000    
     46646 TIP3     4088     SWM4     OM       LPDW     -1.11466       0.00000          -1   0.00000       0.00000    
     46647 TIP3     4088     SWM4     H1       HDW      0.557330       1.00800           0   0.00000       0.00000    
     46648 TIP3     4088     SWM4     H2       HDW      0.557330       1.00800           0   0.00000       0.00000    
     46649 TIP3     4089     SWM4     OH2      ODW       1.71640       15.5994           0 -0.978253       1.30000    
     46650 TIP3     4089     SWM4     DOH2     DOH2     -1.71640      0.400000           0   0.00000       0.00000    
     46651 TIP3     4089     SWM4     OM       LPDW     -1.11466       0.00000          -1   0.00000       0.00000    
     46652 TIP3     4089     SWM4     H1       HDW      0.557330       1.00800           0   0.00000       0.00000    
     46653 TIP3     4089     SWM4     H2       HDW      0.557330       1.00800           0   0.00000       0.00000    
     46654 TIP3     4090     SWM4     OH2      ODW       1.71640       15.5994           0 -0.978253       1.30000    
     46655 TIP3     4090     SWM4     DOH2     DOH2     -1.71640      0.400000           0   0.00000       0.00000    
     46656 TIP3     4090     SWM4     OM       LPDW     -1.11466       0.00000          -1   0.00000       0.00000    
     46657 TIP3     4090     SWM4     H1       HDW      0.557330       1.00800           0   0.00000       0.00000    
     46658 TIP3     4090     SWM4     H2       HDW      0.557330       1.00800           0   0.00000       0.00000    
     46659 TIP3     4091     SWM4     OH2      ODW       1.71640       15.5994           0 -0.978253       1.30000    
     46660 TIP3     4091     SWM4     DOH2     DOH2     -1.71640      0.400000           0   0.00000       0.00000    
     46661 TIP3     4091     SWM4     OM       LPDW     -1.11466       0.00000          -1   0.00000       0.00000    
     46662 TIP3     4091     SWM4     H1       HDW      0.557330       1.00800           0   0.00000       0.00000    
     46663 TIP3     4091     SWM4     H2       HDW      0.557330       1.00800           0   0.00000       0.00000    
     46664 TIP3     4092     SWM4     OH2      ODW       1.71640       15.5994           0 -0.978253       1.30000    
     46665 TIP3     4092     SWM4     DOH2     DOH2     -1.71640      0.400000           0   0.00000       0.00000    
     46666 TIP3     4092     SWM4     OM       LPDW     -1.11466       0.00000          -1   0.00000       0.00000    
     46667 TIP3     4092     SWM4     H1       HDW      0.557330       1.00800           0   0.00000       0.00000    
     46668 TIP3     4092     SWM4     H2       HDW      0.557330       1.00800           0   0.00000       0.00000    
     46669 TIP3     4093     SWM4     OH2      ODW       1.71640       15.5994           0 -0.978253       1.30000    
     46670 TIP3     4093     SWM4     DOH2     DOH2     -1.71640      0.400000           0   0.00000       0.00000    
     46671 TIP3     4093     SWM4     OM       LPDW     -1.11466       0.00000          -1   0.00000       0.00000    
     46672 TIP3     4093     SWM4     H1       HDW      0.557330       1.00800           0   0.00000       0.00000    
     46673 TIP3     4093     SWM4     H2       HDW      0.557330       1.00800           0   0.00000       0.00000    
     46674 TIP3     4094     SWM4     OH2      ODW       1.71640       15.5994           0 -0.978253       1.30000    
     46675 TIP3     4094     SWM4     DOH2     DOH2     -1.71640      0.400000           0   0.00000       0.00000    
     46676 TIP3     4094     SWM4     OM       LPDW     -1.11466       0.00000          -1   0.00000       0.00000    
     46677 TIP3     4094     SWM4     H1       HDW      0.557330       1.00800           0   0.00000       0.00000    
     46678 TIP3     4094     SWM4     H2       HDW      0.557330       1.00800           0   0.00000       0.00000    
     46679 TIP3     4095     SWM4     OH2      ODW       1.71640       15.5994           0 -0.978253       1.30000    
     46680 TIP3     4095     SWM4     DOH2     DOH2     -1.71640      0.400000           0   0.00000       0.00000    
     46681 TIP3     4095     SWM4     OM       LPDW     -1.11466       0.00000          -1   0.00000       0.00000    
     46682 TIP3     4095     SWM4     H1       HDW      0.557330       1.00800           0   0.00000       0.00000    
     46683 TIP3     4095     SWM4     H2       HDW      0.557330       1.00800           0   0.00000       0.00000    
     46684 TIP3     4096     SWM4     OH2      ODW       1.71640       15.5994           0 -0.978253       1.30000    
     46685 TIP3     4096     SWM4     DOH2     DOH2     -1.71640      0.400000           0   0.00000       0.00000    
     46686 TIP3     4096     SWM4     OM       LPDW     -1.11466       0.00000          -1   0.00000       0.00000    
     46687 TIP3     4096     SWM4     H1       HDW      0.557330       1.00800           0   0.00000       0.00000    
     46688 TIP3     4096     SWM4     H2       HDW      0.557330       1.00800           0   0.00000       0.00000    
     46689 TIP3     4097     SWM4     OH2      ODW       1.71640       15.5994           0 -0.978253       1.30000    
     46690 TIP3     4097     SWM4     DOH2     DOH2     -1.71640      0.400000           0   0.00000       0.00000    
     46691 TIP3     4097     SWM4     OM       LPDW     -1.11466       0.00000          -1   0.00000       0.00000    
     46692 TIP3     4097     SWM4     H1       HDW      0.557330       1.00800           0   0.00000       0.00000    
     46693 TIP3     4097     SWM4     H2       HDW      0.557330       1.00800           0   0.00000       0.00000    
     46694 TIP3     4098     SWM4     OH2      ODW       1.71640       15.5994           0 -0.978253       1.30000    
     46695 TIP3     4098     SWM4     DOH2     DOH2     -1.71640      0.400000           0   0.00000       0.00000    
     46696 TIP3     4098     SWM4     OM       LPDW     -1.11466       0.00000          -1   0.00000       0.00000    
     46697 TIP3     4098     SWM4     H1       HDW      0.557330       1.00800           0   0.00000       0.00000    
     46698 TIP3     4098     SWM4     H2       HDW      0.557330       1.00800           0   0.00000       0.00000    
     46699 TIP3     4099     SWM4     OH2      ODW       1.71640       15.5994           0 -0.978253       1.30000    
     46700 TIP3     4099     SWM4     DOH2     DOH2     -1.71640      0.400000           0   0.00000       0.00000    
     46701 TIP3     4099     SWM4     OM       LPDW     -1.11466       0.00000          -1   0.00000       0.00000    
     46702 TIP3     4099     SWM4     H1       HDW      0.557330       1.00800           0   0.00000       0.00000    
     46703 TIP3     4099     SWM4     H2       HDW      0.557330       1.00800           0   0.00000       0.00000    
     46704 TIP3     4100     SWM4     OH2      ODW       1.71640       15.5994           0 -0.978253       1.30000    
     46705 TIP3     4100     SWM4     DOH2     DOH2     -1.71640      0.400000           0   0.00000       0.00000    
     46706 TIP3     4100     SWM4     OM       LPDW     -1.11466       0.00000          -1   0.00000       0.00000    
     46707 TIP3     4100     SWM4     H1       HDW      0.557330       1.00800           0   0.00000       0.00000    
     46708 TIP3     4100     SWM4     H2       HDW      0.557330       1.00800           0   0.00000       0.00000    
     46709 TIP3     4101     SWM4     OH2      ODW       1.71640       15.5994           0 -0.978253       1.30000    
     46710 TIP3     4101     SWM4     DOH2     DOH2     -1.71640      0.400000           0   0.00000       0.00000    
     46711 TIP3     4101     SWM4     OM       LPDW     -1.11466       0.00000          -1   0.00000       0.00000    
     46712 TIP3     4101     SWM4     H1       HDW      0.557330       1.00800           0   0.00000       0.00000    
     46713 TIP3     4101     SWM4     H2       HDW      0.557330       1.00800           0   0.00000       0.00000    
     46714 TIP3     4102     SWM4     OH2      ODW       1.71640       15.5994           0 -0.978253       1.30000    
     46715 TIP3     4102     SWM4     DOH2     DOH2     -1.71640      0.400000           0   0.00000       0.00000    
     46716 TIP3     4102     SWM4     OM       LPDW     -1.11466       0.00000          -1   0.00000       0.00000    
     46717 TIP3     4102     SWM4     H1       HDW      0.557330       1.00800           0   0.00000       0.00000    
     46718 TIP3     4102     SWM4     H2       HDW      0.557330       1.00800           0   0.00000       0.00000    
     46719 TIP3     4103     SWM4     OH2      ODW       1.71640       15.5994           0 -0.978253       1.30000    
     46720 TIP3     4103     SWM4     DOH2     DOH2     -1.71640      0.400000           0   0.00000       0.00000    
     46721 TIP3     4103     SWM4     OM       LPDW     -1.11466       0.00000          -1   0.00000       0.00000    
     46722 TIP3     4103     SWM4     H1       HDW      0.557330       1.00800           0   0.00000       0.00000    
     46723 TIP3     4103     SWM4     H2       HDW      0.557330       1.00800           0   0.00000       0.00000    
     46724 TIP3     4104     SWM4     OH2      ODW       1.71640       15.5994           0 -0.978253       1.30000    
     46725 TIP3     4104     SWM4     DOH2     DOH2     -1.71640      0.400000           0   0.00000       0.00000    
     46726 TIP3     4104     SWM4     OM       LPDW     -1.11466       0.00000          -1   0.00000       0.00000    
     46727 TIP3     4104     SWM4     H1       HDW      0.557330       1.00800           0   0.00000       0.00000    
     46728 TIP3     4104     SWM4     H2       HDW      0.557330       1.00800           0   0.00000       0.00000    
     46729 TIP3     4105     SWM4     OH2      ODW       1.71640       15.5994           0 -0.978253       1.30000    
     46730 TIP3     4105     SWM4     DOH2     DOH2     -1.71640      0.400000           0   0.00000       0.00000    
     46731 TIP3     4105     SWM4     OM       LPDW     -1.11466       0.00000          -1   0.00000       0.00000    
     46732 TIP3     4105     SWM4     H1       HDW      0.557330       1.00800           0   0.00000       0.00000    
     46733 TIP3     4105     SWM4     H2       HDW      0.557330       1.00800           0   0.00000       0.00000    
     46734 TIP3     4106     SWM4     OH2      ODW       1.71640       15.5994           0 -0.978253       1.30000    
     46735 TIP3     4106     SWM4     DOH2     DOH2     -1.71640      0.400000           0   0.00000       0.00000    
     46736 TIP3     4106     SWM4     OM       LPDW     -1.11466       0.00000          -1   0.00000       0.00000    
     46737 TIP3     4106     SWM4     H1       HDW      0.557330       1.00800           0   0.00000       0.00000    
     46738 TIP3     4106     SWM4     H2       HDW      0.557330       1.00800           0   0.00000       0.00000    
     46739 TIP3     4107     SWM4     OH2      ODW       1.71640       15.5994           0 -0.978253       1.30000    
     46740 TIP3     4107     SWM4     DOH2     DOH2     -1.71640      0.400000           0   0.00000       0.00000    
     46741 TIP3     4107     SWM4     OM       LPDW     -1.11466       0.00000          -1   0.00000       0.00000    
     46742 TIP3     4107     SWM4     H1       HDW      0.557330       1.00800           0   0.00000       0.00000    
     46743 TIP3     4107     SWM4     H2       HDW      0.557330       1.00800           0   0.00000       0.00000    
     46744 TIP3     4108     SWM4     OH2      ODW       1.71640       15.5994           0 -0.978253       1.30000    
     46745 TIP3     4108     SWM4     DOH2     DOH2     -1.71640      0.400000           0   0.00000       0.00000    
     46746 TIP3     4108     SWM4     OM       LPDW     -1.11466       0.00000          -1   0.00000       0.00000    
     46747 TIP3     4108     SWM4     H1       HDW      0.557330       1.00800           0   0.00000       0.00000    
     46748 TIP3     4108     SWM4     H2       HDW      0.557330       1.00800           0   0.00000       0.00000    
     46749 TIP3     4109     SWM4     OH2      ODW       1.71640       15.5994           0 -0.978253       1.30000    
     46750 TIP3     4109     SWM4     DOH2     DOH2     -1.71640      0.400000           0   0.00000       0.00000    
     46751 TIP3     4109     SWM4     OM       LPDW     -1.11466       0.00000          -1   0.00000       0.00000    
     46752 TIP3     4109     SWM4     H1       HDW      0.557330       1.00800           0   0.00000       0.00000    
     46753 TIP3     4109     SWM4     H2       HDW      0.557330       1.00800           0   0.00000       0.00000    
     46754 TIP3     4110     SWM4     OH2      ODW       1.71640       15.5994           0 -0.978253       1.30000    
     46755 TIP3     4110     SWM4     DOH2     DOH2     -1.71640      0.400000           0   0.00000       0.00000    
     46756 TIP3     4110     SWM4     OM       LPDW     -1.11466       0.00000          -1   0.00000       0.00000    
     46757 TIP3     4110     SWM4     H1       HDW      0.557330       1.00800           0   0.00000       0.00000    
     46758 TIP3     4110     SWM4     H2       HDW      0.557330       1.00800           0   0.00000       0.00000    
     46759 TIP3     4111     SWM4     OH2      ODW       1.71640       15.5994           0 -0.978253       1.30000    
     46760 TIP3     4111     SWM4     DOH2     DOH2     -1.71640      0.400000           0   0.00000       0.00000    
     46761 TIP3     4111     SWM4     OM       LPDW     -1.11466       0.00000          -1   0.00000       0.00000    
     46762 TIP3     4111     SWM4     H1       HDW      0.557330       1.00800           0   0.00000       0.00000    
     46763 TIP3     4111     SWM4     H2       HDW      0.557330       1.00800           0   0.00000       0.00000    
     46764 TIP3     4112     SWM4     OH2      ODW       1.71640       15.5994           0 -0.978253       1.30000    
     46765 TIP3     4112     SWM4     DOH2     DOH2     -1.71640      0.400000           0   0.00000       0.00000    
     46766 TIP3     4112     SWM4     OM       LPDW     -1.11466       0.00000          -1   0.00000       0.00000    
     46767 TIP3     4112     SWM4     H1       HDW      0.557330       1.00800           0   0.00000       0.00000    
     46768 TIP3     4112     SWM4     H2       HDW      0.557330       1.00800           0   0.00000       0.00000    
     46769 TIP3     4113     SWM4     OH2      ODW       1.71640       15.5994           0 -0.978253       1.30000    
     46770 TIP3     4113     SWM4     DOH2     DOH2     -1.71640      0.400000           0   0.00000       0.00000    
     46771 TIP3     4113     SWM4     OM       LPDW     -1.11466       0.00000          -1   0.00000       0.00000    
     46772 TIP3     4113     SWM4     H1       HDW      0.557330       1.00800           0   0.00000       0.00000    
     46773 TIP3     4113     SWM4     H2       HDW      0.557330       1.00800           0   0.00000       0.00000    
     46774 TIP3     4114     SWM4     OH2      ODW       1.71640       15.5994           0 -0.978253       1.30000    
     46775 TIP3     4114     SWM4     DOH2     DOH2     -1.71640      0.400000           0   0.00000       0.00000    
     46776 TIP3     4114     SWM4     OM       LPDW     -1.11466       0.00000          -1   0.00000       0.00000    
     46777 TIP3     4114     SWM4     H1       HDW      0.557330       1.00800           0   0.00000       0.00000    
     46778 TIP3     4114     SWM4     H2       HDW      0.557330       1.00800           0   0.00000       0.00000    
     46779 TIP3     4115     SWM4     OH2      ODW       1.71640       15.5994           0 -0.978253       1.30000    
     46780 TIP3     4115     SWM4     DOH2     DOH2     -1.71640      0.400000           0   0.00000       0.00000    
     46781 TIP3     4115     SWM4     OM       LPDW     -1.11466       0.00000          -1   0.00000       0.00000    
     46782 TIP3     4115     SWM4     H1       HDW      0.557330       1.00800           0   0.00000       0.00000    
     46783 TIP3     4115     SWM4     H2       HDW      0.557330       1.00800           0   0.00000       0.00000    
     46784 TIP3     4116     SWM4     OH2      ODW       1.71640       15.5994           0 -0.978253       1.30000    
     46785 TIP3     4116     SWM4     DOH2     DOH2     -1.71640      0.400000           0   0.00000       0.00000    
     46786 TIP3     4116     SWM4     OM       LPDW     -1.11466       0.00000          -1   0.00000       0.00000    
     46787 TIP3     4116     SWM4     H1       HDW      0.557330       1.00800           0   0.00000       0.00000    
     46788 TIP3     4116     SWM4     H2       HDW      0.557330       1.00800           0   0.00000       0.00000    
     46789 TIP3     4117     SWM4     OH2      ODW       1.71640       15.5994           0 -0.978253       1.30000    
     46790 TIP3     4117     SWM4     DOH2     DOH2     -1.71640      0.400000           0   0.00000       0.00000    
     46791 TIP3     4117     SWM4     OM       LPDW     -1.11466       0.00000          -1   0.00000       0.00000    
     46792 TIP3     4117     SWM4     H1       HDW      0.557330       1.00800           0   0.00000       0.00000    
     46793 TIP3     4117     SWM4     H2       HDW      0.557330       1.00800           0   0.00000       0.00000    
     46794 TIP3     4118     SWM4     OH2      ODW       1.71640       15.5994           0 -0.978253       1.30000    
     46795 TIP3     4118     SWM4     DOH2     DOH2     -1.71640      0.400000           0   0.00000       0.00000    
     46796 TIP3     4118     SWM4     OM       LPDW     -1.11466       0.00000          -1   0.00000       0.00000    
     46797 TIP3     4118     SWM4     H1       HDW      0.557330       1.00800           0   0.00000       0.00000    
     46798 TIP3     4118     SWM4     H2       HDW      0.557330       1.00800           0   0.00000       0.00000    
     46799 TIP3     4119     SWM4     OH2      ODW       1.71640       15.5994           0 -0.978253       1.30000    
     46800 TIP3     4119     SWM4     DOH2     DOH2     -1.71640      0.400000           0   0.00000       0.00000    
     46801 TIP3     4119     SWM4     OM       LPDW     -1.11466       0.00000          -1   0.00000       0.00000    
     46802 TIP3     4119     SWM4     H1       HDW      0.557330       1.00800           0   0.00000       0.00000    
     46803 TIP3     4119     SWM4     H2       HDW      0.557330       1.00800           0   0.00000       0.00000    
     46804 TIP3     4120     SWM4     OH2      ODW       1.71640       15.5994           0 -0.978253       1.30000    
     46805 TIP3     4120     SWM4     DOH2     DOH2     -1.71640      0.400000           0   0.00000       0.00000    
     46806 TIP3     4120     SWM4     OM       LPDW     -1.11466       0.00000          -1   0.00000       0.00000    
     46807 TIP3     4120     SWM4     H1       HDW      0.557330       1.00800           0   0.00000       0.00000    
     46808 TIP3     4120     SWM4     H2       HDW      0.557330       1.00800           0   0.00000       0.00000    
     46809 TIP3     4121     SWM4     OH2      ODW       1.71640       15.5994           0 -0.978253       1.30000    
     46810 TIP3     4121     SWM4     DOH2     DOH2     -1.71640      0.400000           0   0.00000       0.00000    
     46811 TIP3     4121     SWM4     OM       LPDW     -1.11466       0.00000          -1   0.00000       0.00000    
     46812 TIP3     4121     SWM4     H1       HDW      0.557330       1.00800           0   0.00000       0.00000    
     46813 TIP3     4121     SWM4     H2       HDW      0.557330       1.00800           0   0.00000       0.00000    
     46814 TIP3     4122     SWM4     OH2      ODW       1.71640       15.5994           0 -0.978253       1.30000    
     46815 TIP3     4122     SWM4     DOH2     DOH2     -1.71640      0.400000           0   0.00000       0.00000    
     46816 TIP3     4122     SWM4     OM       LPDW     -1.11466       0.00000          -1   0.00000       0.00000    
     46817 TIP3     4122     SWM4     H1       HDW      0.557330       1.00800           0   0.00000       0.00000    
     46818 TIP3     4122     SWM4     H2       HDW      0.557330       1.00800           0   0.00000       0.00000    
     46819 TIP3     4123     SWM4     OH2      ODW       1.71640       15.5994           0 -0.978253       1.30000    
     46820 TIP3     4123     SWM4     DOH2     DOH2     -1.71640      0.400000           0   0.00000       0.00000    
     46821 TIP3     4123     SWM4     OM       LPDW     -1.11466       0.00000          -1   0.00000       0.00000    
     46822 TIP3     4123     SWM4     H1       HDW      0.557330       1.00800           0   0.00000       0.00000    
     46823 TIP3     4123     SWM4     H2       HDW      0.557330       1.00800           0   0.00000       0.00000    
     46824 TIP3     4124     SWM4     OH2      ODW       1.71640       15.5994           0 -0.978253       1.30000    
     46825 TIP3     4124     SWM4     DOH2     DOH2     -1.71640      0.400000           0   0.00000       0.00000    
     46826 TIP3     4124     SWM4     OM       LPDW     -1.11466       0.00000          -1   0.00000       0.00000    
     46827 TIP3     4124     SWM4     H1       HDW      0.557330       1.00800           0   0.00000       0.00000    
     46828 TIP3     4124     SWM4     H2       HDW      0.557330       1.00800           0   0.00000       0.00000    
     46829 TIP3     4125     SWM4     OH2      ODW       1.71640       15.5994           0 -0.978253       1.30000    
     46830 TIP3     4125     SWM4     DOH2     DOH2     -1.71640      0.400000           0   0.00000       0.00000    
     46831 TIP3     4125     SWM4     OM       LPDW     -1.11466       0.00000          -1   0.00000       0.00000    
     46832 TIP3     4125     SWM4     H1       HDW      0.557330       1.00800           0   0.00000       0.00000    
     46833 TIP3     4125     SWM4     H2       HDW      0.557330       1.00800           0   0.00000       0.00000    
     46834 TIP3     4126     SWM4     OH2      ODW       1.71640       15.5994           0 -0.978253       1.30000    
     46835 TIP3     4126     SWM4     DOH2     DOH2     -1.71640      0.400000           0   0.00000       0.00000    
     46836 TIP3     4126     SWM4     OM       LPDW     -1.11466       0.00000          -1   0.00000       0.00000    
     46837 TIP3     4126     SWM4     H1       HDW      0.557330       1.00800           0   0.00000       0.00000    
     46838 TIP3     4126     SWM4     H2       HDW      0.557330       1.00800           0   0.00000       0.00000    
     46839 TIP3     4127     SWM4     OH2      ODW       1.71640       15.5994           0 -0.978253       1.30000    
     46840 TIP3     4127     SWM4     DOH2     DOH2     -1.71640      0.400000           0   0.00000       0.00000    
     46841 TIP3     4127     SWM4     OM       LPDW     -1.11466       0.00000          -1   0.00000       0.00000    
     46842 TIP3     4127     SWM4     H1       HDW      0.557330       1.00800           0   0.00000       0.00000    
     46843 TIP3     4127     SWM4     H2       HDW      0.557330       1.00800           0   0.00000       0.00000    
     46844 TIP3     4128     SWM4     OH2      ODW       1.71640       15.5994           0 -0.978253       1.30000    
     46845 TIP3     4128     SWM4     DOH2     DOH2     -1.71640      0.400000           0   0.00000       0.00000    
     46846 TIP3     4128     SWM4     OM       LPDW     -1.11466       0.00000          -1   0.00000       0.00000    
     46847 TIP3     4128     SWM4     H1       HDW      0.557330       1.00800           0   0.00000       0.00000    
     46848 TIP3     4128     SWM4     H2       HDW      0.557330       1.00800           0   0.00000       0.00000    
     46849 TIP3     4129     SWM4     OH2      ODW       1.71640       15.5994           0 -0.978253       1.30000    
     46850 TIP3     4129     SWM4     DOH2     DOH2     -1.71640      0.400000           0   0.00000       0.00000    
     46851 TIP3     4129     SWM4     OM       LPDW     -1.11466       0.00000          -1   0.00000       0.00000    
     46852 TIP3     4129     SWM4     H1       HDW      0.557330       1.00800           0   0.00000       0.00000    
     46853 TIP3     4129     SWM4     H2       HDW      0.557330       1.00800           0   0.00000       0.00000    
     46854 TIP3     4130     SWM4     OH2      ODW       1.71640       15.5994           0 -0.978253       1.30000    
     46855 TIP3     4130     SWM4     DOH2     DOH2     -1.71640      0.400000           0   0.00000       0.00000    
     46856 TIP3     4130     SWM4     OM       LPDW     -1.11466       0.00000          -1   0.00000       0.00000    
     46857 TIP3     4130     SWM4     H1       HDW      0.557330       1.00800           0   0.00000       0.00000    
     46858 TIP3     4130     SWM4     H2       HDW      0.557330       1.00800           0   0.00000       0.00000    
     46859 TIP3     4131     SWM4     OH2      ODW       1.71640       15.5994           0 -0.978253       1.30000    
     46860 TIP3     4131     SWM4     DOH2     DOH2     -1.71640      0.400000           0   0.00000       0.00000    
     46861 TIP3     4131     SWM4     OM       LPDW     -1.11466       0.00000          -1   0.00000       0.00000    
     46862 TIP3     4131     SWM4     H1       HDW      0.557330       1.00800           0   0.00000       0.00000    
     46863 TIP3     4131     SWM4     H2       HDW      0.557330       1.00800           0   0.00000       0.00000    
     46864 TIP3     4132     SWM4     OH2      ODW       1.71640       15.5994           0 -0.978253       1.30000    
     46865 TIP3     4132     SWM4     DOH2     DOH2     -1.71640      0.400000           0   0.00000       0.00000    
     46866 TIP3     4132     SWM4     OM       LPDW     -1.11466       0.00000          -1   0.00000       0.00000    
     46867 TIP3     4132     SWM4     H1       HDW      0.557330       1.00800           0   0.00000       0.00000    
     46868 TIP3     4132     SWM4     H2       HDW      0.557330       1.00800           0   0.00000       0.00000    
     46869 TIP3     4133     SWM4     OH2      ODW       1.71640       15.5994           0 -0.978253       1.30000    
     46870 TIP3     4133     SWM4     DOH2     DOH2     -1.71640      0.400000           0   0.00000       0.00000    
     46871 TIP3     4133     SWM4     OM       LPDW     -1.11466       0.00000          -1   0.00000       0.00000    
     46872 TIP3     4133     SWM4     H1       HDW      0.557330       1.00800           0   0.00000       0.00000    
     46873 TIP3     4133     SWM4     H2       HDW      0.557330       1.00800           0   0.00000       0.00000    
     46874 TIP3     4134     SWM4     OH2      ODW       1.71640       15.5994           0 -0.978253       1.30000    
     46875 TIP3     4134     SWM4     DOH2     DOH2     -1.71640      0.400000           0   0.00000       0.00000    
     46876 TIP3     4134     SWM4     OM       LPDW     -1.11466       0.00000          -1   0.00000       0.00000    
     46877 TIP3     4134     SWM4     H1       HDW      0.557330       1.00800           0   0.00000       0.00000    
     46878 TIP3     4134     SWM4     H2       HDW      0.557330       1.00800           0   0.00000       0.00000    
     46879 TIP3     4135     SWM4     OH2      ODW       1.71640       15.5994           0 -0.978253       1.30000    
     46880 TIP3     4135     SWM4     DOH2     DOH2     -1.71640      0.400000           0   0.00000       0.00000    
     46881 TIP3     4135     SWM4     OM       LPDW     -1.11466       0.00000          -1   0.00000       0.00000    
     46882 TIP3     4135     SWM4     H1       HDW      0.557330       1.00800           0   0.00000       0.00000    
     46883 TIP3     4135     SWM4     H2       HDW      0.557330       1.00800           0   0.00000       0.00000    
     46884 TIP3     4136     SWM4     OH2      ODW       1.71640       15.5994           0 -0.978253       1.30000    
     46885 TIP3     4136     SWM4     DOH2     DOH2     -1.71640      0.400000           0   0.00000       0.00000    
     46886 TIP3     4136     SWM4     OM       LPDW     -1.11466       0.00000          -1   0.00000       0.00000    
     46887 TIP3     4136     SWM4     H1       HDW      0.557330       1.00800           0   0.00000       0.00000    
     46888 TIP3     4136     SWM4     H2       HDW      0.557330       1.00800           0   0.00000       0.00000    
     46889 TIP3     4137     SWM4     OH2      ODW       1.71640       15.5994           0 -0.978253       1.30000    
     46890 TIP3     4137     SWM4     DOH2     DOH2     -1.71640      0.400000           0   0.00000       0.00000    
     46891 TIP3     4137     SWM4     OM       LPDW     -1.11466       0.00000          -1   0.00000       0.00000    
     46892 TIP3     4137     SWM4     H1       HDW      0.557330       1.00800           0   0.00000       0.00000    
     46893 TIP3     4137     SWM4     H2       HDW      0.557330       1.00800           0   0.00000       0.00000    
     46894 TIP3     4138     SWM4     OH2      ODW       1.71640       15.5994           0 -0.978253       1.30000    
     46895 TIP3     4138     SWM4     DOH2     DOH2     -1.71640      0.400000           0   0.00000       0.00000    
     46896 TIP3     4138     SWM4     OM       LPDW     -1.11466       0.00000          -1   0.00000       0.00000    
     46897 TIP3     4138     SWM4     H1       HDW      0.557330       1.00800           0   0.00000       0.00000    
     46898 TIP3     4138     SWM4     H2       HDW      0.557330       1.00800           0   0.00000       0.00000    
     46899 TIP3     4139     SWM4     OH2      ODW       1.71640       15.5994           0 -0.978253       1.30000    
     46900 TIP3     4139     SWM4     DOH2     DOH2     -1.71640      0.400000           0   0.00000       0.00000    
     46901 TIP3     4139     SWM4     OM       LPDW     -1.11466       0.00000          -1   0.00000       0.00000    
     46902 TIP3     4139     SWM4     H1       HDW      0.557330       1.00800           0   0.00000       0.00000    
     46903 TIP3     4139     SWM4     H2       HDW      0.557330       1.00800           0   0.00000       0.00000    
     46904 TIP3     4140     SWM4     OH2      ODW       1.71640       15.5994           0 -0.978253       1.30000    
     46905 TIP3     4140     SWM4     DOH2     DOH2     -1.71640      0.400000           0   0.00000       0.00000    
     46906 TIP3     4140     SWM4     OM       LPDW     -1.11466       0.00000          -1   0.00000       0.00000    
     46907 TIP3     4140     SWM4     H1       HDW      0.557330       1.00800           0   0.00000       0.00000    
     46908 TIP3     4140     SWM4     H2       HDW      0.557330       1.00800           0   0.00000       0.00000    
     46909 TIP3     4141     SWM4     OH2      ODW       1.71640       15.5994           0 -0.978253       1.30000    
     46910 TIP3     4141     SWM4     DOH2     DOH2     -1.71640      0.400000           0   0.00000       0.00000    
     46911 TIP3     4141     SWM4     OM       LPDW     -1.11466       0.00000          -1   0.00000       0.00000    
     46912 TIP3     4141     SWM4     H1       HDW      0.557330       1.00800           0   0.00000       0.00000    
     46913 TIP3     4141     SWM4     H2       HDW      0.557330       1.00800           0   0.00000       0.00000    
     46914 TIP3     4142     SWM4     OH2      ODW       1.71640       15.5994           0 -0.978253       1.30000    
     46915 TIP3     4142     SWM4     DOH2     DOH2     -1.71640      0.400000           0   0.00000       0.00000    
     46916 TIP3     4142     SWM4     OM       LPDW     -1.11466       0.00000          -1   0.00000       0.00000    
     46917 TIP3     4142     SWM4     H1       HDW      0.557330       1.00800           0   0.00000       0.00000    
     46918 TIP3     4142     SWM4     H2       HDW      0.557330       1.00800           0   0.00000       0.00000    
     46919 TIP3     4143     SWM4     OH2      ODW       1.71640       15.5994           0 -0.978253       1.30000    
     46920 TIP3     4143     SWM4     DOH2     DOH2     -1.71640      0.400000           0   0.00000       0.00000    
     46921 TIP3     4143     SWM4     OM       LPDW     -1.11466       0.00000          -1   0.00000       0.00000    
     46922 TIP3     4143     SWM4     H1       HDW      0.557330       1.00800           0   0.00000       0.00000    
     46923 TIP3     4143     SWM4     H2       HDW      0.557330       1.00800           0   0.00000       0.00000    
     46924 TIP3     4144     SWM4     OH2      ODW       1.71640       15.5994           0 -0.978253       1.30000    
     46925 TIP3     4144     SWM4     DOH2     DOH2     -1.71640      0.400000           0   0.00000       0.00000    
     46926 TIP3     4144     SWM4     OM       LPDW     -1.11466       0.00000          -1   0.00000       0.00000    
     46927 TIP3     4144     SWM4     H1       HDW      0.557330       1.00800           0   0.00000       0.00000    
     46928 TIP3     4144     SWM4     H2       HDW      0.557330       1.00800           0   0.00000       0.00000    
     46929 TIP3     4145     SWM4     OH2      ODW       1.71640       15.5994           0 -0.978253       1.30000    
     46930 TIP3     4145     SWM4     DOH2     DOH2     -1.71640      0.400000           0   0.00000       0.00000    
     46931 TIP3     4145     SWM4     OM       LPDW     -1.11466       0.00000          -1   0.00000       0.00000    
     46932 TIP3     4145     SWM4     H1       HDW      0.557330       1.00800           0   0.00000       0.00000    
     46933 TIP3     4145     SWM4     H2       HDW      0.557330       1.00800           0   0.00000       0.00000    
     46934 TIP3     4146     SWM4     OH2      ODW       1.71640       15.5994           0 -0.978253       1.30000    
     46935 TIP3     4146     SWM4     DOH2     DOH2     -1.71640      0.400000           0   0.00000       0.00000    
     46936 TIP3     4146     SWM4     OM       LPDW     -1.11466       0.00000          -1   0.00000       0.00000    
     46937 TIP3     4146     SWM4     H1       HDW      0.557330       1.00800           0   0.00000       0.00000    
     46938 TIP3     4146     SWM4     H2       HDW      0.557330       1.00800           0   0.00000       0.00000    
     46939 TIP3     4147     SWM4     OH2      ODW       1.71640       15.5994           0 -0.978253       1.30000    
     46940 TIP3     4147     SWM4     DOH2     DOH2     -1.71640      0.400000           0   0.00000       0.00000    
     46941 TIP3     4147     SWM4     OM       LPDW     -1.11466       0.00000          -1   0.00000       0.00000    
     46942 TIP3     4147     SWM4     H1       HDW      0.557330       1.00800           0   0.00000       0.00000    
     46943 TIP3     4147     SWM4     H2       HDW      0.557330       1.00800           0   0.00000       0.00000    
     46944 TIP3     4148     SWM4     OH2      ODW       1.71640       15.5994           0 -0.978253       1.30000    
     46945 TIP3     4148     SWM4     DOH2     DOH2     -1.71640      0.400000           0   0.00000       0.00000    
     46946 TIP3     4148     SWM4     OM       LPDW     -1.11466       0.00000          -1   0.00000       0.00000    
     46947 TIP3     4148     SWM4     H1       HDW      0.557330       1.00800           0   0.00000       0.00000    
     46948 TIP3     4148     SWM4     H2       HDW      0.557330       1.00800           0   0.00000       0.00000    
     46949 TIP3     4149     SWM4     OH2      ODW       1.71640       15.5994           0 -0.978253       1.30000    
     46950 TIP3     4149     SWM4     DOH2     DOH2     -1.71640      0.400000           0   0.00000       0.00000    
     46951 TIP3     4149     SWM4     OM       LPDW     -1.11466       0.00000          -1   0.00000       0.00000    
     46952 TIP3     4149     SWM4     H1       HDW      0.557330       1.00800           0   0.00000       0.00000    
     46953 TIP3     4149     SWM4     H2       HDW      0.557330       1.00800           0   0.00000       0.00000    
     46954 TIP3     4150     SWM4     OH2      ODW       1.71640       15.5994           0 -0.978253       1.30000    
     46955 TIP3     4150     SWM4     DOH2     DOH2     -1.71640      0.400000           0   0.00000       0.00000    
     46956 TIP3     4150     SWM4     OM       LPDW     -1.11466       0.00000          -1   0.00000       0.00000    
     46957 TIP3     4150     SWM4     H1       HDW      0.557330       1.00800           0   0.00000       0.00000    
     46958 TIP3     4150     SWM4     H2       HDW      0.557330       1.00800           0   0.00000       0.00000    
     46959 TIP3     4151     SWM4     OH2      ODW       1.71640       15.5994           0 -0.978253       1.30000    
     46960 TIP3     4151     SWM4     DOH2     DOH2     -1.71640      0.400000           0   0.00000       0.00000    
     46961 TIP3     4151     SWM4     OM       LPDW     -1.11466       0.00000          -1   0.00000       0.00000    
     46962 TIP3     4151     SWM4     H1       HDW      0.557330       1.00800           0   0.00000       0.00000    
     46963 TIP3     4151     SWM4     H2       HDW      0.557330       1.00800           0   0.00000       0.00000    
     46964 TIP3     4152     SWM4     OH2      ODW       1.71640       15.5994           0 -0.978253       1.30000    
     46965 TIP3     4152     SWM4     DOH2     DOH2     -1.71640      0.400000           0   0.00000       0.00000    
     46966 TIP3     4152     SWM4     OM       LPDW     -1.11466       0.00000          -1   0.00000       0.00000    
     46967 TIP3     4152     SWM4     H1       HDW      0.557330       1.00800           0   0.00000       0.00000    
     46968 TIP3     4152     SWM4     H2       HDW      0.557330       1.00800           0   0.00000       0.00000    
     46969 TIP3     4153     SWM4     OH2      ODW       1.71640       15.5994           0 -0.978253       1.30000    
     46970 TIP3     4153     SWM4     DOH2     DOH2     -1.71640      0.400000           0   0.00000       0.00000    
     46971 TIP3     4153     SWM4     OM       LPDW     -1.11466       0.00000          -1   0.00000       0.00000    
     46972 TIP3     4153     SWM4     H1       HDW      0.557330       1.00800           0   0.00000       0.00000    
     46973 TIP3     4153     SWM4     H2       HDW      0.557330       1.00800           0   0.00000       0.00000    
     46974 TIP3     4154     SWM4     OH2      ODW       1.71640       15.5994           0 -0.978253       1.30000    
     46975 TIP3     4154     SWM4     DOH2     DOH2     -1.71640      0.400000           0   0.00000       0.00000    
     46976 TIP3     4154     SWM4     OM       LPDW     -1.11466       0.00000          -1   0.00000       0.00000    
     46977 TIP3     4154     SWM4     H1       HDW      0.557330       1.00800           0   0.00000       0.00000    
     46978 TIP3     4154     SWM4     H2       HDW      0.557330       1.00800           0   0.00000       0.00000    
     46979 TIP3     4155     SWM4     OH2      ODW       1.71640       15.5994           0 -0.978253       1.30000    
     46980 TIP3     4155     SWM4     DOH2     DOH2     -1.71640      0.400000           0   0.00000       0.00000    
     46981 TIP3     4155     SWM4     OM       LPDW     -1.11466       0.00000          -1   0.00000       0.00000    
     46982 TIP3     4155     SWM4     H1       HDW      0.557330       1.00800           0   0.00000       0.00000    
     46983 TIP3     4155     SWM4     H2       HDW      0.557330       1.00800           0   0.00000       0.00000    
     46984 TIP3     4156     SWM4     OH2      ODW       1.71640       15.5994           0 -0.978253       1.30000    
     46985 TIP3     4156     SWM4     DOH2     DOH2     -1.71640      0.400000           0   0.00000       0.00000    
     46986 TIP3     4156     SWM4     OM       LPDW     -1.11466       0.00000          -1   0.00000       0.00000    
     46987 TIP3     4156     SWM4     H1       HDW      0.557330       1.00800           0   0.00000       0.00000    
     46988 TIP3     4156     SWM4     H2       HDW      0.557330       1.00800           0   0.00000       0.00000    
     46989 TIP3     4157     SWM4     OH2      ODW       1.71640       15.5994           0 -0.978253       1.30000    
     46990 TIP3     4157     SWM4     DOH2     DOH2     -1.71640      0.400000           0   0.00000       0.00000    
     46991 TIP3     4157     SWM4     OM       LPDW     -1.11466       0.00000          -1   0.00000       0.00000    
     46992 TIP3     4157     SWM4     H1       HDW      0.557330       1.00800           0   0.00000       0.00000    
     46993 TIP3     4157     SWM4     H2       HDW      0.557330       1.00800           0   0.00000       0.00000    
     46994 TIP3     4158     SWM4     OH2      ODW       1.71640       15.5994           0 -0.978253       1.30000    
     46995 TIP3     4158     SWM4     DOH2     DOH2     -1.71640      0.400000           0   0.00000       0.00000    
     46996 TIP3     4158     SWM4     OM       LPDW     -1.11466       0.00000          -1   0.00000       0.00000    
     46997 TIP3     4158     SWM4     H1       HDW      0.557330       1.00800           0   0.00000       0.00000    
     46998 TIP3     4158     SWM4     H2       HDW      0.557330       1.00800           0   0.00000       0.00000    
     46999 TIP3     4159     SWM4     OH2      ODW       1.71640       15.5994           0 -0.978253       1.30000    
     47000 TIP3     4159     SWM4     DOH2     DOH2     -1.71640      0.400000           0   0.00000       0.00000    
     47001 TIP3     4159     SWM4     OM       LPDW     -1.11466       0.00000          -1   0.00000       0.00000    
     47002 TIP3     4159     SWM4     H1       HDW      0.557330       1.00800           0   0.00000       0.00000    
     47003 TIP3     4159     SWM4     H2       HDW      0.557330       1.00800           0   0.00000       0.00000    
     47004 TIP3     4160     SWM4     OH2      ODW       1.71640       15.5994           0 -0.978253       1.30000    
     47005 TIP3     4160     SWM4     DOH2     DOH2     -1.71640      0.400000           0   0.00000       0.00000    
     47006 TIP3     4160     SWM4     OM       LPDW     -1.11466       0.00000          -1   0.00000       0.00000    
     47007 TIP3     4160     SWM4     H1       HDW      0.557330       1.00800           0   0.00000       0.00000    
     47008 TIP3     4160     SWM4     H2       HDW      0.557330       1.00800           0   0.00000       0.00000    
     47009 TIP3     4161     SWM4     OH2      ODW       1.71640       15.5994           0 -0.978253       1.30000    
     47010 TIP3     4161     SWM4     DOH2     DOH2     -1.71640      0.400000           0   0.00000       0.00000    
     47011 TIP3     4161     SWM4     OM       LPDW     -1.11466       0.00000          -1   0.00000       0.00000    
     47012 TIP3     4161     SWM4     H1       HDW      0.557330       1.00800           0   0.00000       0.00000    
     47013 TIP3     4161     SWM4     H2       HDW      0.557330       1.00800           0   0.00000       0.00000    
     47014 TIP3     4162     SWM4     OH2      ODW       1.71640       15.5994           0 -0.978253       1.30000    
     47015 TIP3     4162     SWM4     DOH2     DOH2     -1.71640      0.400000           0   0.00000       0.00000    
     47016 TIP3     4162     SWM4     OM       LPDW     -1.11466       0.00000          -1   0.00000       0.00000    
     47017 TIP3     4162     SWM4     H1       HDW      0.557330       1.00800           0   0.00000       0.00000    
     47018 TIP3     4162     SWM4     H2       HDW      0.557330       1.00800           0   0.00000       0.00000    
     47019 TIP3     4163     SWM4     OH2      ODW       1.71640       15.5994           0 -0.978253       1.30000    
     47020 TIP3     4163     SWM4     DOH2     DOH2     -1.71640      0.400000           0   0.00000       0.00000    
     47021 TIP3     4163     SWM4     OM       LPDW     -1.11466       0.00000          -1   0.00000       0.00000    
     47022 TIP3     4163     SWM4     H1       HDW      0.557330       1.00800           0   0.00000       0.00000    
     47023 TIP3     4163     SWM4     H2       HDW      0.557330       1.00800           0   0.00000       0.00000    
     47024 TIP3     4164     SWM4     OH2      ODW       1.71640       15.5994           0 -0.978253       1.30000    
     47025 TIP3     4164     SWM4     DOH2     DOH2     -1.71640      0.400000           0   0.00000       0.00000    
     47026 TIP3     4164     SWM4     OM       LPDW     -1.11466       0.00000          -1   0.00000       0.00000    
     47027 TIP3     4164     SWM4     H1       HDW      0.557330       1.00800           0   0.00000       0.00000    
     47028 TIP3     4164     SWM4     H2       HDW      0.557330       1.00800           0   0.00000       0.00000    
     47029 TIP3     4165     SWM4     OH2      ODW       1.71640       15.5994           0 -0.978253       1.30000    
     47030 TIP3     4165     SWM4     DOH2     DOH2     -1.71640      0.400000           0   0.00000       0.00000    
     47031 TIP3     4165     SWM4     OM       LPDW     -1.11466       0.00000          -1   0.00000       0.00000    
     47032 TIP3     4165     SWM4     H1       HDW      0.557330       1.00800           0   0.00000       0.00000    
     47033 TIP3     4165     SWM4     H2       HDW      0.557330       1.00800           0   0.00000       0.00000    
     47034 TIP3     4166     SWM4     OH2      ODW       1.71640       15.5994           0 -0.978253       1.30000    
     47035 TIP3     4166     SWM4     DOH2     DOH2     -1.71640      0.400000           0   0.00000       0.00000    
     47036 TIP3     4166     SWM4     OM       LPDW     -1.11466       0.00000          -1   0.00000       0.00000    
     47037 TIP3     4166     SWM4     H1       HDW      0.557330       1.00800           0   0.00000       0.00000    
     47038 TIP3     4166     SWM4     H2       HDW      0.557330       1.00800           0   0.00000       0.00000    
     47039 TIP3     4167     SWM4     OH2      ODW       1.71640       15.5994           0 -0.978253       1.30000    
     47040 TIP3     4167     SWM4     DOH2     DOH2     -1.71640      0.400000           0   0.00000       0.00000    
     47041 TIP3     4167     SWM4     OM       LPDW     -1.11466       0.00000          -1   0.00000       0.00000    
     47042 TIP3     4167     SWM4     H1       HDW      0.557330       1.00800           0   0.00000       0.00000    
     47043 TIP3     4167     SWM4     H2       HDW      0.557330       1.00800           0   0.00000       0.00000    
     47044 TIP3     4168     SWM4     OH2      ODW       1.71640       15.5994           0 -0.978253       1.30000    
     47045 TIP3     4168     SWM4     DOH2     DOH2     -1.71640      0.400000           0   0.00000       0.00000    
     47046 TIP3     4168     SWM4     OM       LPDW     -1.11466       0.00000          -1   0.00000       0.00000    
     47047 TIP3     4168     SWM4     H1       HDW      0.557330       1.00800           0   0.00000       0.00000    
     47048 TIP3     4168     SWM4     H2       HDW      0.557330       1.00800           0   0.00000       0.00000    
     47049 TIP3     4169     SWM4     OH2      ODW       1.71640       15.5994           0 -0.978253       1.30000    
     47050 TIP3     4169     SWM4     DOH2     DOH2     -1.71640      0.400000           0   0.00000       0.00000    
     47051 TIP3     4169     SWM4     OM       LPDW     -1.11466       0.00000          -1   0.00000       0.00000    
     47052 TIP3     4169     SWM4     H1       HDW      0.557330       1.00800           0   0.00000       0.00000    
     47053 TIP3     4169     SWM4     H2       HDW      0.557330       1.00800           0   0.00000       0.00000    
     47054 TIP3     4170     SWM4     OH2      ODW       1.71640       15.5994           0 -0.978253       1.30000    
     47055 TIP3     4170     SWM4     DOH2     DOH2     -1.71640      0.400000           0   0.00000       0.00000    
     47056 TIP3     4170     SWM4     OM       LPDW     -1.11466       0.00000          -1   0.00000       0.00000    
     47057 TIP3     4170     SWM4     H1       HDW      0.557330       1.00800           0   0.00000       0.00000    
     47058 TIP3     4170     SWM4     H2       HDW      0.557330       1.00800           0   0.00000       0.00000    
     47059 TIP3     4171     SWM4     OH2      ODW       1.71640       15.5994           0 -0.978253       1.30000    
     47060 TIP3     4171     SWM4     DOH2     DOH2     -1.71640      0.400000           0   0.00000       0.00000    
     47061 TIP3     4171     SWM4     OM       LPDW     -1.11466       0.00000          -1   0.00000       0.00000    
     47062 TIP3     4171     SWM4     H1       HDW      0.557330       1.00800           0   0.00000       0.00000    
     47063 TIP3     4171     SWM4     H2       HDW      0.557330       1.00800           0   0.00000       0.00000    
     47064 TIP3     4172     SWM4     OH2      ODW       1.71640       15.5994           0 -0.978253       1.30000    
     47065 TIP3     4172     SWM4     DOH2     DOH2     -1.71640      0.400000           0   0.00000       0.00000    
     47066 TIP3     4172     SWM4     OM       LPDW     -1.11466       0.00000          -1   0.00000       0.00000    
     47067 TIP3     4172     SWM4     H1       HDW      0.557330       1.00800           0   0.00000       0.00000    
     47068 TIP3     4172     SWM4     H2       HDW      0.557330       1.00800           0   0.00000       0.00000    
     47069 TIP3     4173     SWM4     OH2      ODW       1.71640       15.5994           0 -0.978253       1.30000    
     47070 TIP3     4173     SWM4     DOH2     DOH2     -1.71640      0.400000           0   0.00000       0.00000    
     47071 TIP3     4173     SWM4     OM       LPDW     -1.11466       0.00000          -1   0.00000       0.00000    
     47072 TIP3     4173     SWM4     H1       HDW      0.557330       1.00800           0   0.00000       0.00000    
     47073 TIP3     4173     SWM4     H2       HDW      0.557330       1.00800           0   0.00000       0.00000    
     47074 TIP3     4174     SWM4     OH2      ODW       1.71640       15.5994           0 -0.978253       1.30000    
     47075 TIP3     4174     SWM4     DOH2     DOH2     -1.71640      0.400000           0   0.00000       0.00000    
     47076 TIP3     4174     SWM4     OM       LPDW     -1.11466       0.00000          -1   0.00000       0.00000    
     47077 TIP3     4174     SWM4     H1       HDW      0.557330       1.00800           0   0.00000       0.00000    
     47078 TIP3     4174     SWM4     H2       HDW      0.557330       1.00800           0   0.00000       0.00000    
     47079 TIP3     4175     SWM4     OH2      ODW       1.71640       15.5994           0 -0.978253       1.30000    
     47080 TIP3     4175     SWM4     DOH2     DOH2     -1.71640      0.400000           0   0.00000       0.00000    
     47081 TIP3     4175     SWM4     OM       LPDW     -1.11466       0.00000          -1   0.00000       0.00000    
     47082 TIP3     4175     SWM4     H1       HDW      0.557330       1.00800           0   0.00000       0.00000    
     47083 TIP3     4175     SWM4     H2       HDW      0.557330       1.00800           0   0.00000       0.00000    
     47084 TIP3     4176     SWM4     OH2      ODW       1.71640       15.5994           0 -0.978253       1.30000    
     47085 TIP3     4176     SWM4     DOH2     DOH2     -1.71640      0.400000           0   0.00000       0.00000    
     47086 TIP3     4176     SWM4     OM       LPDW     -1.11466       0.00000          -1   0.00000       0.00000    
     47087 TIP3     4176     SWM4     H1       HDW      0.557330       1.00800           0   0.00000       0.00000    
     47088 TIP3     4176     SWM4     H2       HDW      0.557330       1.00800           0   0.00000       0.00000    
     47089 TIP3     4177     SWM4     OH2      ODW       1.71640       15.5994           0 -0.978253       1.30000    
     47090 TIP3     4177     SWM4     DOH2     DOH2     -1.71640      0.400000           0   0.00000       0.00000    
     47091 TIP3     4177     SWM4     OM       LPDW     -1.11466       0.00000          -1   0.00000       0.00000    
     47092 TIP3     4177     SWM4     H1       HDW      0.557330       1.00800           0   0.00000       0.00000    
     47093 TIP3     4177     SWM4     H2       HDW      0.557330       1.00800           0   0.00000       0.00000    
     47094 TIP3     4178     SWM4     OH2      ODW       1.71640       15.5994           0 -0.978253       1.30000    
     47095 TIP3     4178     SWM4     DOH2     DOH2     -1.71640      0.400000           0   0.00000       0.00000    
     47096 TIP3     4178     SWM4     OM       LPDW     -1.11466       0.00000          -1   0.00000       0.00000    
     47097 TIP3     4178     SWM4     H1       HDW      0.557330       1.00800           0   0.00000       0.00000    
     47098 TIP3     4178     SWM4     H2       HDW      0.557330       1.00800           0   0.00000       0.00000    
     47099 TIP3     4179     SWM4     OH2      ODW       1.71640       15.5994           0 -0.978253       1.30000    
     47100 TIP3     4179     SWM4     DOH2     DOH2     -1.71640      0.400000           0   0.00000       0.00000    
     47101 TIP3     4179     SWM4     OM       LPDW     -1.11466       0.00000          -1   0.00000       0.00000    
     47102 TIP3     4179     SWM4     H1       HDW      0.557330       1.00800           0   0.00000       0.00000    
     47103 TIP3     4179     SWM4     H2       HDW      0.557330       1.00800           0   0.00000       0.00000    
     47104 TIP3     4180     SWM4     OH2      ODW       1.71640       15.5994           0 -0.978253       1.30000    
     47105 TIP3     4180     SWM4     DOH2     DOH2     -1.71640      0.400000           0   0.00000       0.00000    
     47106 TIP3     4180     SWM4     OM       LPDW     -1.11466       0.00000          -1   0.00000       0.00000    
     47107 TIP3     4180     SWM4     H1       HDW      0.557330       1.00800           0   0.00000       0.00000    
     47108 TIP3     4180     SWM4     H2       HDW      0.557330       1.00800           0   0.00000       0.00000    
     47109 TIP3     4181     SWM4     OH2      ODW       1.71640       15.5994           0 -0.978253       1.30000    
     47110 TIP3     4181     SWM4     DOH2     DOH2     -1.71640      0.400000           0   0.00000       0.00000    
     47111 TIP3     4181     SWM4     OM       LPDW     -1.11466       0.00000          -1   0.00000       0.00000    
     47112 TIP3     4181     SWM4     H1       HDW      0.557330       1.00800           0   0.00000       0.00000    
     47113 TIP3     4181     SWM4     H2       HDW      0.557330       1.00800           0   0.00000       0.00000    
     47114 TIP3     4182     SWM4     OH2      ODW       1.71640       15.5994           0 -0.978253       1.30000    
     47115 TIP3     4182     SWM4     DOH2     DOH2     -1.71640      0.400000           0   0.00000       0.00000    
     47116 TIP3     4182     SWM4     OM       LPDW     -1.11466       0.00000          -1   0.00000       0.00000    
     47117 TIP3     4182     SWM4     H1       HDW      0.557330       1.00800           0   0.00000       0.00000    
     47118 TIP3     4182     SWM4     H2       HDW      0.557330       1.00800           0   0.00000       0.00000    
     47119 TIP3     4183     SWM4     OH2      ODW       1.71640       15.5994           0 -0.978253       1.30000    
     47120 TIP3     4183     SWM4     DOH2     DOH2     -1.71640      0.400000           0   0.00000       0.00000    
     47121 TIP3     4183     SWM4     OM       LPDW     -1.11466       0.00000          -1   0.00000       0.00000    
     47122 TIP3     4183     SWM4     H1       HDW      0.557330       1.00800           0   0.00000       0.00000    
     47123 TIP3     4183     SWM4     H2       HDW      0.557330       1.00800           0   0.00000       0.00000    
     47124 TIP3     4184     SWM4     OH2      ODW       1.71640       15.5994           0 -0.978253       1.30000    
     47125 TIP3     4184     SWM4     DOH2     DOH2     -1.71640      0.400000           0   0.00000       0.00000    
     47126 TIP3     4184     SWM4     OM       LPDW     -1.11466       0.00000          -1   0.00000       0.00000    
     47127 TIP3     4184     SWM4     H1       HDW      0.557330       1.00800           0   0.00000       0.00000    
     47128 TIP3     4184     SWM4     H2       HDW      0.557330       1.00800           0   0.00000       0.00000    
     47129 TIP3     4185     SWM4     OH2      ODW       1.71640       15.5994           0 -0.978253       1.30000    
     47130 TIP3     4185     SWM4     DOH2     DOH2     -1.71640      0.400000           0   0.00000       0.00000    
     47131 TIP3     4185     SWM4     OM       LPDW     -1.11466       0.00000          -1   0.00000       0.00000    
     47132 TIP3     4185     SWM4     H1       HDW      0.557330       1.00800           0   0.00000       0.00000    
     47133 TIP3     4185     SWM4     H2       HDW      0.557330       1.00800           0   0.00000       0.00000    
     47134 TIP3     4186     SWM4     OH2      ODW       1.71640       15.5994           0 -0.978253       1.30000    
     47135 TIP3     4186     SWM4     DOH2     DOH2     -1.71640      0.400000           0   0.00000       0.00000    
     47136 TIP3     4186     SWM4     OM       LPDW     -1.11466       0.00000          -1   0.00000       0.00000    
     47137 TIP3     4186     SWM4     H1       HDW      0.557330       1.00800           0   0.00000       0.00000    
     47138 TIP3     4186     SWM4     H2       HDW      0.557330       1.00800           0   0.00000       0.00000    
     47139 TIP3     4187     SWM4     OH2      ODW       1.71640       15.5994           0 -0.978253       1.30000    
     47140 TIP3     4187     SWM4     DOH2     DOH2     -1.71640      0.400000           0   0.00000       0.00000    
     47141 TIP3     4187     SWM4     OM       LPDW     -1.11466       0.00000          -1   0.00000       0.00000    
     47142 TIP3     4187     SWM4     H1       HDW      0.557330       1.00800           0   0.00000       0.00000    
     47143 TIP3     4187     SWM4     H2       HDW      0.557330       1.00800           0   0.00000       0.00000    
     47144 TIP3     4188     SWM4     OH2      ODW       1.71640       15.5994           0 -0.978253       1.30000    
     47145 TIP3     4188     SWM4     DOH2     DOH2     -1.71640      0.400000           0   0.00000       0.00000    
     47146 TIP3     4188     SWM4     OM       LPDW     -1.11466       0.00000          -1   0.00000       0.00000    
     47147 TIP3     4188     SWM4     H1       HDW      0.557330       1.00800           0   0.00000       0.00000    
     47148 TIP3     4188     SWM4     H2       HDW      0.557330       1.00800           0   0.00000       0.00000    
     47149 TIP3     4189     SWM4     OH2      ODW       1.71640       15.5994           0 -0.978253       1.30000    
     47150 TIP3     4189     SWM4     DOH2     DOH2     -1.71640      0.400000           0   0.00000       0.00000    
     47151 TIP3     4189     SWM4     OM       LPDW     -1.11466       0.00000          -1   0.00000       0.00000    
     47152 TIP3     4189     SWM4     H1       HDW      0.557330       1.00800           0   0.00000       0.00000    
     47153 TIP3     4189     SWM4     H2       HDW      0.557330       1.00800           0   0.00000       0.00000    
     47154 TIP3     4190     SWM4     OH2      ODW       1.71640       15.5994           0 -0.978253       1.30000    
     47155 TIP3     4190     SWM4     DOH2     DOH2     -1.71640      0.400000           0   0.00000       0.00000    
     47156 TIP3     4190     SWM4     OM       LPDW     -1.11466       0.00000          -1   0.00000       0.00000    
     47157 TIP3     4190     SWM4     H1       HDW      0.557330       1.00800           0   0.00000       0.00000    
     47158 TIP3     4190     SWM4     H2       HDW      0.557330       1.00800           0   0.00000       0.00000    
     47159 TIP3     4191     SWM4     OH2      ODW       1.71640       15.5994           0 -0.978253       1.30000    
     47160 TIP3     4191     SWM4     DOH2     DOH2     -1.71640      0.400000           0   0.00000       0.00000    
     47161 TIP3     4191     SWM4     OM       LPDW     -1.11466       0.00000          -1   0.00000       0.00000    
     47162 TIP3     4191     SWM4     H1       HDW      0.557330       1.00800           0   0.00000       0.00000    
     47163 TIP3     4191     SWM4     H2       HDW      0.557330       1.00800           0   0.00000       0.00000    
     47164 TIP3     4192     SWM4     OH2      ODW       1.71640       15.5994           0 -0.978253       1.30000    
     47165 TIP3     4192     SWM4     DOH2     DOH2     -1.71640      0.400000           0   0.00000       0.00000    
     47166 TIP3     4192     SWM4     OM       LPDW     -1.11466       0.00000          -1   0.00000       0.00000    
     47167 TIP3     4192     SWM4     H1       HDW      0.557330       1.00800           0   0.00000       0.00000    
     47168 TIP3     4192     SWM4     H2       HDW      0.557330       1.00800           0   0.00000       0.00000    
     47169 TIP3     4193     SWM4     OH2      ODW       1.71640       15.5994           0 -0.978253       1.30000    
     47170 TIP3     4193     SWM4     DOH2     DOH2     -1.71640      0.400000           0   0.00000       0.00000    
     47171 TIP3     4193     SWM4     OM       LPDW     -1.11466       0.00000          -1   0.00000       0.00000    
     47172 TIP3     4193     SWM4     H1       HDW      0.557330       1.00800           0   0.00000       0.00000    
     47173 TIP3     4193     SWM4     H2       HDW      0.557330       1.00800           0   0.00000       0.00000    
     47174 TIP3     4194     SWM4     OH2      ODW       1.71640       15.5994           0 -0.978253       1.30000    
     47175 TIP3     4194     SWM4     DOH2     DOH2     -1.71640      0.400000           0   0.00000       0.00000    
     47176 TIP3     4194     SWM4     OM       LPDW     -1.11466       0.00000          -1   0.00000       0.00000    
     47177 TIP3     4194     SWM4     H1       HDW      0.557330       1.00800           0   0.00000       0.00000    
     47178 TIP3     4194     SWM4     H2       HDW      0.557330       1.00800           0   0.00000       0.00000    
     47179 TIP3     4195     SWM4     OH2      ODW       1.71640       15.5994           0 -0.978253       1.30000    
     47180 TIP3     4195     SWM4     DOH2     DOH2     -1.71640      0.400000           0   0.00000       0.00000    
     47181 TIP3     4195     SWM4     OM       LPDW     -1.11466       0.00000          -1   0.00000       0.00000    
     47182 TIP3     4195     SWM4     H1       HDW      0.557330       1.00800           0   0.00000       0.00000    
     47183 TIP3     4195     SWM4     H2       HDW      0.557330       1.00800           0   0.00000       0.00000    
     47184 TIP3     4196     SWM4     OH2      ODW       1.71640       15.5994           0 -0.978253       1.30000    
     47185 TIP3     4196     SWM4     DOH2     DOH2     -1.71640      0.400000           0   0.00000       0.00000    
     47186 TIP3     4196     SWM4     OM       LPDW     -1.11466       0.00000          -1   0.00000       0.00000    
     47187 TIP3     4196     SWM4     H1       HDW      0.557330       1.00800           0   0.00000       0.00000    
     47188 TIP3     4196     SWM4     H2       HDW      0.557330       1.00800           0   0.00000       0.00000    
     47189 TIP3     4197     SWM4     OH2      ODW       1.71640       15.5994           0 -0.978253       1.30000    
     47190 TIP3     4197     SWM4     DOH2     DOH2     -1.71640      0.400000           0   0.00000       0.00000    
     47191 TIP3     4197     SWM4     OM       LPDW     -1.11466       0.00000          -1   0.00000       0.00000    
     47192 TIP3     4197     SWM4     H1       HDW      0.557330       1.00800           0   0.00000       0.00000    
     47193 TIP3     4197     SWM4     H2       HDW      0.557330       1.00800           0   0.00000       0.00000    
     47194 TIP3     4198     SWM4     OH2      ODW       1.71640       15.5994           0 -0.978253       1.30000    
     47195 TIP3     4198     SWM4     DOH2     DOH2     -1.71640      0.400000           0   0.00000       0.00000    
     47196 TIP3     4198     SWM4     OM       LPDW     -1.11466       0.00000          -1   0.00000       0.00000    
     47197 TIP3     4198     SWM4     H1       HDW      0.557330       1.00800           0   0.00000       0.00000    
     47198 TIP3     4198     SWM4     H2       HDW      0.557330       1.00800           0   0.00000       0.00000    
     47199 TIP3     4199     SWM4     OH2      ODW       1.71640       15.5994           0 -0.978253       1.30000    
     47200 TIP3     4199     SWM4     DOH2     DOH2     -1.71640      0.400000           0   0.00000       0.00000    
     47201 TIP3     4199     SWM4     OM       LPDW     -1.11466       0.00000          -1   0.00000       0.00000    
     47202 TIP3     4199     SWM4     H1       HDW      0.557330       1.00800           0   0.00000       0.00000    
     47203 TIP3     4199     SWM4     H2       HDW      0.557330       1.00800           0   0.00000       0.00000    
     47204 TIP3     4200     SWM4     OH2      ODW       1.71640       15.5994           0 -0.978253       1.30000    
     47205 TIP3     4200     SWM4     DOH2     DOH2     -1.71640      0.400000           0   0.00000       0.00000    
     47206 TIP3     4200     SWM4     OM       LPDW     -1.11466       0.00000          -1   0.00000       0.00000    
     47207 TIP3     4200     SWM4     H1       HDW      0.557330       1.00800           0   0.00000       0.00000    
     47208 TIP3     4200     SWM4     H2       HDW      0.557330       1.00800           0   0.00000       0.00000    
     47209 TIP3     4201     SWM4     OH2      ODW       1.71640       15.5994           0 -0.978253       1.30000    
     47210 TIP3     4201     SWM4     DOH2     DOH2     -1.71640      0.400000           0   0.00000       0.00000    
     47211 TIP3     4201     SWM4     OM       LPDW     -1.11466       0.00000          -1   0.00000       0.00000    
     47212 TIP3     4201     SWM4     H1       HDW      0.557330       1.00800           0   0.00000       0.00000    
     47213 TIP3     4201     SWM4     H2       HDW      0.557330       1.00800           0   0.00000       0.00000    
     47214 TIP3     4202     SWM4     OH2      ODW       1.71640       15.5994           0 -0.978253       1.30000    
     47215 TIP3     4202     SWM4     DOH2     DOH2     -1.71640      0.400000           0   0.00000       0.00000    
     47216 TIP3     4202     SWM4     OM       LPDW     -1.11466       0.00000          -1   0.00000       0.00000    
     47217 TIP3     4202     SWM4     H1       HDW      0.557330       1.00800           0   0.00000       0.00000    
     47218 TIP3     4202     SWM4     H2       HDW      0.557330       1.00800           0   0.00000       0.00000    
     47219 TIP3     4203     SWM4     OH2      ODW       1.71640       15.5994           0 -0.978253       1.30000    
     47220 TIP3     4203     SWM4     DOH2     DOH2     -1.71640      0.400000           0   0.00000       0.00000    
     47221 TIP3     4203     SWM4     OM       LPDW     -1.11466       0.00000          -1   0.00000       0.00000    
     47222 TIP3     4203     SWM4     H1       HDW      0.557330       1.00800           0   0.00000       0.00000    
     47223 TIP3     4203     SWM4     H2       HDW      0.557330       1.00800           0   0.00000       0.00000    
     47224 TIP3     4204     SWM4     OH2      ODW       1.71640       15.5994           0 -0.978253       1.30000    
     47225 TIP3     4204     SWM4     DOH2     DOH2     -1.71640      0.400000           0   0.00000       0.00000    
     47226 TIP3     4204     SWM4     OM       LPDW     -1.11466       0.00000          -1   0.00000       0.00000    
     47227 TIP3     4204     SWM4     H1       HDW      0.557330       1.00800           0   0.00000       0.00000    
     47228 TIP3     4204     SWM4     H2       HDW      0.557330       1.00800           0   0.00000       0.00000    
     47229 TIP3     4205     SWM4     OH2      ODW       1.71640       15.5994           0 -0.978253       1.30000    
     47230 TIP3     4205     SWM4     DOH2     DOH2     -1.71640      0.400000           0   0.00000       0.00000    
     47231 TIP3     4205     SWM4     OM       LPDW     -1.11466       0.00000          -1   0.00000       0.00000    
     47232 TIP3     4205     SWM4     H1       HDW      0.557330       1.00800           0   0.00000       0.00000    
     47233 TIP3     4205     SWM4     H2       HDW      0.557330       1.00800           0   0.00000       0.00000    
     47234 TIP3     4206     SWM4     OH2      ODW       1.71640       15.5994           0 -0.978253       1.30000    
     47235 TIP3     4206     SWM4     DOH2     DOH2     -1.71640      0.400000           0   0.00000       0.00000    
     47236 TIP3     4206     SWM4     OM       LPDW     -1.11466       0.00000          -1   0.00000       0.00000    
     47237 TIP3     4206     SWM4     H1       HDW      0.557330       1.00800           0   0.00000       0.00000    
     47238 TIP3     4206     SWM4     H2       HDW      0.557330       1.00800           0   0.00000       0.00000    
     47239 TIP3     4207     SWM4     OH2      ODW       1.71640       15.5994           0 -0.978253       1.30000    
     47240 TIP3     4207     SWM4     DOH2     DOH2     -1.71640      0.400000           0   0.00000       0.00000    
     47241 TIP3     4207     SWM4     OM       LPDW     -1.11466       0.00000          -1   0.00000       0.00000    
     47242 TIP3     4207     SWM4     H1       HDW      0.557330       1.00800           0   0.00000       0.00000    
     47243 TIP3     4207     SWM4     H2       HDW      0.557330       1.00800           0   0.00000       0.00000    
     47244 TIP3     4208     SWM4     OH2      ODW       1.71640       15.5994           0 -0.978253       1.30000    
     47245 TIP3     4208     SWM4     DOH2     DOH2     -1.71640      0.400000           0   0.00000       0.00000    
     47246 TIP3     4208     SWM4     OM       LPDW     -1.11466       0.00000          -1   0.00000       0.00000    
     47247 TIP3     4208     SWM4     H1       HDW      0.557330       1.00800           0   0.00000       0.00000    
     47248 TIP3     4208     SWM4     H2       HDW      0.557330       1.00800           0   0.00000       0.00000    
     47249 TIP3     4209     SWM4     OH2      ODW       1.71640       15.5994           0 -0.978253       1.30000    
     47250 TIP3     4209     SWM4     DOH2     DOH2     -1.71640      0.400000           0   0.00000       0.00000    
     47251 TIP3     4209     SWM4     OM       LPDW     -1.11466       0.00000          -1   0.00000       0.00000    
     47252 TIP3     4209     SWM4     H1       HDW      0.557330       1.00800           0   0.00000       0.00000    
     47253 TIP3     4209     SWM4     H2       HDW      0.557330       1.00800           0   0.00000       0.00000    
     47254 TIP3     4210     SWM4     OH2      ODW       1.71640       15.5994           0 -0.978253       1.30000    
     47255 TIP3     4210     SWM4     DOH2     DOH2     -1.71640      0.400000           0   0.00000       0.00000    
     47256 TIP3     4210     SWM4     OM       LPDW     -1.11466       0.00000          -1   0.00000       0.00000    
     47257 TIP3     4210     SWM4     H1       HDW      0.557330       1.00800           0   0.00000       0.00000    
     47258 TIP3     4210     SWM4     H2       HDW      0.557330       1.00800           0   0.00000       0.00000    
     47259 TIP3     4211     SWM4     OH2      ODW       1.71640       15.5994           0 -0.978253       1.30000    
     47260 TIP3     4211     SWM4     DOH2     DOH2     -1.71640      0.400000           0   0.00000       0.00000    
     47261 TIP3     4211     SWM4     OM       LPDW     -1.11466       0.00000          -1   0.00000       0.00000    
     47262 TIP3     4211     SWM4     H1       HDW      0.557330       1.00800           0   0.00000       0.00000    
     47263 TIP3     4211     SWM4     H2       HDW      0.557330       1.00800           0   0.00000       0.00000    
     47264 TIP3     4212     SWM4     OH2      ODW       1.71640       15.5994           0 -0.978253       1.30000    
     47265 TIP3     4212     SWM4     DOH2     DOH2     -1.71640      0.400000           0   0.00000       0.00000    
     47266 TIP3     4212     SWM4     OM       LPDW     -1.11466       0.00000          -1   0.00000       0.00000    
     47267 TIP3     4212     SWM4     H1       HDW      0.557330       1.00800           0   0.00000       0.00000    
     47268 TIP3     4212     SWM4     H2       HDW      0.557330       1.00800           0   0.00000       0.00000    
     47269 TIP3     4213     SWM4     OH2      ODW       1.71640       15.5994           0 -0.978253       1.30000    
     47270 TIP3     4213     SWM4     DOH2     DOH2     -1.71640      0.400000           0   0.00000       0.00000    
     47271 TIP3     4213     SWM4     OM       LPDW     -1.11466       0.00000          -1   0.00000       0.00000    
     47272 TIP3     4213     SWM4     H1       HDW      0.557330       1.00800           0   0.00000       0.00000    
     47273 TIP3     4213     SWM4     H2       HDW      0.557330       1.00800           0   0.00000       0.00000    
     47274 TIP3     4214     SWM4     OH2      ODW       1.71640       15.5994           0 -0.978253       1.30000    
     47275 TIP3     4214     SWM4     DOH2     DOH2     -1.71640      0.400000           0   0.00000       0.00000    
     47276 TIP3     4214     SWM4     OM       LPDW     -1.11466       0.00000          -1   0.00000       0.00000    
     47277 TIP3     4214     SWM4     H1       HDW      0.557330       1.00800           0   0.00000       0.00000    
     47278 TIP3     4214     SWM4     H2       HDW      0.557330       1.00800           0   0.00000       0.00000    
     47279 TIP3     4215     SWM4     OH2      ODW       1.71640       15.5994           0 -0.978253       1.30000    
     47280 TIP3     4215     SWM4     DOH2     DOH2     -1.71640      0.400000           0   0.00000       0.00000    
     47281 TIP3     4215     SWM4     OM       LPDW     -1.11466       0.00000          -1   0.00000       0.00000    
     47282 TIP3     4215     SWM4     H1       HDW      0.557330       1.00800           0   0.00000       0.00000    
     47283 TIP3     4215     SWM4     H2       HDW      0.557330       1.00800           0   0.00000       0.00000    
     47284 TIP3     4216     SWM4     OH2      ODW       1.71640       15.5994           0 -0.978253       1.30000    
     47285 TIP3     4216     SWM4     DOH2     DOH2     -1.71640      0.400000           0   0.00000       0.00000    
     47286 TIP3     4216     SWM4     OM       LPDW     -1.11466       0.00000          -1   0.00000       0.00000    
     47287 TIP3     4216     SWM4     H1       HDW      0.557330       1.00800           0   0.00000       0.00000    
     47288 TIP3     4216     SWM4     H2       HDW      0.557330       1.00800           0   0.00000       0.00000    
     47289 TIP3     4217     SWM4     OH2      ODW       1.71640       15.5994           0 -0.978253       1.30000    
     47290 TIP3     4217     SWM4     DOH2     DOH2     -1.71640      0.400000           0   0.00000       0.00000    
     47291 TIP3     4217     SWM4     OM       LPDW     -1.11466       0.00000          -1   0.00000       0.00000    
     47292 TIP3     4217     SWM4     H1       HDW      0.557330       1.00800           0   0.00000       0.00000    
     47293 TIP3     4217     SWM4     H2       HDW      0.557330       1.00800           0   0.00000       0.00000    
     47294 TIP3     4218     SWM4     OH2      ODW       1.71640       15.5994           0 -0.978253       1.30000    
     47295 TIP3     4218     SWM4     DOH2     DOH2     -1.71640      0.400000           0   0.00000       0.00000    
     47296 TIP3     4218     SWM4     OM       LPDW     -1.11466       0.00000          -1   0.00000       0.00000    
     47297 TIP3     4218     SWM4     H1       HDW      0.557330       1.00800           0   0.00000       0.00000    
     47298 TIP3     4218     SWM4     H2       HDW      0.557330       1.00800           0   0.00000       0.00000    
     47299 TIP3     4219     SWM4     OH2      ODW       1.71640       15.5994           0 -0.978253       1.30000    
     47300 TIP3     4219     SWM4     DOH2     DOH2     -1.71640      0.400000           0   0.00000       0.00000    
     47301 TIP3     4219     SWM4     OM       LPDW     -1.11466       0.00000          -1   0.00000       0.00000    
     47302 TIP3     4219     SWM4     H1       HDW      0.557330       1.00800           0   0.00000       0.00000    
     47303 TIP3     4219     SWM4     H2       HDW      0.557330       1.00800           0   0.00000       0.00000    
     47304 TIP3     4220     SWM4     OH2      ODW       1.71640       15.5994           0 -0.978253       1.30000    
     47305 TIP3     4220     SWM4     DOH2     DOH2     -1.71640      0.400000           0   0.00000       0.00000    
     47306 TIP3     4220     SWM4     OM       LPDW     -1.11466       0.00000          -1   0.00000       0.00000    
     47307 TIP3     4220     SWM4     H1       HDW      0.557330       1.00800           0   0.00000       0.00000    
     47308 TIP3     4220     SWM4     H2       HDW      0.557330       1.00800           0   0.00000       0.00000    
     47309 TIP3     4221     SWM4     OH2      ODW       1.71640       15.5994           0 -0.978253       1.30000    
     47310 TIP3     4221     SWM4     DOH2     DOH2     -1.71640      0.400000           0   0.00000       0.00000    
     47311 TIP3     4221     SWM4     OM       LPDW     -1.11466       0.00000          -1   0.00000       0.00000    
     47312 TIP3     4221     SWM4     H1       HDW      0.557330       1.00800           0   0.00000       0.00000    
     47313 TIP3     4221     SWM4     H2       HDW      0.557330       1.00800           0   0.00000       0.00000    
     47314 TIP3     4222     SWM4     OH2      ODW       1.71640       15.5994           0 -0.978253       1.30000    
     47315 TIP3     4222     SWM4     DOH2     DOH2     -1.71640      0.400000           0   0.00000       0.00000    
     47316 TIP3     4222     SWM4     OM       LPDW     -1.11466       0.00000          -1   0.00000       0.00000    
     47317 TIP3     4222     SWM4     H1       HDW      0.557330       1.00800           0   0.00000       0.00000    
     47318 TIP3     4222     SWM4     H2       HDW      0.557330       1.00800           0   0.00000       0.00000    
     47319 TIP3     4223     SWM4     OH2      ODW       1.71640       15.5994           0 -0.978253       1.30000    
     47320 TIP3     4223     SWM4     DOH2     DOH2     -1.71640      0.400000           0   0.00000       0.00000    
     47321 TIP3     4223     SWM4     OM       LPDW     -1.11466       0.00000          -1   0.00000       0.00000    
     47322 TIP3     4223     SWM4     H1       HDW      0.557330       1.00800           0   0.00000       0.00000    
     47323 TIP3     4223     SWM4     H2       HDW      0.557330       1.00800           0   0.00000       0.00000    
     47324 TIP3     4224     SWM4     OH2      ODW       1.71640       15.5994           0 -0.978253       1.30000    
     47325 TIP3     4224     SWM4     DOH2     DOH2     -1.71640      0.400000           0   0.00000       0.00000    
     47326 TIP3     4224     SWM4     OM       LPDW     -1.11466       0.00000          -1   0.00000       0.00000    
     47327 TIP3     4224     SWM4     H1       HDW      0.557330       1.00800           0   0.00000       0.00000    
     47328 TIP3     4224     SWM4     H2       HDW      0.557330       1.00800           0   0.00000       0.00000    
     47329 TIP3     4225     SWM4     OH2      ODW       1.71640       15.5994           0 -0.978253       1.30000    
     47330 TIP3     4225     SWM4     DOH2     DOH2     -1.71640      0.400000           0   0.00000       0.00000    
     47331 TIP3     4225     SWM4     OM       LPDW     -1.11466       0.00000          -1   0.00000       0.00000    
     47332 TIP3     4225     SWM4     H1       HDW      0.557330       1.00800           0   0.00000       0.00000    
     47333 TIP3     4225     SWM4     H2       HDW      0.557330       1.00800           0   0.00000       0.00000    
     47334 TIP3     4226     SWM4     OH2      ODW       1.71640       15.5994           0 -0.978253       1.30000    
     47335 TIP3     4226     SWM4     DOH2     DOH2     -1.71640      0.400000           0   0.00000       0.00000    
     47336 TIP3     4226     SWM4     OM       LPDW     -1.11466       0.00000          -1   0.00000       0.00000    
     47337 TIP3     4226     SWM4     H1       HDW      0.557330       1.00800           0   0.00000       0.00000    
     47338 TIP3     4226     SWM4     H2       HDW      0.557330       1.00800           0   0.00000       0.00000    
     47339 TIP3     4227     SWM4     OH2      ODW       1.71640       15.5994           0 -0.978253       1.30000    
     47340 TIP3     4227     SWM4     DOH2     DOH2     -1.71640      0.400000           0   0.00000       0.00000    
     47341 TIP3     4227     SWM4     OM       LPDW     -1.11466       0.00000          -1   0.00000       0.00000    
     47342 TIP3     4227     SWM4     H1       HDW      0.557330       1.00800           0   0.00000       0.00000    
     47343 TIP3     4227     SWM4     H2       HDW      0.557330       1.00800           0   0.00000       0.00000    
     47344 TIP3     4228     SWM4     OH2      ODW       1.71640       15.5994           0 -0.978253       1.30000    
     47345 TIP3     4228     SWM4     DOH2     DOH2     -1.71640      0.400000           0   0.00000       0.00000    
     47346 TIP3     4228     SWM4     OM       LPDW     -1.11466       0.00000          -1   0.00000       0.00000    
     47347 TIP3     4228     SWM4     H1       HDW      0.557330       1.00800           0   0.00000       0.00000    
     47348 TIP3     4228     SWM4     H2       HDW      0.557330       1.00800           0   0.00000       0.00000    
     47349 TIP3     4229     SWM4     OH2      ODW       1.71640       15.5994           0 -0.978253       1.30000    
     47350 TIP3     4229     SWM4     DOH2     DOH2     -1.71640      0.400000           0   0.00000       0.00000    
     47351 TIP3     4229     SWM4     OM       LPDW     -1.11466       0.00000          -1   0.00000       0.00000    
     47352 TIP3     4229     SWM4     H1       HDW      0.557330       1.00800           0   0.00000       0.00000    
     47353 TIP3     4229     SWM4     H2       HDW      0.557330       1.00800           0   0.00000       0.00000    
     47354 TIP3     4230     SWM4     OH2      ODW       1.71640       15.5994           0 -0.978253       1.30000    
     47355 TIP3     4230     SWM4     DOH2     DOH2     -1.71640      0.400000           0   0.00000       0.00000    
     47356 TIP3     4230     SWM4     OM       LPDW     -1.11466       0.00000          -1   0.00000       0.00000    
     47357 TIP3     4230     SWM4     H1       HDW      0.557330       1.00800           0   0.00000       0.00000    
     47358 TIP3     4230     SWM4     H2       HDW      0.557330       1.00800           0   0.00000       0.00000    
     47359 TIP3     4231     SWM4     OH2      ODW       1.71640       15.5994           0 -0.978253       1.30000    
     47360 TIP3     4231     SWM4     DOH2     DOH2     -1.71640      0.400000           0   0.00000       0.00000    
     47361 TIP3     4231     SWM4     OM       LPDW     -1.11466       0.00000          -1   0.00000       0.00000    
     47362 TIP3     4231     SWM4     H1       HDW      0.557330       1.00800           0   0.00000       0.00000    
     47363 TIP3     4231     SWM4     H2       HDW      0.557330       1.00800           0   0.00000       0.00000    
     47364 TIP3     4232     SWM4     OH2      ODW       1.71640       15.5994           0 -0.978253       1.30000    
     47365 TIP3     4232     SWM4     DOH2     DOH2     -1.71640      0.400000           0   0.00000       0.00000    
     47366 TIP3     4232     SWM4     OM       LPDW     -1.11466       0.00000          -1   0.00000       0.00000    
     47367 TIP3     4232     SWM4     H1       HDW      0.557330       1.00800           0   0.00000       0.00000    
     47368 TIP3     4232     SWM4     H2       HDW      0.557330       1.00800           0   0.00000       0.00000    
     47369 TIP3     4233     SWM4     OH2      ODW       1.71640       15.5994           0 -0.978253       1.30000    
     47370 TIP3     4233     SWM4     DOH2     DOH2     -1.71640      0.400000           0   0.00000       0.00000    
     47371 TIP3     4233     SWM4     OM       LPDW     -1.11466       0.00000          -1   0.00000       0.00000    
     47372 TIP3     4233     SWM4     H1       HDW      0.557330       1.00800           0   0.00000       0.00000    
     47373 TIP3     4233     SWM4     H2       HDW      0.557330       1.00800           0   0.00000       0.00000    
     47374 TIP3     4234     SWM4     OH2      ODW       1.71640       15.5994           0 -0.978253       1.30000    
     47375 TIP3     4234     SWM4     DOH2     DOH2     -1.71640      0.400000           0   0.00000       0.00000    
     47376 TIP3     4234     SWM4     OM       LPDW     -1.11466       0.00000          -1   0.00000       0.00000    
     47377 TIP3     4234     SWM4     H1       HDW      0.557330       1.00800           0   0.00000       0.00000    
     47378 TIP3     4234     SWM4     H2       HDW      0.557330       1.00800           0   0.00000       0.00000    
     47379 TIP3     4235     SWM4     OH2      ODW       1.71640       15.5994           0 -0.978253       1.30000    
     47380 TIP3     4235     SWM4     DOH2     DOH2     -1.71640      0.400000           0   0.00000       0.00000    
     47381 TIP3     4235     SWM4     OM       LPDW     -1.11466       0.00000          -1   0.00000       0.00000    
     47382 TIP3     4235     SWM4     H1       HDW      0.557330       1.00800           0   0.00000       0.00000    
     47383 TIP3     4235     SWM4     H2       HDW      0.557330       1.00800           0   0.00000       0.00000    
     47384 TIP3     4236     SWM4     OH2      ODW       1.71640       15.5994           0 -0.978253       1.30000    
     47385 TIP3     4236     SWM4     DOH2     DOH2     -1.71640      0.400000           0   0.00000       0.00000    
     47386 TIP3     4236     SWM4     OM       LPDW     -1.11466       0.00000          -1   0.00000       0.00000    
     47387 TIP3     4236     SWM4     H1       HDW      0.557330       1.00800           0   0.00000       0.00000    
     47388 TIP3     4236     SWM4     H2       HDW      0.557330       1.00800           0   0.00000       0.00000    
     47389 TIP3     4237     SWM4     OH2      ODW       1.71640       15.5994           0 -0.978253       1.30000    
     47390 TIP3     4237     SWM4     DOH2     DOH2     -1.71640      0.400000           0   0.00000       0.00000    
     47391 TIP3     4237     SWM4     OM       LPDW     -1.11466       0.00000          -1   0.00000       0.00000    
     47392 TIP3     4237     SWM4     H1       HDW      0.557330       1.00800           0   0.00000       0.00000    
     47393 TIP3     4237     SWM4     H2       HDW      0.557330       1.00800           0   0.00000       0.00000    
     47394 TIP3     4238     SWM4     OH2      ODW       1.71640       15.5994           0 -0.978253       1.30000    
     47395 TIP3     4238     SWM4     DOH2     DOH2     -1.71640      0.400000           0   0.00000       0.00000    
     47396 TIP3     4238     SWM4     OM       LPDW     -1.11466       0.00000          -1   0.00000       0.00000    
     47397 TIP3     4238     SWM4     H1       HDW      0.557330       1.00800           0   0.00000       0.00000    
     47398 TIP3     4238     SWM4     H2       HDW      0.557330       1.00800           0   0.00000       0.00000    
     47399 TIP3     4239     SWM4     OH2      ODW       1.71640       15.5994           0 -0.978253       1.30000    
     47400 TIP3     4239     SWM4     DOH2     DOH2     -1.71640      0.400000           0   0.00000       0.00000    
     47401 TIP3     4239     SWM4     OM       LPDW     -1.11466       0.00000          -1   0.00000       0.00000    
     47402 TIP3     4239     SWM4     H1       HDW      0.557330       1.00800           0   0.00000       0.00000    
     47403 TIP3     4239     SWM4     H2       HDW      0.557330       1.00800           0   0.00000       0.00000    
     47404 TIP3     4240     SWM4     OH2      ODW       1.71640       15.5994           0 -0.978253       1.30000    
     47405 TIP3     4240     SWM4     DOH2     DOH2     -1.71640      0.400000           0   0.00000       0.00000    
     47406 TIP3     4240     SWM4     OM       LPDW     -1.11466       0.00000          -1   0.00000       0.00000    
     47407 TIP3     4240     SWM4     H1       HDW      0.557330       1.00800           0   0.00000       0.00000    
     47408 TIP3     4240     SWM4     H2       HDW      0.557330       1.00800           0   0.00000       0.00000    
     47409 TIP3     4241     SWM4     OH2      ODW       1.71640       15.5994           0 -0.978253       1.30000    
     47410 TIP3     4241     SWM4     DOH2     DOH2     -1.71640      0.400000           0   0.00000       0.00000    
     47411 TIP3     4241     SWM4     OM       LPDW     -1.11466       0.00000          -1   0.00000       0.00000    
     47412 TIP3     4241     SWM4     H1       HDW      0.557330       1.00800           0   0.00000       0.00000    
     47413 TIP3     4241     SWM4     H2       HDW      0.557330       1.00800           0   0.00000       0.00000    
     47414 TIP3     4242     SWM4     OH2      ODW       1.71640       15.5994           0 -0.978253       1.30000    
     47415 TIP3     4242     SWM4     DOH2     DOH2     -1.71640      0.400000           0   0.00000       0.00000    
     47416 TIP3     4242     SWM4     OM       LPDW     -1.11466       0.00000          -1   0.00000       0.00000    
     47417 TIP3     4242     SWM4     H1       HDW      0.557330       1.00800           0   0.00000       0.00000    
     47418 TIP3     4242     SWM4     H2       HDW      0.557330       1.00800           0   0.00000       0.00000    
     47419 TIP3     4243     SWM4     OH2      ODW       1.71640       15.5994           0 -0.978253       1.30000    
     47420 TIP3     4243     SWM4     DOH2     DOH2     -1.71640      0.400000           0   0.00000       0.00000    
     47421 TIP3     4243     SWM4     OM       LPDW     -1.11466       0.00000          -1   0.00000       0.00000    
     47422 TIP3     4243     SWM4     H1       HDW      0.557330       1.00800           0   0.00000       0.00000    
     47423 TIP3     4243     SWM4     H2       HDW      0.557330       1.00800           0   0.00000       0.00000    
     47424 TIP3     4244     SWM4     OH2      ODW       1.71640       15.5994           0 -0.978253       1.30000    
     47425 TIP3     4244     SWM4     DOH2     DOH2     -1.71640      0.400000           0   0.00000       0.00000    
     47426 TIP3     4244     SWM4     OM       LPDW     -1.11466       0.00000          -1   0.00000       0.00000    
     47427 TIP3     4244     SWM4     H1       HDW      0.557330       1.00800           0   0.00000       0.00000    
     47428 TIP3     4244     SWM4     H2       HDW      0.557330       1.00800           0   0.00000       0.00000    
     47429 TIP3     4245     SWM4     OH2      ODW       1.71640       15.5994           0 -0.978253       1.30000    
     47430 TIP3     4245     SWM4     DOH2     DOH2     -1.71640      0.400000           0   0.00000       0.00000    
     47431 TIP3     4245     SWM4     OM       LPDW     -1.11466       0.00000          -1   0.00000       0.00000    
     47432 TIP3     4245     SWM4     H1       HDW      0.557330       1.00800           0   0.00000       0.00000    
     47433 TIP3     4245     SWM4     H2       HDW      0.557330       1.00800           0   0.00000       0.00000    
     47434 TIP3     4246     SWM4     OH2      ODW       1.71640       15.5994           0 -0.978253       1.30000    
     47435 TIP3     4246     SWM4     DOH2     DOH2     -1.71640      0.400000           0   0.00000       0.00000    
     47436 TIP3     4246     SWM4     OM       LPDW     -1.11466       0.00000          -1   0.00000       0.00000    
     47437 TIP3     4246     SWM4     H1       HDW      0.557330       1.00800           0   0.00000       0.00000    
     47438 TIP3     4246     SWM4     H2       HDW      0.557330       1.00800           0   0.00000       0.00000    
     47439 TIP3     4247     SWM4     OH2      ODW       1.71640       15.5994           0 -0.978253       1.30000    
     47440 TIP3     4247     SWM4     DOH2     DOH2     -1.71640      0.400000           0   0.00000       0.00000    
     47441 TIP3     4247     SWM4     OM       LPDW     -1.11466       0.00000          -1   0.00000       0.00000    
     47442 TIP3     4247     SWM4     H1       HDW      0.557330       1.00800           0   0.00000       0.00000    
     47443 TIP3     4247     SWM4     H2       HDW      0.557330       1.00800           0   0.00000       0.00000    
     47444 TIP3     4248     SWM4     OH2      ODW       1.71640       15.5994           0 -0.978253       1.30000    
     47445 TIP3     4248     SWM4     DOH2     DOH2     -1.71640      0.400000           0   0.00000       0.00000    
     47446 TIP3     4248     SWM4     OM       LPDW     -1.11466       0.00000          -1   0.00000       0.00000    
     47447 TIP3     4248     SWM4     H1       HDW      0.557330       1.00800           0   0.00000       0.00000    
     47448 TIP3     4248     SWM4     H2       HDW      0.557330       1.00800           0   0.00000       0.00000    
     47449 TIP3     4249     SWM4     OH2      ODW       1.71640       15.5994           0 -0.978253       1.30000    
     47450 TIP3     4249     SWM4     DOH2     DOH2     -1.71640      0.400000           0   0.00000       0.00000    
     47451 TIP3     4249     SWM4     OM       LPDW     -1.11466       0.00000          -1   0.00000       0.00000    
     47452 TIP3     4249     SWM4     H1       HDW      0.557330       1.00800           0   0.00000       0.00000    
     47453 TIP3     4249     SWM4     H2       HDW      0.557330       1.00800           0   0.00000       0.00000    
     47454 TIP3     4250     SWM4     OH2      ODW       1.71640       15.5994           0 -0.978253       1.30000    
     47455 TIP3     4250     SWM4     DOH2     DOH2     -1.71640      0.400000           0   0.00000       0.00000    
     47456 TIP3     4250     SWM4     OM       LPDW     -1.11466       0.00000          -1   0.00000       0.00000    
     47457 TIP3     4250     SWM4     H1       HDW      0.557330       1.00800           0   0.00000       0.00000    
     47458 TIP3     4250     SWM4     H2       HDW      0.557330       1.00800           0   0.00000       0.00000    
     47459 TIP3     4251     SWM4     OH2      ODW       1.71640       15.5994           0 -0.978253       1.30000    
     47460 TIP3     4251     SWM4     DOH2     DOH2     -1.71640      0.400000           0   0.00000       0.00000    
     47461 TIP3     4251     SWM4     OM       LPDW     -1.11466       0.00000          -1   0.00000       0.00000    
     47462 TIP3     4251     SWM4     H1       HDW      0.557330       1.00800           0   0.00000       0.00000    
     47463 TIP3     4251     SWM4     H2       HDW      0.557330       1.00800           0   0.00000       0.00000    
     47464 TIP3     4252     SWM4     OH2      ODW       1.71640       15.5994           0 -0.978253       1.30000    
     47465 TIP3     4252     SWM4     DOH2     DOH2     -1.71640      0.400000           0   0.00000       0.00000    
     47466 TIP3     4252     SWM4     OM       LPDW     -1.11466       0.00000          -1   0.00000       0.00000    
     47467 TIP3     4252     SWM4     H1       HDW      0.557330       1.00800           0   0.00000       0.00000    
     47468 TIP3     4252     SWM4     H2       HDW      0.557330       1.00800           0   0.00000       0.00000    
     47469 TIP3     4253     SWM4     OH2      ODW       1.71640       15.5994           0 -0.978253       1.30000    
     47470 TIP3     4253     SWM4     DOH2     DOH2     -1.71640      0.400000           0   0.00000       0.00000    
     47471 TIP3     4253     SWM4     OM       LPDW     -1.11466       0.00000          -1   0.00000       0.00000    
     47472 TIP3     4253     SWM4     H1       HDW      0.557330       1.00800           0   0.00000       0.00000    
     47473 TIP3     4253     SWM4     H2       HDW      0.557330       1.00800           0   0.00000       0.00000    
     47474 TIP3     4254     SWM4     OH2      ODW       1.71640       15.5994           0 -0.978253       1.30000    
     47475 TIP3     4254     SWM4     DOH2     DOH2     -1.71640      0.400000           0   0.00000       0.00000    
     47476 TIP3     4254     SWM4     OM       LPDW     -1.11466       0.00000          -1   0.00000       0.00000    
     47477 TIP3     4254     SWM4     H1       HDW      0.557330       1.00800           0   0.00000       0.00000    
     47478 TIP3     4254     SWM4     H2       HDW      0.557330       1.00800           0   0.00000       0.00000    
     47479 TIP3     4255     SWM4     OH2      ODW       1.71640       15.5994           0 -0.978253       1.30000    
     47480 TIP3     4255     SWM4     DOH2     DOH2     -1.71640      0.400000           0   0.00000       0.00000    
     47481 TIP3     4255     SWM4     OM       LPDW     -1.11466       0.00000          -1   0.00000       0.00000    
     47482 TIP3     4255     SWM4     H1       HDW      0.557330       1.00800           0   0.00000       0.00000    
     47483 TIP3     4255     SWM4     H2       HDW      0.557330       1.00800           0   0.00000       0.00000    
     47484 TIP3     4256     SWM4     OH2      ODW       1.71640       15.5994           0 -0.978253       1.30000    
     47485 TIP3     4256     SWM4     DOH2     DOH2     -1.71640      0.400000           0   0.00000       0.00000    
     47486 TIP3     4256     SWM4     OM       LPDW     -1.11466       0.00000          -1   0.00000       0.00000    
     47487 TIP3     4256     SWM4     H1       HDW      0.557330       1.00800           0   0.00000       0.00000    
     47488 TIP3     4256     SWM4     H2       HDW      0.557330       1.00800           0   0.00000       0.00000    
     47489 TIP3     4257     SWM4     OH2      ODW       1.71640       15.5994           0 -0.978253       1.30000    
     47490 TIP3     4257     SWM4     DOH2     DOH2     -1.71640      0.400000           0   0.00000       0.00000    
     47491 TIP3     4257     SWM4     OM       LPDW     -1.11466       0.00000          -1   0.00000       0.00000    
     47492 TIP3     4257     SWM4     H1       HDW      0.557330       1.00800           0   0.00000       0.00000    
     47493 TIP3     4257     SWM4     H2       HDW      0.557330       1.00800           0   0.00000       0.00000    
     47494 TIP3     4258     SWM4     OH2      ODW       1.71640       15.5994           0 -0.978253       1.30000    
     47495 TIP3     4258     SWM4     DOH2     DOH2     -1.71640      0.400000           0   0.00000       0.00000    
     47496 TIP3     4258     SWM4     OM       LPDW     -1.11466       0.00000          -1   0.00000       0.00000    
     47497 TIP3     4258     SWM4     H1       HDW      0.557330       1.00800           0   0.00000       0.00000    
     47498 TIP3     4258     SWM4     H2       HDW      0.557330       1.00800           0   0.00000       0.00000    
     47499 TIP3     4259     SWM4     OH2      ODW       1.71640       15.5994           0 -0.978253       1.30000    
     47500 TIP3     4259     SWM4     DOH2     DOH2     -1.71640      0.400000           0   0.00000       0.00000    
     47501 TIP3     4259     SWM4     OM       LPDW     -1.11466       0.00000          -1   0.00000       0.00000    
     47502 TIP3     4259     SWM4     H1       HDW      0.557330       1.00800           0   0.00000       0.00000    
     47503 TIP3     4259     SWM4     H2       HDW      0.557330       1.00800           0   0.00000       0.00000    
     47504 TIP3     4260     SWM4     OH2      ODW       1.71640       15.5994           0 -0.978253       1.30000    
     47505 TIP3     4260     SWM4     DOH2     DOH2     -1.71640      0.400000           0   0.00000       0.00000    
     47506 TIP3     4260     SWM4     OM       LPDW     -1.11466       0.00000          -1   0.00000       0.00000    
     47507 TIP3     4260     SWM4     H1       HDW      0.557330       1.00800           0   0.00000       0.00000    
     47508 TIP3     4260     SWM4     H2       HDW      0.557330       1.00800           0   0.00000       0.00000    
     47509 TIP3     4261     SWM4     OH2      ODW       1.71640       15.5994           0 -0.978253       1.30000    
     47510 TIP3     4261     SWM4     DOH2     DOH2     -1.71640      0.400000           0   0.00000       0.00000    
     47511 TIP3     4261     SWM4     OM       LPDW     -1.11466       0.00000          -1   0.00000       0.00000    
     47512 TIP3     4261     SWM4     H1       HDW      0.557330       1.00800           0   0.00000       0.00000    
     47513 TIP3     4261     SWM4     H2       HDW      0.557330       1.00800           0   0.00000       0.00000    
     47514 TIP3     4262     SWM4     OH2      ODW       1.71640       15.5994           0 -0.978253       1.30000    
     47515 TIP3     4262     SWM4     DOH2     DOH2     -1.71640      0.400000           0   0.00000       0.00000    
     47516 TIP3     4262     SWM4     OM       LPDW     -1.11466       0.00000          -1   0.00000       0.00000    
     47517 TIP3     4262     SWM4     H1       HDW      0.557330       1.00800           0   0.00000       0.00000    
     47518 TIP3     4262     SWM4     H2       HDW      0.557330       1.00800           0   0.00000       0.00000    
     47519 TIP3     4263     SWM4     OH2      ODW       1.71640       15.5994           0 -0.978253       1.30000    
     47520 TIP3     4263     SWM4     DOH2     DOH2     -1.71640      0.400000           0   0.00000       0.00000    
     47521 TIP3     4263     SWM4     OM       LPDW     -1.11466       0.00000          -1   0.00000       0.00000    
     47522 TIP3     4263     SWM4     H1       HDW      0.557330       1.00800           0   0.00000       0.00000    
     47523 TIP3     4263     SWM4     H2       HDW      0.557330       1.00800           0   0.00000       0.00000    
     47524 TIP3     4264     SWM4     OH2      ODW       1.71640       15.5994           0 -0.978253       1.30000    
     47525 TIP3     4264     SWM4     DOH2     DOH2     -1.71640      0.400000           0   0.00000       0.00000    
     47526 TIP3     4264     SWM4     OM       LPDW     -1.11466       0.00000          -1   0.00000       0.00000    
     47527 TIP3     4264     SWM4     H1       HDW      0.557330       1.00800           0   0.00000       0.00000    
     47528 TIP3     4264     SWM4     H2       HDW      0.557330       1.00800           0   0.00000       0.00000    
     47529 TIP3     4265     SWM4     OH2      ODW       1.71640       15.5994           0 -0.978253       1.30000    
     47530 TIP3     4265     SWM4     DOH2     DOH2     -1.71640      0.400000           0   0.00000       0.00000    
     47531 TIP3     4265     SWM4     OM       LPDW     -1.11466       0.00000          -1   0.00000       0.00000    
     47532 TIP3     4265     SWM4     H1       HDW      0.557330       1.00800           0   0.00000       0.00000    
     47533 TIP3     4265     SWM4     H2       HDW      0.557330       1.00800           0   0.00000       0.00000    
     47534 TIP3     4266     SWM4     OH2      ODW       1.71640       15.5994           0 -0.978253       1.30000    
     47535 TIP3     4266     SWM4     DOH2     DOH2     -1.71640      0.400000           0   0.00000       0.00000    
     47536 TIP3     4266     SWM4     OM       LPDW     -1.11466       0.00000          -1   0.00000       0.00000    
     47537 TIP3     4266     SWM4     H1       HDW      0.557330       1.00800           0   0.00000       0.00000    
     47538 TIP3     4266     SWM4     H2       HDW      0.557330       1.00800           0   0.00000       0.00000    
     47539 TIP3     4267     SWM4     OH2      ODW       1.71640       15.5994           0 -0.978253       1.30000    
     47540 TIP3     4267     SWM4     DOH2     DOH2     -1.71640      0.400000           0   0.00000       0.00000    
     47541 TIP3     4267     SWM4     OM       LPDW     -1.11466       0.00000          -1   0.00000       0.00000    
     47542 TIP3     4267     SWM4     H1       HDW      0.557330       1.00800           0   0.00000       0.00000    
     47543 TIP3     4267     SWM4     H2       HDW      0.557330       1.00800           0   0.00000       0.00000    
     47544 TIP3     4268     SWM4     OH2      ODW       1.71640       15.5994           0 -0.978253       1.30000    
     47545 TIP3     4268     SWM4     DOH2     DOH2     -1.71640      0.400000           0   0.00000       0.00000    
     47546 TIP3     4268     SWM4     OM       LPDW     -1.11466       0.00000          -1   0.00000       0.00000    
     47547 TIP3     4268     SWM4     H1       HDW      0.557330       1.00800           0   0.00000       0.00000    
     47548 TIP3     4268     SWM4     H2       HDW      0.557330       1.00800           0   0.00000       0.00000    
     47549 TIP3     4269     SWM4     OH2      ODW       1.71640       15.5994           0 -0.978253       1.30000    
     47550 TIP3     4269     SWM4     DOH2     DOH2     -1.71640      0.400000           0   0.00000       0.00000    
     47551 TIP3     4269     SWM4     OM       LPDW     -1.11466       0.00000          -1   0.00000       0.00000    
     47552 TIP3     4269     SWM4     H1       HDW      0.557330       1.00800           0   0.00000       0.00000    
     47553 TIP3     4269     SWM4     H2       HDW      0.557330       1.00800           0   0.00000       0.00000    
     47554 TIP3     4270     SWM4     OH2      ODW       1.71640       15.5994           0 -0.978253       1.30000    
     47555 TIP3     4270     SWM4     DOH2     DOH2     -1.71640      0.400000           0   0.00000       0.00000    
     47556 TIP3     4270     SWM4     OM       LPDW     -1.11466       0.00000          -1   0.00000       0.00000    
     47557 TIP3     4270     SWM4     H1       HDW      0.557330       1.00800           0   0.00000       0.00000    
     47558 TIP3     4270     SWM4     H2       HDW      0.557330       1.00800           0   0.00000       0.00000    
     47559 TIP3     4271     SWM4     OH2      ODW       1.71640       15.5994           0 -0.978253       1.30000    
     47560 TIP3     4271     SWM4     DOH2     DOH2     -1.71640      0.400000           0   0.00000       0.00000    
     47561 TIP3     4271     SWM4     OM       LPDW     -1.11466       0.00000          -1   0.00000       0.00000    
     47562 TIP3     4271     SWM4     H1       HDW      0.557330       1.00800           0   0.00000       0.00000    
     47563 TIP3     4271     SWM4     H2       HDW      0.557330       1.00800           0   0.00000       0.00000    
     47564 TIP3     4272     SWM4     OH2      ODW       1.71640       15.5994           0 -0.978253       1.30000    
     47565 TIP3     4272     SWM4     DOH2     DOH2     -1.71640      0.400000           0   0.00000       0.00000    
     47566 TIP3     4272     SWM4     OM       LPDW     -1.11466       0.00000          -1   0.00000       0.00000    
     47567 TIP3     4272     SWM4     H1       HDW      0.557330       1.00800           0   0.00000       0.00000    
     47568 TIP3     4272     SWM4     H2       HDW      0.557330       1.00800           0   0.00000       0.00000    
     47569 TIP3     4273     SWM4     OH2      ODW       1.71640       15.5994           0 -0.978253       1.30000    
     47570 TIP3     4273     SWM4     DOH2     DOH2     -1.71640      0.400000           0   0.00000       0.00000    
     47571 TIP3     4273     SWM4     OM       LPDW     -1.11466       0.00000          -1   0.00000       0.00000    
     47572 TIP3     4273     SWM4     H1       HDW      0.557330       1.00800           0   0.00000       0.00000    
     47573 TIP3     4273     SWM4     H2       HDW      0.557330       1.00800           0   0.00000       0.00000    
     47574 TIP3     4274     SWM4     OH2      ODW       1.71640       15.5994           0 -0.978253       1.30000    
     47575 TIP3     4274     SWM4     DOH2     DOH2     -1.71640      0.400000           0   0.00000       0.00000    
     47576 TIP3     4274     SWM4     OM       LPDW     -1.11466       0.00000          -1   0.00000       0.00000    
     47577 TIP3     4274     SWM4     H1       HDW      0.557330       1.00800           0   0.00000       0.00000    
     47578 TIP3     4274     SWM4     H2       HDW      0.557330       1.00800           0   0.00000       0.00000    
     47579 TIP3     4275     SWM4     OH2      ODW       1.71640       15.5994           0 -0.978253       1.30000    
     47580 TIP3     4275     SWM4     DOH2     DOH2     -1.71640      0.400000           0   0.00000       0.00000    
     47581 TIP3     4275     SWM4     OM       LPDW     -1.11466       0.00000          -1   0.00000       0.00000    
     47582 TIP3     4275     SWM4     H1       HDW      0.557330       1.00800           0   0.00000       0.00000    
     47583 TIP3     4275     SWM4     H2       HDW      0.557330       1.00800           0   0.00000       0.00000    
     47584 TIP3     4276     SWM4     OH2      ODW       1.71640       15.5994           0 -0.978253       1.30000    
     47585 TIP3     4276     SWM4     DOH2     DOH2     -1.71640      0.400000           0   0.00000       0.00000    
     47586 TIP3     4276     SWM4     OM       LPDW     -1.11466       0.00000          -1   0.00000       0.00000    
     47587 TIP3     4276     SWM4     H1       HDW      0.557330       1.00800           0   0.00000       0.00000    
     47588 TIP3     4276     SWM4     H2       HDW      0.557330       1.00800           0   0.00000       0.00000    
     47589 TIP3     4277     SWM4     OH2      ODW       1.71640       15.5994           0 -0.978253       1.30000    
     47590 TIP3     4277     SWM4     DOH2     DOH2     -1.71640      0.400000           0   0.00000       0.00000    
     47591 TIP3     4277     SWM4     OM       LPDW     -1.11466       0.00000          -1   0.00000       0.00000    
     47592 TIP3     4277     SWM4     H1       HDW      0.557330       1.00800           0   0.00000       0.00000    
     47593 TIP3     4277     SWM4     H2       HDW      0.557330       1.00800           0   0.00000       0.00000    
     47594 TIP3     4278     SWM4     OH2      ODW       1.71640       15.5994           0 -0.978253       1.30000    
     47595 TIP3     4278     SWM4     DOH2     DOH2     -1.71640      0.400000           0   0.00000       0.00000    
     47596 TIP3     4278     SWM4     OM       LPDW     -1.11466       0.00000          -1   0.00000       0.00000    
     47597 TIP3     4278     SWM4     H1       HDW      0.557330       1.00800           0   0.00000       0.00000    
     47598 TIP3     4278     SWM4     H2       HDW      0.557330       1.00800           0   0.00000       0.00000    
     47599 TIP3     4279     SWM4     OH2      ODW       1.71640       15.5994           0 -0.978253       1.30000    
     47600 TIP3     4279     SWM4     DOH2     DOH2     -1.71640      0.400000           0   0.00000       0.00000    
     47601 TIP3     4279     SWM4     OM       LPDW     -1.11466       0.00000          -1   0.00000       0.00000    
     47602 TIP3     4279     SWM4     H1       HDW      0.557330       1.00800           0   0.00000       0.00000    
     47603 TIP3     4279     SWM4     H2       HDW      0.557330       1.00800           0   0.00000       0.00000    
     47604 TIP3     4280     SWM4     OH2      ODW       1.71640       15.5994           0 -0.978253       1.30000    
     47605 TIP3     4280     SWM4     DOH2     DOH2     -1.71640      0.400000           0   0.00000       0.00000    
     47606 TIP3     4280     SWM4     OM       LPDW     -1.11466       0.00000          -1   0.00000       0.00000    
     47607 TIP3     4280     SWM4     H1       HDW      0.557330       1.00800           0   0.00000       0.00000    
     47608 TIP3     4280     SWM4     H2       HDW      0.557330       1.00800           0   0.00000       0.00000    
     47609 TIP3     4281     SWM4     OH2      ODW       1.71640       15.5994           0 -0.978253       1.30000    
     47610 TIP3     4281     SWM4     DOH2     DOH2     -1.71640      0.400000           0   0.00000       0.00000    
     47611 TIP3     4281     SWM4     OM       LPDW     -1.11466       0.00000          -1   0.00000       0.00000    
     47612 TIP3     4281     SWM4     H1       HDW      0.557330       1.00800           0   0.00000       0.00000    
     47613 TIP3     4281     SWM4     H2       HDW      0.557330       1.00800           0   0.00000       0.00000    
     47614 TIP3     4282     SWM4     OH2      ODW       1.71640       15.5994           0 -0.978253       1.30000    
     47615 TIP3     4282     SWM4     DOH2     DOH2     -1.71640      0.400000           0   0.00000       0.00000    
     47616 TIP3     4282     SWM4     OM       LPDW     -1.11466       0.00000          -1   0.00000       0.00000    
     47617 TIP3     4282     SWM4     H1       HDW      0.557330       1.00800           0   0.00000       0.00000    
     47618 TIP3     4282     SWM4     H2       HDW      0.557330       1.00800           0   0.00000       0.00000    
     47619 TIP3     4283     SWM4     OH2      ODW       1.71640       15.5994           0 -0.978253       1.30000    
     47620 TIP3     4283     SWM4     DOH2     DOH2     -1.71640      0.400000           0   0.00000       0.00000    
     47621 TIP3     4283     SWM4     OM       LPDW     -1.11466       0.00000          -1   0.00000       0.00000    
     47622 TIP3     4283     SWM4     H1       HDW      0.557330       1.00800           0   0.00000       0.00000    
     47623 TIP3     4283     SWM4     H2       HDW      0.557330       1.00800           0   0.00000       0.00000    
     47624 TIP3     4284     SWM4     OH2      ODW       1.71640       15.5994           0 -0.978253       1.30000    
     47625 TIP3     4284     SWM4     DOH2     DOH2     -1.71640      0.400000           0   0.00000       0.00000    
     47626 TIP3     4284     SWM4     OM       LPDW     -1.11466       0.00000          -1   0.00000       0.00000    
     47627 TIP3     4284     SWM4     H1       HDW      0.557330       1.00800           0   0.00000       0.00000    
     47628 TIP3     4284     SWM4     H2       HDW      0.557330       1.00800           0   0.00000       0.00000    
     47629 TIP3     4285     SWM4     OH2      ODW       1.71640       15.5994           0 -0.978253       1.30000    
     47630 TIP3     4285     SWM4     DOH2     DOH2     -1.71640      0.400000           0   0.00000       0.00000    
     47631 TIP3     4285     SWM4     OM       LPDW     -1.11466       0.00000          -1   0.00000       0.00000    
     47632 TIP3     4285     SWM4     H1       HDW      0.557330       1.00800           0   0.00000       0.00000    
     47633 TIP3     4285     SWM4     H2       HDW      0.557330       1.00800           0   0.00000       0.00000    
     47634 TIP3     4286     SWM4     OH2      ODW       1.71640       15.5994           0 -0.978253       1.30000    
     47635 TIP3     4286     SWM4     DOH2     DOH2     -1.71640      0.400000           0   0.00000       0.00000    
     47636 TIP3     4286     SWM4     OM       LPDW     -1.11466       0.00000          -1   0.00000       0.00000    
     47637 TIP3     4286     SWM4     H1       HDW      0.557330       1.00800           0   0.00000       0.00000    
     47638 TIP3     4286     SWM4     H2       HDW      0.557330       1.00800           0   0.00000       0.00000    
     47639 TIP3     4287     SWM4     OH2      ODW       1.71640       15.5994           0 -0.978253       1.30000    
     47640 TIP3     4287     SWM4     DOH2     DOH2     -1.71640      0.400000           0   0.00000       0.00000    
     47641 TIP3     4287     SWM4     OM       LPDW     -1.11466       0.00000          -1   0.00000       0.00000    
     47642 TIP3     4287     SWM4     H1       HDW      0.557330       1.00800           0   0.00000       0.00000    
     47643 TIP3     4287     SWM4     H2       HDW      0.557330       1.00800           0   0.00000       0.00000    
     47644 TIP3     4288     SWM4     OH2      ODW       1.71640       15.5994           0 -0.978253       1.30000    
     47645 TIP3     4288     SWM4     DOH2     DOH2     -1.71640      0.400000           0   0.00000       0.00000    
     47646 TIP3     4288     SWM4     OM       LPDW     -1.11466       0.00000          -1   0.00000       0.00000    
     47647 TIP3     4288     SWM4     H1       HDW      0.557330       1.00800           0   0.00000       0.00000    
     47648 TIP3     4288     SWM4     H2       HDW      0.557330       1.00800           0   0.00000       0.00000    
     47649 TIP3     4289     SWM4     OH2      ODW       1.71640       15.5994           0 -0.978253       1.30000    
     47650 TIP3     4289     SWM4     DOH2     DOH2     -1.71640      0.400000           0   0.00000       0.00000    
     47651 TIP3     4289     SWM4     OM       LPDW     -1.11466       0.00000          -1   0.00000       0.00000    
     47652 TIP3     4289     SWM4     H1       HDW      0.557330       1.00800           0   0.00000       0.00000    
     47653 TIP3     4289     SWM4     H2       HDW      0.557330       1.00800           0   0.00000       0.00000    
     47654 TIP3     4290     SWM4     OH2      ODW       1.71640       15.5994           0 -0.978253       1.30000    
     47655 TIP3     4290     SWM4     DOH2     DOH2     -1.71640      0.400000           0   0.00000       0.00000    
     47656 TIP3     4290     SWM4     OM       LPDW     -1.11466       0.00000          -1   0.00000       0.00000    
     47657 TIP3     4290     SWM4     H1       HDW      0.557330       1.00800           0   0.00000       0.00000    
     47658 TIP3     4290     SWM4     H2       HDW      0.557330       1.00800           0   0.00000       0.00000    
     47659 TIP3     4291     SWM4     OH2      ODW       1.71640       15.5994           0 -0.978253       1.30000    
     47660 TIP3     4291     SWM4     DOH2     DOH2     -1.71640      0.400000           0   0.00000       0.00000    
     47661 TIP3     4291     SWM4     OM       LPDW     -1.11466       0.00000          -1   0.00000       0.00000    
     47662 TIP3     4291     SWM4     H1       HDW      0.557330       1.00800           0   0.00000       0.00000    
     47663 TIP3     4291     SWM4     H2       HDW      0.557330       1.00800           0   0.00000       0.00000    
     47664 TIP3     4292     SWM4     OH2      ODW       1.71640       15.5994           0 -0.978253       1.30000    
     47665 TIP3     4292     SWM4     DOH2     DOH2     -1.71640      0.400000           0   0.00000       0.00000    
     47666 TIP3     4292     SWM4     OM       LPDW     -1.11466       0.00000          -1   0.00000       0.00000    
     47667 TIP3     4292     SWM4     H1       HDW      0.557330       1.00800           0   0.00000       0.00000    
     47668 TIP3     4292     SWM4     H2       HDW      0.557330       1.00800           0   0.00000       0.00000    
     47669 TIP3     4293     SWM4     OH2      ODW       1.71640       15.5994           0 -0.978253       1.30000    
     47670 TIP3     4293     SWM4     DOH2     DOH2     -1.71640      0.400000           0   0.00000       0.00000    
     47671 TIP3     4293     SWM4     OM       LPDW     -1.11466       0.00000          -1   0.00000       0.00000    
     47672 TIP3     4293     SWM4     H1       HDW      0.557330       1.00800           0   0.00000       0.00000    
     47673 TIP3     4293     SWM4     H2       HDW      0.557330       1.00800           0   0.00000       0.00000    
     47674 TIP3     4294     SWM4     OH2      ODW       1.71640       15.5994           0 -0.978253       1.30000    
     47675 TIP3     4294     SWM4     DOH2     DOH2     -1.71640      0.400000           0   0.00000       0.00000    
     47676 TIP3     4294     SWM4     OM       LPDW     -1.11466       0.00000          -1   0.00000       0.00000    
     47677 TIP3     4294     SWM4     H1       HDW      0.557330       1.00800           0   0.00000       0.00000    
     47678 TIP3     4294     SWM4     H2       HDW      0.557330       1.00800           0   0.00000       0.00000    
     47679 TIP3     4295     SWM4     OH2      ODW       1.71640       15.5994           0 -0.978253       1.30000    
     47680 TIP3     4295     SWM4     DOH2     DOH2     -1.71640      0.400000           0   0.00000       0.00000    
     47681 TIP3     4295     SWM4     OM       LPDW     -1.11466       0.00000          -1   0.00000       0.00000    
     47682 TIP3     4295     SWM4     H1       HDW      0.557330       1.00800           0   0.00000       0.00000    
     47683 TIP3     4295     SWM4     H2       HDW      0.557330       1.00800           0   0.00000       0.00000    
     47684 TIP3     4296     SWM4     OH2      ODW       1.71640       15.5994           0 -0.978253       1.30000    
     47685 TIP3     4296     SWM4     DOH2     DOH2     -1.71640      0.400000           0   0.00000       0.00000    
     47686 TIP3     4296     SWM4     OM       LPDW     -1.11466       0.00000          -1   0.00000       0.00000    
     47687 TIP3     4296     SWM4     H1       HDW      0.557330       1.00800           0   0.00000       0.00000    
     47688 TIP3     4296     SWM4     H2       HDW      0.557330       1.00800           0   0.00000       0.00000    
     47689 TIP3     4297     SWM4     OH2      ODW       1.71640       15.5994           0 -0.978253       1.30000    
     47690 TIP3     4297     SWM4     DOH2     DOH2     -1.71640      0.400000           0   0.00000       0.00000    
     47691 TIP3     4297     SWM4     OM       LPDW     -1.11466       0.00000          -1   0.00000       0.00000    
     47692 TIP3     4297     SWM4     H1       HDW      0.557330       1.00800           0   0.00000       0.00000    
     47693 TIP3     4297     SWM4     H2       HDW      0.557330       1.00800           0   0.00000       0.00000    
     47694 TIP3     4298     SWM4     OH2      ODW       1.71640       15.5994           0 -0.978253       1.30000    
     47695 TIP3     4298     SWM4     DOH2     DOH2     -1.71640      0.400000           0   0.00000       0.00000    
     47696 TIP3     4298     SWM4     OM       LPDW     -1.11466       0.00000          -1   0.00000       0.00000    
     47697 TIP3     4298     SWM4     H1       HDW      0.557330       1.00800           0   0.00000       0.00000    
     47698 TIP3     4298     SWM4     H2       HDW      0.557330       1.00800           0   0.00000       0.00000    
     47699 TIP3     4299     SWM4     OH2      ODW       1.71640       15.5994           0 -0.978253       1.30000    
     47700 TIP3     4299     SWM4     DOH2     DOH2     -1.71640      0.400000           0   0.00000       0.00000    
     47701 TIP3     4299     SWM4     OM       LPDW     -1.11466       0.00000          -1   0.00000       0.00000    
     47702 TIP3     4299     SWM4     H1       HDW      0.557330       1.00800           0   0.00000       0.00000    
     47703 TIP3     4299     SWM4     H2       HDW      0.557330       1.00800           0   0.00000       0.00000    
     47704 TIP3     4300     SWM4     OH2      ODW       1.71640       15.5994           0 -0.978253       1.30000    
     47705 TIP3     4300     SWM4     DOH2     DOH2     -1.71640      0.400000           0   0.00000       0.00000    
     47706 TIP3     4300     SWM4     OM       LPDW     -1.11466       0.00000          -1   0.00000       0.00000    
     47707 TIP3     4300     SWM4     H1       HDW      0.557330       1.00800           0   0.00000       0.00000    
     47708 TIP3     4300     SWM4     H2       HDW      0.557330       1.00800           0   0.00000       0.00000    
     47709 TIP3     4301     SWM4     OH2      ODW       1.71640       15.5994           0 -0.978253       1.30000    
     47710 TIP3     4301     SWM4     DOH2     DOH2     -1.71640      0.400000           0   0.00000       0.00000    
     47711 TIP3     4301     SWM4     OM       LPDW     -1.11466       0.00000          -1   0.00000       0.00000    
     47712 TIP3     4301     SWM4     H1       HDW      0.557330       1.00800           0   0.00000       0.00000    
     47713 TIP3     4301     SWM4     H2       HDW      0.557330       1.00800           0   0.00000       0.00000    
     47714 TIP3     4302     SWM4     OH2      ODW       1.71640       15.5994           0 -0.978253       1.30000    
     47715 TIP3     4302     SWM4     DOH2     DOH2     -1.71640      0.400000           0   0.00000       0.00000    
     47716 TIP3     4302     SWM4     OM       LPDW     -1.11466       0.00000          -1   0.00000       0.00000    
     47717 TIP3     4302     SWM4     H1       HDW      0.557330       1.00800           0   0.00000       0.00000    
     47718 TIP3     4302     SWM4     H2       HDW      0.557330       1.00800           0   0.00000       0.00000    
     47719 TIP3     4303     SWM4     OH2      ODW       1.71640       15.5994           0 -0.978253       1.30000    
     47720 TIP3     4303     SWM4     DOH2     DOH2     -1.71640      0.400000           0   0.00000       0.00000    
     47721 TIP3     4303     SWM4     OM       LPDW     -1.11466       0.00000          -1   0.00000       0.00000    
     47722 TIP3     4303     SWM4     H1       HDW      0.557330       1.00800           0   0.00000       0.00000    
     47723 TIP3     4303     SWM4     H2       HDW      0.557330       1.00800           0   0.00000       0.00000    
     47724 TIP3     4304     SWM4     OH2      ODW       1.71640       15.5994           0 -0.978253       1.30000    
     47725 TIP3     4304     SWM4     DOH2     DOH2     -1.71640      0.400000           0   0.00000       0.00000    
     47726 TIP3     4304     SWM4     OM       LPDW     -1.11466       0.00000          -1   0.00000       0.00000    
     47727 TIP3     4304     SWM4     H1       HDW      0.557330       1.00800           0   0.00000       0.00000    
     47728 TIP3     4304     SWM4     H2       HDW      0.557330       1.00800           0   0.00000       0.00000    
     47729 TIP3     4305     SWM4     OH2      ODW       1.71640       15.5994           0 -0.978253       1.30000    
     47730 TIP3     4305     SWM4     DOH2     DOH2     -1.71640      0.400000           0   0.00000       0.00000    
     47731 TIP3     4305     SWM4     OM       LPDW     -1.11466       0.00000          -1   0.00000       0.00000    
     47732 TIP3     4305     SWM4     H1       HDW      0.557330       1.00800           0   0.00000       0.00000    
     47733 TIP3     4305     SWM4     H2       HDW      0.557330       1.00800           0   0.00000       0.00000    
     47734 TIP3     4306     SWM4     OH2      ODW       1.71640       15.5994           0 -0.978253       1.30000    
     47735 TIP3     4306     SWM4     DOH2     DOH2     -1.71640      0.400000           0   0.00000       0.00000    
     47736 TIP3     4306     SWM4     OM       LPDW     -1.11466       0.00000          -1   0.00000       0.00000    
     47737 TIP3     4306     SWM4     H1       HDW      0.557330       1.00800           0   0.00000       0.00000    
     47738 TIP3     4306     SWM4     H2       HDW      0.557330       1.00800           0   0.00000       0.00000    
     47739 TIP3     4307     SWM4     OH2      ODW       1.71640       15.5994           0 -0.978253       1.30000    
     47740 TIP3     4307     SWM4     DOH2     DOH2     -1.71640      0.400000           0   0.00000       0.00000    
     47741 TIP3     4307     SWM4     OM       LPDW     -1.11466       0.00000          -1   0.00000       0.00000    
     47742 TIP3     4307     SWM4     H1       HDW      0.557330       1.00800           0   0.00000       0.00000    
     47743 TIP3     4307     SWM4     H2       HDW      0.557330       1.00800           0   0.00000       0.00000    
     47744 TIP3     4308     SWM4     OH2      ODW       1.71640       15.5994           0 -0.978253       1.30000    
     47745 TIP3     4308     SWM4     DOH2     DOH2     -1.71640      0.400000           0   0.00000       0.00000    
     47746 TIP3     4308     SWM4     OM       LPDW     -1.11466       0.00000          -1   0.00000       0.00000    
     47747 TIP3     4308     SWM4     H1       HDW      0.557330       1.00800           0   0.00000       0.00000    
     47748 TIP3     4308     SWM4     H2       HDW      0.557330       1.00800           0   0.00000       0.00000    
     47749 TIP3     4309     SWM4     OH2      ODW       1.71640       15.5994           0 -0.978253       1.30000    
     47750 TIP3     4309     SWM4     DOH2     DOH2     -1.71640      0.400000           0   0.00000       0.00000    
     47751 TIP3     4309     SWM4     OM       LPDW     -1.11466       0.00000          -1   0.00000       0.00000    
     47752 TIP3     4309     SWM4     H1       HDW      0.557330       1.00800           0   0.00000       0.00000    
     47753 TIP3     4309     SWM4     H2       HDW      0.557330       1.00800           0   0.00000       0.00000    
     47754 TIP3     4310     SWM4     OH2      ODW       1.71640       15.5994           0 -0.978253       1.30000    
     47755 TIP3     4310     SWM4     DOH2     DOH2     -1.71640      0.400000           0   0.00000       0.00000    
     47756 TIP3     4310     SWM4     OM       LPDW     -1.11466       0.00000          -1   0.00000       0.00000    
     47757 TIP3     4310     SWM4     H1       HDW      0.557330       1.00800           0   0.00000       0.00000    
     47758 TIP3     4310     SWM4     H2       HDW      0.557330       1.00800           0   0.00000       0.00000    
     47759 TIP3     4311     SWM4     OH2      ODW       1.71640       15.5994           0 -0.978253       1.30000    
     47760 TIP3     4311     SWM4     DOH2     DOH2     -1.71640      0.400000           0   0.00000       0.00000    
     47761 TIP3     4311     SWM4     OM       LPDW     -1.11466       0.00000          -1   0.00000       0.00000    
     47762 TIP3     4311     SWM4     H1       HDW      0.557330       1.00800           0   0.00000       0.00000    
     47763 TIP3     4311     SWM4     H2       HDW      0.557330       1.00800           0   0.00000       0.00000    
     47764 TIP3     4312     SWM4     OH2      ODW       1.71640       15.5994           0 -0.978253       1.30000    
     47765 TIP3     4312     SWM4     DOH2     DOH2     -1.71640      0.400000           0   0.00000       0.00000    
     47766 TIP3     4312     SWM4     OM       LPDW     -1.11466       0.00000          -1   0.00000       0.00000    
     47767 TIP3     4312     SWM4     H1       HDW      0.557330       1.00800           0   0.00000       0.00000    
     47768 TIP3     4312     SWM4     H2       HDW      0.557330       1.00800           0   0.00000       0.00000    
     47769 TIP3     4313     SWM4     OH2      ODW       1.71640       15.5994           0 -0.978253       1.30000    
     47770 TIP3     4313     SWM4     DOH2     DOH2     -1.71640      0.400000           0   0.00000       0.00000    
     47771 TIP3     4313     SWM4     OM       LPDW     -1.11466       0.00000          -1   0.00000       0.00000    
     47772 TIP3     4313     SWM4     H1       HDW      0.557330       1.00800           0   0.00000       0.00000    
     47773 TIP3     4313     SWM4     H2       HDW      0.557330       1.00800           0   0.00000       0.00000    
     47774 TIP3     4314     SWM4     OH2      ODW       1.71640       15.5994           0 -0.978253       1.30000    
     47775 TIP3     4314     SWM4     DOH2     DOH2     -1.71640      0.400000           0   0.00000       0.00000    
     47776 TIP3     4314     SWM4     OM       LPDW     -1.11466       0.00000          -1   0.00000       0.00000    
     47777 TIP3     4314     SWM4     H1       HDW      0.557330       1.00800           0   0.00000       0.00000    
     47778 TIP3     4314     SWM4     H2       HDW      0.557330       1.00800           0   0.00000       0.00000    
     47779 TIP3     4315     SWM4     OH2      ODW       1.71640       15.5994           0 -0.978253       1.30000    
     47780 TIP3     4315     SWM4     DOH2     DOH2     -1.71640      0.400000           0   0.00000       0.00000    
     47781 TIP3     4315     SWM4     OM       LPDW     -1.11466       0.00000          -1   0.00000       0.00000    
     47782 TIP3     4315     SWM4     H1       HDW      0.557330       1.00800           0   0.00000       0.00000    
     47783 TIP3     4315     SWM4     H2       HDW      0.557330       1.00800           0   0.00000       0.00000    
     47784 TIP3     4316     SWM4     OH2      ODW       1.71640       15.5994           0 -0.978253       1.30000    
     47785 TIP3     4316     SWM4     DOH2     DOH2     -1.71640      0.400000           0   0.00000       0.00000    
     47786 TIP3     4316     SWM4     OM       LPDW     -1.11466       0.00000          -1   0.00000       0.00000    
     47787 TIP3     4316     SWM4     H1       HDW      0.557330       1.00800           0   0.00000       0.00000    
     47788 TIP3     4316     SWM4     H2       HDW      0.557330       1.00800           0   0.00000       0.00000    
     47789 TIP3     4317     SWM4     OH2      ODW       1.71640       15.5994           0 -0.978253       1.30000    
     47790 TIP3     4317     SWM4     DOH2     DOH2     -1.71640      0.400000           0   0.00000       0.00000    
     47791 TIP3     4317     SWM4     OM       LPDW     -1.11466       0.00000          -1   0.00000       0.00000    
     47792 TIP3     4317     SWM4     H1       HDW      0.557330       1.00800           0   0.00000       0.00000    
     47793 TIP3     4317     SWM4     H2       HDW      0.557330       1.00800           0   0.00000       0.00000    
     47794 TIP3     4318     SWM4     OH2      ODW       1.71640       15.5994           0 -0.978253       1.30000    
     47795 TIP3     4318     SWM4     DOH2     DOH2     -1.71640      0.400000           0   0.00000       0.00000    
     47796 TIP3     4318     SWM4     OM       LPDW     -1.11466       0.00000          -1   0.00000       0.00000    
     47797 TIP3     4318     SWM4     H1       HDW      0.557330       1.00800           0   0.00000       0.00000    
     47798 TIP3     4318     SWM4     H2       HDW      0.557330       1.00800           0   0.00000       0.00000    
     47799 TIP3     4319     SWM4     OH2      ODW       1.71640       15.5994           0 -0.978253       1.30000    
     47800 TIP3     4319     SWM4     DOH2     DOH2     -1.71640      0.400000           0   0.00000       0.00000    
     47801 TIP3     4319     SWM4     OM       LPDW     -1.11466       0.00000          -1   0.00000       0.00000    
     47802 TIP3     4319     SWM4     H1       HDW      0.557330       1.00800           0   0.00000       0.00000    
     47803 TIP3     4319     SWM4     H2       HDW      0.557330       1.00800           0   0.00000       0.00000    
     47804 TIP3     4320     SWM4     OH2      ODW       1.71640       15.5994           0 -0.978253       1.30000    
     47805 TIP3     4320     SWM4     DOH2     DOH2     -1.71640      0.400000           0   0.00000       0.00000    
     47806 TIP3     4320     SWM4     OM       LPDW     -1.11466       0.00000          -1   0.00000       0.00000    
     47807 TIP3     4320     SWM4     H1       HDW      0.557330       1.00800           0   0.00000       0.00000    
     47808 TIP3     4320     SWM4     H2       HDW      0.557330       1.00800           0   0.00000       0.00000    
     47809 TIP3     4321     SWM4     OH2      ODW       1.71640       15.5994           0 -0.978253       1.30000    
     47810 TIP3     4321     SWM4     DOH2     DOH2     -1.71640      0.400000           0   0.00000       0.00000    
     47811 TIP3     4321     SWM4     OM       LPDW     -1.11466       0.00000          -1   0.00000       0.00000    
     47812 TIP3     4321     SWM4     H1       HDW      0.557330       1.00800           0   0.00000       0.00000    
     47813 TIP3     4321     SWM4     H2       HDW      0.557330       1.00800           0   0.00000       0.00000    
     47814 TIP3     4322     SWM4     OH2      ODW       1.71640       15.5994           0 -0.978253       1.30000    
     47815 TIP3     4322     SWM4     DOH2     DOH2     -1.71640      0.400000           0   0.00000       0.00000    
     47816 TIP3     4322     SWM4     OM       LPDW     -1.11466       0.00000          -1   0.00000       0.00000    
     47817 TIP3     4322     SWM4     H1       HDW      0.557330       1.00800           0   0.00000       0.00000    
     47818 TIP3     4322     SWM4     H2       HDW      0.557330       1.00800           0   0.00000       0.00000    
     47819 TIP3     4323     SWM4     OH2      ODW       1.71640       15.5994           0 -0.978253       1.30000    
     47820 TIP3     4323     SWM4     DOH2     DOH2     -1.71640      0.400000           0   0.00000       0.00000    
     47821 TIP3     4323     SWM4     OM       LPDW     -1.11466       0.00000          -1   0.00000       0.00000    
     47822 TIP3     4323     SWM4     H1       HDW      0.557330       1.00800           0   0.00000       0.00000    
     47823 TIP3     4323     SWM4     H2       HDW      0.557330       1.00800           0   0.00000       0.00000    
     47824 TIP3     4324     SWM4     OH2      ODW       1.71640       15.5994           0 -0.978253       1.30000    
     47825 TIP3     4324     SWM4     DOH2     DOH2     -1.71640      0.400000           0   0.00000       0.00000    
     47826 TIP3     4324     SWM4     OM       LPDW     -1.11466       0.00000          -1   0.00000       0.00000    
     47827 TIP3     4324     SWM4     H1       HDW      0.557330       1.00800           0   0.00000       0.00000    
     47828 TIP3     4324     SWM4     H2       HDW      0.557330       1.00800           0   0.00000       0.00000    
     47829 TIP3     4325     SWM4     OH2      ODW       1.71640       15.5994           0 -0.978253       1.30000    
     47830 TIP3     4325     SWM4     DOH2     DOH2     -1.71640      0.400000           0   0.00000       0.00000    
     47831 TIP3     4325     SWM4     OM       LPDW     -1.11466       0.00000          -1   0.00000       0.00000    
     47832 TIP3     4325     SWM4     H1       HDW      0.557330       1.00800           0   0.00000       0.00000    
     47833 TIP3     4325     SWM4     H2       HDW      0.557330       1.00800           0   0.00000       0.00000    
     47834 TIP3     4326     SWM4     OH2      ODW       1.71640       15.5994           0 -0.978253       1.30000    
     47835 TIP3     4326     SWM4     DOH2     DOH2     -1.71640      0.400000           0   0.00000       0.00000    
     47836 TIP3     4326     SWM4     OM       LPDW     -1.11466       0.00000          -1   0.00000       0.00000    
     47837 TIP3     4326     SWM4     H1       HDW      0.557330       1.00800           0   0.00000       0.00000    
     47838 TIP3     4326     SWM4     H2       HDW      0.557330       1.00800           0   0.00000       0.00000    
     47839 TIP3     4327     SWM4     OH2      ODW       1.71640       15.5994           0 -0.978253       1.30000    
     47840 TIP3     4327     SWM4     DOH2     DOH2     -1.71640      0.400000           0   0.00000       0.00000    
     47841 TIP3     4327     SWM4     OM       LPDW     -1.11466       0.00000          -1   0.00000       0.00000    
     47842 TIP3     4327     SWM4     H1       HDW      0.557330       1.00800           0   0.00000       0.00000    
     47843 TIP3     4327     SWM4     H2       HDW      0.557330       1.00800           0   0.00000       0.00000    
     47844 TIP3     4328     SWM4     OH2      ODW       1.71640       15.5994           0 -0.978253       1.30000    
     47845 TIP3     4328     SWM4     DOH2     DOH2     -1.71640      0.400000           0   0.00000       0.00000    
     47846 TIP3     4328     SWM4     OM       LPDW     -1.11466       0.00000          -1   0.00000       0.00000    
     47847 TIP3     4328     SWM4     H1       HDW      0.557330       1.00800           0   0.00000       0.00000    
     47848 TIP3     4328     SWM4     H2       HDW      0.557330       1.00800           0   0.00000       0.00000    
     47849 TIP3     4329     SWM4     OH2      ODW       1.71640       15.5994           0 -0.978253       1.30000    
     47850 TIP3     4329     SWM4     DOH2     DOH2     -1.71640      0.400000           0   0.00000       0.00000    
     47851 TIP3     4329     SWM4     OM       LPDW     -1.11466       0.00000          -1   0.00000       0.00000    
     47852 TIP3     4329     SWM4     H1       HDW      0.557330       1.00800           0   0.00000       0.00000    
     47853 TIP3     4329     SWM4     H2       HDW      0.557330       1.00800           0   0.00000       0.00000    
     47854 TIP3     4330     SWM4     OH2      ODW       1.71640       15.5994           0 -0.978253       1.30000    
     47855 TIP3     4330     SWM4     DOH2     DOH2     -1.71640      0.400000           0   0.00000       0.00000    
     47856 TIP3     4330     SWM4     OM       LPDW     -1.11466       0.00000          -1   0.00000       0.00000    
     47857 TIP3     4330     SWM4     H1       HDW      0.557330       1.00800           0   0.00000       0.00000    
     47858 TIP3     4330     SWM4     H2       HDW      0.557330       1.00800           0   0.00000       0.00000    
     47859 TIP3     4331     SWM4     OH2      ODW       1.71640       15.5994           0 -0.978253       1.30000    
     47860 TIP3     4331     SWM4     DOH2     DOH2     -1.71640      0.400000           0   0.00000       0.00000    
     47861 TIP3     4331     SWM4     OM       LPDW     -1.11466       0.00000          -1   0.00000       0.00000    
     47862 TIP3     4331     SWM4     H1       HDW      0.557330       1.00800           0   0.00000       0.00000    
     47863 TIP3     4331     SWM4     H2       HDW      0.557330       1.00800           0   0.00000       0.00000    
     47864 TIP3     4332     SWM4     OH2      ODW       1.71640       15.5994           0 -0.978253       1.30000    
     47865 TIP3     4332     SWM4     DOH2     DOH2     -1.71640      0.400000           0   0.00000       0.00000    
     47866 TIP3     4332     SWM4     OM       LPDW     -1.11466       0.00000          -1   0.00000       0.00000    
     47867 TIP3     4332     SWM4     H1       HDW      0.557330       1.00800           0   0.00000       0.00000    
     47868 TIP3     4332     SWM4     H2       HDW      0.557330       1.00800           0   0.00000       0.00000    
     47869 TIP3     4333     SWM4     OH2      ODW       1.71640       15.5994           0 -0.978253       1.30000    
     47870 TIP3     4333     SWM4     DOH2     DOH2     -1.71640      0.400000           0   0.00000       0.00000    
     47871 TIP3     4333     SWM4     OM       LPDW     -1.11466       0.00000          -1   0.00000       0.00000    
     47872 TIP3     4333     SWM4     H1       HDW      0.557330       1.00800           0   0.00000       0.00000    
     47873 TIP3     4333     SWM4     H2       HDW      0.557330       1.00800           0   0.00000       0.00000    
     47874 TIP3     4334     SWM4     OH2      ODW       1.71640       15.5994           0 -0.978253       1.30000    
     47875 TIP3     4334     SWM4     DOH2     DOH2     -1.71640      0.400000           0   0.00000       0.00000    
     47876 TIP3     4334     SWM4     OM       LPDW     -1.11466       0.00000          -1   0.00000       0.00000    
     47877 TIP3     4334     SWM4     H1       HDW      0.557330       1.00800           0   0.00000       0.00000    
     47878 TIP3     4334     SWM4     H2       HDW      0.557330       1.00800           0   0.00000       0.00000    
     47879 TIP3     4335     SWM4     OH2      ODW       1.71640       15.5994           0 -0.978253       1.30000    
     47880 TIP3     4335     SWM4     DOH2     DOH2     -1.71640      0.400000           0   0.00000       0.00000    
     47881 TIP3     4335     SWM4     OM       LPDW     -1.11466       0.00000          -1   0.00000       0.00000    
     47882 TIP3     4335     SWM4     H1       HDW      0.557330       1.00800           0   0.00000       0.00000    
     47883 TIP3     4335     SWM4     H2       HDW      0.557330       1.00800           0   0.00000       0.00000    
     47884 TIP3     4336     SWM4     OH2      ODW       1.71640       15.5994           0 -0.978253       1.30000    
     47885 TIP3     4336     SWM4     DOH2     DOH2     -1.71640      0.400000           0   0.00000       0.00000    
     47886 TIP3     4336     SWM4     OM       LPDW     -1.11466       0.00000          -1   0.00000       0.00000    
     47887 TIP3     4336     SWM4     H1       HDW      0.557330       1.00800           0   0.00000       0.00000    
     47888 TIP3     4336     SWM4     H2       HDW      0.557330       1.00800           0   0.00000       0.00000    
     47889 TIP3     4337     SWM4     OH2      ODW       1.71640       15.5994           0 -0.978253       1.30000    
     47890 TIP3     4337     SWM4     DOH2     DOH2     -1.71640      0.400000           0   0.00000       0.00000    
     47891 TIP3     4337     SWM4     OM       LPDW     -1.11466       0.00000          -1   0.00000       0.00000    
     47892 TIP3     4337     SWM4     H1       HDW      0.557330       1.00800           0   0.00000       0.00000    
     47893 TIP3     4337     SWM4     H2       HDW      0.557330       1.00800           0   0.00000       0.00000    
     47894 TIP3     4338     SWM4     OH2      ODW       1.71640       15.5994           0 -0.978253       1.30000    
     47895 TIP3     4338     SWM4     DOH2     DOH2     -1.71640      0.400000           0   0.00000       0.00000    
     47896 TIP3     4338     SWM4     OM       LPDW     -1.11466       0.00000          -1   0.00000       0.00000    
     47897 TIP3     4338     SWM4     H1       HDW      0.557330       1.00800           0   0.00000       0.00000    
     47898 TIP3     4338     SWM4     H2       HDW      0.557330       1.00800           0   0.00000       0.00000    
     47899 TIP3     4339     SWM4     OH2      ODW       1.71640       15.5994           0 -0.978253       1.30000    
     47900 TIP3     4339     SWM4     DOH2     DOH2     -1.71640      0.400000           0   0.00000       0.00000    
     47901 TIP3     4339     SWM4     OM       LPDW     -1.11466       0.00000          -1   0.00000       0.00000    
     47902 TIP3     4339     SWM4     H1       HDW      0.557330       1.00800           0   0.00000       0.00000    
     47903 TIP3     4339     SWM4     H2       HDW      0.557330       1.00800           0   0.00000       0.00000    
     47904 TIP3     4340     SWM4     OH2      ODW       1.71640       15.5994           0 -0.978253       1.30000    
     47905 TIP3     4340     SWM4     DOH2     DOH2     -1.71640      0.400000           0   0.00000       0.00000    
     47906 TIP3     4340     SWM4     OM       LPDW     -1.11466       0.00000          -1   0.00000       0.00000    
     47907 TIP3     4340     SWM4     H1       HDW      0.557330       1.00800           0   0.00000       0.00000    
     47908 TIP3     4340     SWM4     H2       HDW      0.557330       1.00800           0   0.00000       0.00000    
     47909 TIP3     4341     SWM4     OH2      ODW       1.71640       15.5994           0 -0.978253       1.30000    
     47910 TIP3     4341     SWM4     DOH2     DOH2     -1.71640      0.400000           0   0.00000       0.00000    
     47911 TIP3     4341     SWM4     OM       LPDW     -1.11466       0.00000          -1   0.00000       0.00000    
     47912 TIP3     4341     SWM4     H1       HDW      0.557330       1.00800           0   0.00000       0.00000    
     47913 TIP3     4341     SWM4     H2       HDW      0.557330       1.00800           0   0.00000       0.00000    
     47914 TIP3     4342     SWM4     OH2      ODW       1.71640       15.5994           0 -0.978253       1.30000    
     47915 TIP3     4342     SWM4     DOH2     DOH2     -1.71640      0.400000           0   0.00000       0.00000    
     47916 TIP3     4342     SWM4     OM       LPDW     -1.11466       0.00000          -1   0.00000       0.00000    
     47917 TIP3     4342     SWM4     H1       HDW      0.557330       1.00800           0   0.00000       0.00000    
     47918 TIP3     4342     SWM4     H2       HDW      0.557330       1.00800           0   0.00000       0.00000    
     47919 TIP3     4343     SWM4     OH2      ODW       1.71640       15.5994           0 -0.978253       1.30000    
     47920 TIP3     4343     SWM4     DOH2     DOH2     -1.71640      0.400000           0   0.00000       0.00000    
     47921 TIP3     4343     SWM4     OM       LPDW     -1.11466       0.00000          -1   0.00000       0.00000    
     47922 TIP3     4343     SWM4     H1       HDW      0.557330       1.00800           0   0.00000       0.00000    
     47923 TIP3     4343     SWM4     H2       HDW      0.557330       1.00800           0   0.00000       0.00000    
     47924 TIP3     4344     SWM4     OH2      ODW       1.71640       15.5994           0 -0.978253       1.30000    
     47925 TIP3     4344     SWM4     DOH2     DOH2     -1.71640      0.400000           0   0.00000       0.00000    
     47926 TIP3     4344     SWM4     OM       LPDW     -1.11466       0.00000          -1   0.00000       0.00000    
     47927 TIP3     4344     SWM4     H1       HDW      0.557330       1.00800           0   0.00000       0.00000    
     47928 TIP3     4344     SWM4     H2       HDW      0.557330       1.00800           0   0.00000       0.00000    
     47929 TIP3     4345     SWM4     OH2      ODW       1.71640       15.5994           0 -0.978253       1.30000    
     47930 TIP3     4345     SWM4     DOH2     DOH2     -1.71640      0.400000           0   0.00000       0.00000    
     47931 TIP3     4345     SWM4     OM       LPDW     -1.11466       0.00000          -1   0.00000       0.00000    
     47932 TIP3     4345     SWM4     H1       HDW      0.557330       1.00800           0   0.00000       0.00000    
     47933 TIP3     4345     SWM4     H2       HDW      0.557330       1.00800           0   0.00000       0.00000    
     47934 TIP3     4346     SWM4     OH2      ODW       1.71640       15.5994           0 -0.978253       1.30000    
     47935 TIP3     4346     SWM4     DOH2     DOH2     -1.71640      0.400000           0   0.00000       0.00000    
     47936 TIP3     4346     SWM4     OM       LPDW     -1.11466       0.00000          -1   0.00000       0.00000    
     47937 TIP3     4346     SWM4     H1       HDW      0.557330       1.00800           0   0.00000       0.00000    
     47938 TIP3     4346     SWM4     H2       HDW      0.557330       1.00800           0   0.00000       0.00000    
     47939 TIP3     4347     SWM4     OH2      ODW       1.71640       15.5994           0 -0.978253       1.30000    
     47940 TIP3     4347     SWM4     DOH2     DOH2     -1.71640      0.400000           0   0.00000       0.00000    
     47941 TIP3     4347     SWM4     OM       LPDW     -1.11466       0.00000          -1   0.00000       0.00000    
     47942 TIP3     4347     SWM4     H1       HDW      0.557330       1.00800           0   0.00000       0.00000    
     47943 TIP3     4347     SWM4     H2       HDW      0.557330       1.00800           0   0.00000       0.00000    
     47944 TIP3     4348     SWM4     OH2      ODW       1.71640       15.5994           0 -0.978253       1.30000    
     47945 TIP3     4348     SWM4     DOH2     DOH2     -1.71640      0.400000           0   0.00000       0.00000    
     47946 TIP3     4348     SWM4     OM       LPDW     -1.11466       0.00000          -1   0.00000       0.00000    
     47947 TIP3     4348     SWM4     H1       HDW      0.557330       1.00800           0   0.00000       0.00000    
     47948 TIP3     4348     SWM4     H2       HDW      0.557330       1.00800           0   0.00000       0.00000    
     47949 TIP3     4349     SWM4     OH2      ODW       1.71640       15.5994           0 -0.978253       1.30000    
     47950 TIP3     4349     SWM4     DOH2     DOH2     -1.71640      0.400000           0   0.00000       0.00000    
     47951 TIP3     4349     SWM4     OM       LPDW     -1.11466       0.00000          -1   0.00000       0.00000    
     47952 TIP3     4349     SWM4     H1       HDW      0.557330       1.00800           0   0.00000       0.00000    
     47953 TIP3     4349     SWM4     H2       HDW      0.557330       1.00800           0   0.00000       0.00000    
     47954 TIP3     4350     SWM4     OH2      ODW       1.71640       15.5994           0 -0.978253       1.30000    
     47955 TIP3     4350     SWM4     DOH2     DOH2     -1.71640      0.400000           0   0.00000       0.00000    
     47956 TIP3     4350     SWM4     OM       LPDW     -1.11466       0.00000          -1   0.00000       0.00000    
     47957 TIP3     4350     SWM4     H1       HDW      0.557330       1.00800           0   0.00000       0.00000    
     47958 TIP3     4350     SWM4     H2       HDW      0.557330       1.00800           0   0.00000       0.00000    
     47959 TIP3     4351     SWM4     OH2      ODW       1.71640       15.5994           0 -0.978253       1.30000    
     47960 TIP3     4351     SWM4     DOH2     DOH2     -1.71640      0.400000           0   0.00000       0.00000    
     47961 TIP3     4351     SWM4     OM       LPDW     -1.11466       0.00000          -1   0.00000       0.00000    
     47962 TIP3     4351     SWM4     H1       HDW      0.557330       1.00800           0   0.00000       0.00000    
     47963 TIP3     4351     SWM4     H2       HDW      0.557330       1.00800           0   0.00000       0.00000    
     47964 TIP3     4352     SWM4     OH2      ODW       1.71640       15.5994           0 -0.978253       1.30000    
     47965 TIP3     4352     SWM4     DOH2     DOH2     -1.71640      0.400000           0   0.00000       0.00000    
     47966 TIP3     4352     SWM4     OM       LPDW     -1.11466       0.00000          -1   0.00000       0.00000    
     47967 TIP3     4352     SWM4     H1       HDW      0.557330       1.00800           0   0.00000       0.00000    
     47968 TIP3     4352     SWM4     H2       HDW      0.557330       1.00800           0   0.00000       0.00000    
     47969 TIP3     4353     SWM4     OH2      ODW       1.71640       15.5994           0 -0.978253       1.30000    
     47970 TIP3     4353     SWM4     DOH2     DOH2     -1.71640      0.400000           0   0.00000       0.00000    
     47971 TIP3     4353     SWM4     OM       LPDW     -1.11466       0.00000          -1   0.00000       0.00000    
     47972 TIP3     4353     SWM4     H1       HDW      0.557330       1.00800           0   0.00000       0.00000    
     47973 TIP3     4353     SWM4     H2       HDW      0.557330       1.00800           0   0.00000       0.00000    
     47974 TIP3     4354     SWM4     OH2      ODW       1.71640       15.5994           0 -0.978253       1.30000    
     47975 TIP3     4354     SWM4     DOH2     DOH2     -1.71640      0.400000           0   0.00000       0.00000    
     47976 TIP3     4354     SWM4     OM       LPDW     -1.11466       0.00000          -1   0.00000       0.00000    
     47977 TIP3     4354     SWM4     H1       HDW      0.557330       1.00800           0   0.00000       0.00000    
     47978 TIP3     4354     SWM4     H2       HDW      0.557330       1.00800           0   0.00000       0.00000    
     47979 TIP3     4355     SWM4     OH2      ODW       1.71640       15.5994           0 -0.978253       1.30000    
     47980 TIP3     4355     SWM4     DOH2     DOH2     -1.71640      0.400000           0   0.00000       0.00000    
     47981 TIP3     4355     SWM4     OM       LPDW     -1.11466       0.00000          -1   0.00000       0.00000    
     47982 TIP3     4355     SWM4     H1       HDW      0.557330       1.00800           0   0.00000       0.00000    
     47983 TIP3     4355     SWM4     H2       HDW      0.557330       1.00800           0   0.00000       0.00000    
     47984 TIP3     4356     SWM4     OH2      ODW       1.71640       15.5994           0 -0.978253       1.30000    
     47985 TIP3     4356     SWM4     DOH2     DOH2     -1.71640      0.400000           0   0.00000       0.00000    
     47986 TIP3     4356     SWM4     OM       LPDW     -1.11466       0.00000          -1   0.00000       0.00000    
     47987 TIP3     4356     SWM4     H1       HDW      0.557330       1.00800           0   0.00000       0.00000    
     47988 TIP3     4356     SWM4     H2       HDW      0.557330       1.00800           0   0.00000       0.00000    
     47989 TIP3     4357     SWM4     OH2      ODW       1.71640       15.5994           0 -0.978253       1.30000    
     47990 TIP3     4357     SWM4     DOH2     DOH2     -1.71640      0.400000           0   0.00000       0.00000    
     47991 TIP3     4357     SWM4     OM       LPDW     -1.11466       0.00000          -1   0.00000       0.00000    
     47992 TIP3     4357     SWM4     H1       HDW      0.557330       1.00800           0   0.00000       0.00000    
     47993 TIP3     4357     SWM4     H2       HDW      0.557330       1.00800           0   0.00000       0.00000    
     47994 TIP3     4358     SWM4     OH2      ODW       1.71640       15.5994           0 -0.978253       1.30000    
     47995 TIP3     4358     SWM4     DOH2     DOH2     -1.71640      0.400000           0   0.00000       0.00000    
     47996 TIP3     4358     SWM4     OM       LPDW     -1.11466       0.00000          -1   0.00000       0.00000    
     47997 TIP3     4358     SWM4     H1       HDW      0.557330       1.00800           0   0.00000       0.00000    
     47998 TIP3     4358     SWM4     H2       HDW      0.557330       1.00800           0   0.00000       0.00000    
     47999 TIP3     4359     SWM4     OH2      ODW       1.71640       15.5994           0 -0.978253       1.30000    
     48000 TIP3     4359     SWM4     DOH2     DOH2     -1.71640      0.400000           0   0.00000       0.00000    
     48001 TIP3     4359     SWM4     OM       LPDW     -1.11466       0.00000          -1   0.00000       0.00000    
     48002 TIP3     4359     SWM4     H1       HDW      0.557330       1.00800           0   0.00000       0.00000    
     48003 TIP3     4359     SWM4     H2       HDW      0.557330       1.00800           0   0.00000       0.00000    
     48004 TIP3     4360     SWM4     OH2      ODW       1.71640       15.5994           0 -0.978253       1.30000    
     48005 TIP3     4360     SWM4     DOH2     DOH2     -1.71640      0.400000           0   0.00000       0.00000    
     48006 TIP3     4360     SWM4     OM       LPDW     -1.11466       0.00000          -1   0.00000       0.00000    
     48007 TIP3     4360     SWM4     H1       HDW      0.557330       1.00800           0   0.00000       0.00000    
     48008 TIP3     4360     SWM4     H2       HDW      0.557330       1.00800           0   0.00000       0.00000    
     48009 TIP3     4361     SWM4     OH2      ODW       1.71640       15.5994           0 -0.978253       1.30000    
     48010 TIP3     4361     SWM4     DOH2     DOH2     -1.71640      0.400000           0   0.00000       0.00000    
     48011 TIP3     4361     SWM4     OM       LPDW     -1.11466       0.00000          -1   0.00000       0.00000    
     48012 TIP3     4361     SWM4     H1       HDW      0.557330       1.00800           0   0.00000       0.00000    
     48013 TIP3     4361     SWM4     H2       HDW      0.557330       1.00800           0   0.00000       0.00000    
     48014 TIP3     4362     SWM4     OH2      ODW       1.71640       15.5994           0 -0.978253       1.30000    
     48015 TIP3     4362     SWM4     DOH2     DOH2     -1.71640      0.400000           0   0.00000       0.00000    
     48016 TIP3     4362     SWM4     OM       LPDW     -1.11466       0.00000          -1   0.00000       0.00000    
     48017 TIP3     4362     SWM4     H1       HDW      0.557330       1.00800           0   0.00000       0.00000    
     48018 TIP3     4362     SWM4     H2       HDW      0.557330       1.00800           0   0.00000       0.00000    
     48019 TIP3     4363     SWM4     OH2      ODW       1.71640       15.5994           0 -0.978253       1.30000    
     48020 TIP3     4363     SWM4     DOH2     DOH2     -1.71640      0.400000           0   0.00000       0.00000    
     48021 TIP3     4363     SWM4     OM       LPDW     -1.11466       0.00000          -1   0.00000       0.00000    
     48022 TIP3     4363     SWM4     H1       HDW      0.557330       1.00800           0   0.00000       0.00000    
     48023 TIP3     4363     SWM4     H2       HDW      0.557330       1.00800           0   0.00000       0.00000    
     48024 TIP3     4364     SWM4     OH2      ODW       1.71640       15.5994           0 -0.978253       1.30000    
     48025 TIP3     4364     SWM4     DOH2     DOH2     -1.71640      0.400000           0   0.00000       0.00000    
     48026 TIP3     4364     SWM4     OM       LPDW     -1.11466       0.00000          -1   0.00000       0.00000    
     48027 TIP3     4364     SWM4     H1       HDW      0.557330       1.00800           0   0.00000       0.00000    
     48028 TIP3     4364     SWM4     H2       HDW      0.557330       1.00800           0   0.00000       0.00000    
     48029 TIP3     4365     SWM4     OH2      ODW       1.71640       15.5994           0 -0.978253       1.30000    
     48030 TIP3     4365     SWM4     DOH2     DOH2     -1.71640      0.400000           0   0.00000       0.00000    
     48031 TIP3     4365     SWM4     OM       LPDW     -1.11466       0.00000          -1   0.00000       0.00000    
     48032 TIP3     4365     SWM4     H1       HDW      0.557330       1.00800           0   0.00000       0.00000    
     48033 TIP3     4365     SWM4     H2       HDW      0.557330       1.00800           0   0.00000       0.00000    
     48034 TIP3     4366     SWM4     OH2      ODW       1.71640       15.5994           0 -0.978253       1.30000    
     48035 TIP3     4366     SWM4     DOH2     DOH2     -1.71640      0.400000           0   0.00000       0.00000    
     48036 TIP3     4366     SWM4     OM       LPDW     -1.11466       0.00000          -1   0.00000       0.00000    
     48037 TIP3     4366     SWM4     H1       HDW      0.557330       1.00800           0   0.00000       0.00000    
     48038 TIP3     4366     SWM4     H2       HDW      0.557330       1.00800           0   0.00000       0.00000    
     48039 TIP3     4367     SWM4     OH2      ODW       1.71640       15.5994           0 -0.978253       1.30000    
     48040 TIP3     4367     SWM4     DOH2     DOH2     -1.71640      0.400000           0   0.00000       0.00000    
     48041 TIP3     4367     SWM4     OM       LPDW     -1.11466       0.00000          -1   0.00000       0.00000    
     48042 TIP3     4367     SWM4     H1       HDW      0.557330       1.00800           0   0.00000       0.00000    
     48043 TIP3     4367     SWM4     H2       HDW      0.557330       1.00800           0   0.00000       0.00000    
     48044 TIP3     4368     SWM4     OH2      ODW       1.71640       15.5994           0 -0.978253       1.30000    
     48045 TIP3     4368     SWM4     DOH2     DOH2     -1.71640      0.400000           0   0.00000       0.00000    
     48046 TIP3     4368     SWM4     OM       LPDW     -1.11466       0.00000          -1   0.00000       0.00000    
     48047 TIP3     4368     SWM4     H1       HDW      0.557330       1.00800           0   0.00000       0.00000    
     48048 TIP3     4368     SWM4     H2       HDW      0.557330       1.00800           0   0.00000       0.00000    
     48049 TIP3     4369     SWM4     OH2      ODW       1.71640       15.5994           0 -0.978253       1.30000    
     48050 TIP3     4369     SWM4     DOH2     DOH2     -1.71640      0.400000           0   0.00000       0.00000    
     48051 TIP3     4369     SWM4     OM       LPDW     -1.11466       0.00000          -1   0.00000       0.00000    
     48052 TIP3     4369     SWM4     H1       HDW      0.557330       1.00800           0   0.00000       0.00000    
     48053 TIP3     4369     SWM4     H2       HDW      0.557330       1.00800           0   0.00000       0.00000    
     48054 TIP3     4370     SWM4     OH2      ODW       1.71640       15.5994           0 -0.978253       1.30000    
     48055 TIP3     4370     SWM4     DOH2     DOH2     -1.71640      0.400000           0   0.00000       0.00000    
     48056 TIP3     4370     SWM4     OM       LPDW     -1.11466       0.00000          -1   0.00000       0.00000    
     48057 TIP3     4370     SWM4     H1       HDW      0.557330       1.00800           0   0.00000       0.00000    
     48058 TIP3     4370     SWM4     H2       HDW      0.557330       1.00800           0   0.00000       0.00000    
     48059 TIP3     4371     SWM4     OH2      ODW       1.71640       15.5994           0 -0.978253       1.30000    
     48060 TIP3     4371     SWM4     DOH2     DOH2     -1.71640      0.400000           0   0.00000       0.00000    
     48061 TIP3     4371     SWM4     OM       LPDW     -1.11466       0.00000          -1   0.00000       0.00000    
     48062 TIP3     4371     SWM4     H1       HDW      0.557330       1.00800           0   0.00000       0.00000    
     48063 TIP3     4371     SWM4     H2       HDW      0.557330       1.00800           0   0.00000       0.00000    
     48064 TIP3     4372     SWM4     OH2      ODW       1.71640       15.5994           0 -0.978253       1.30000    
     48065 TIP3     4372     SWM4     DOH2     DOH2     -1.71640      0.400000           0   0.00000       0.00000    
     48066 TIP3     4372     SWM4     OM       LPDW     -1.11466       0.00000          -1   0.00000       0.00000    
     48067 TIP3     4372     SWM4     H1       HDW      0.557330       1.00800           0   0.00000       0.00000    
     48068 TIP3     4372     SWM4     H2       HDW      0.557330       1.00800           0   0.00000       0.00000    
     48069 TIP3     4373     SWM4     OH2      ODW       1.71640       15.5994           0 -0.978253       1.30000    
     48070 TIP3     4373     SWM4     DOH2     DOH2     -1.71640      0.400000           0   0.00000       0.00000    
     48071 TIP3     4373     SWM4     OM       LPDW     -1.11466       0.00000          -1   0.00000       0.00000    
     48072 TIP3     4373     SWM4     H1       HDW      0.557330       1.00800           0   0.00000       0.00000    
     48073 TIP3     4373     SWM4     H2       HDW      0.557330       1.00800           0   0.00000       0.00000    
     48074 TIP3     4374     SWM4     OH2      ODW       1.71640       15.5994           0 -0.978253       1.30000    
     48075 TIP3     4374     SWM4     DOH2     DOH2     -1.71640      0.400000           0   0.00000       0.00000    
     48076 TIP3     4374     SWM4     OM       LPDW     -1.11466       0.00000          -1   0.00000       0.00000    
     48077 TIP3     4374     SWM4     H1       HDW      0.557330       1.00800           0   0.00000       0.00000    
     48078 TIP3     4374     SWM4     H2       HDW      0.557330       1.00800           0   0.00000       0.00000    
     48079 TIP3     4375     SWM4     OH2      ODW       1.71640       15.5994           0 -0.978253       1.30000    
     48080 TIP3     4375     SWM4     DOH2     DOH2     -1.71640      0.400000           0   0.00000       0.00000    
     48081 TIP3     4375     SWM4     OM       LPDW     -1.11466       0.00000          -1   0.00000       0.00000    
     48082 TIP3     4375     SWM4     H1       HDW      0.557330       1.00800           0   0.00000       0.00000    
     48083 TIP3     4375     SWM4     H2       HDW      0.557330       1.00800           0   0.00000       0.00000    
     48084 TIP3     4376     SWM4     OH2      ODW       1.71640       15.5994           0 -0.978253       1.30000    
     48085 TIP3     4376     SWM4     DOH2     DOH2     -1.71640      0.400000           0   0.00000       0.00000    
     48086 TIP3     4376     SWM4     OM       LPDW     -1.11466       0.00000          -1   0.00000       0.00000    
     48087 TIP3     4376     SWM4     H1       HDW      0.557330       1.00800           0   0.00000       0.00000    
     48088 TIP3     4376     SWM4     H2       HDW      0.557330       1.00800           0   0.00000       0.00000    
     48089 TIP3     4377     SWM4     OH2      ODW       1.71640       15.5994           0 -0.978253       1.30000    
     48090 TIP3     4377     SWM4     DOH2     DOH2     -1.71640      0.400000           0   0.00000       0.00000    
     48091 TIP3     4377     SWM4     OM       LPDW     -1.11466       0.00000          -1   0.00000       0.00000    
     48092 TIP3     4377     SWM4     H1       HDW      0.557330       1.00800           0   0.00000       0.00000    
     48093 TIP3     4377     SWM4     H2       HDW      0.557330       1.00800           0   0.00000       0.00000    
     48094 TIP3     4378     SWM4     OH2      ODW       1.71640       15.5994           0 -0.978253       1.30000    
     48095 TIP3     4378     SWM4     DOH2     DOH2     -1.71640      0.400000           0   0.00000       0.00000    
     48096 TIP3     4378     SWM4     OM       LPDW     -1.11466       0.00000          -1   0.00000       0.00000    
     48097 TIP3     4378     SWM4     H1       HDW      0.557330       1.00800           0   0.00000       0.00000    
     48098 TIP3     4378     SWM4     H2       HDW      0.557330       1.00800           0   0.00000       0.00000    
     48099 TIP3     4379     SWM4     OH2      ODW       1.71640       15.5994           0 -0.978253       1.30000    
     48100 TIP3     4379     SWM4     DOH2     DOH2     -1.71640      0.400000           0   0.00000       0.00000    
     48101 TIP3     4379     SWM4     OM       LPDW     -1.11466       0.00000          -1   0.00000       0.00000    
     48102 TIP3     4379     SWM4     H1       HDW      0.557330       1.00800           0   0.00000       0.00000    
     48103 TIP3     4379     SWM4     H2       HDW      0.557330       1.00800           0   0.00000       0.00000    
     48104 TIP3     4380     SWM4     OH2      ODW       1.71640       15.5994           0 -0.978253       1.30000    
     48105 TIP3     4380     SWM4     DOH2     DOH2     -1.71640      0.400000           0   0.00000       0.00000    
     48106 TIP3     4380     SWM4     OM       LPDW     -1.11466       0.00000          -1   0.00000       0.00000    
     48107 TIP3     4380     SWM4     H1       HDW      0.557330       1.00800           0   0.00000       0.00000    
     48108 TIP3     4380     SWM4     H2       HDW      0.557330       1.00800           0   0.00000       0.00000    
     48109 TIP3     4381     SWM4     OH2      ODW       1.71640       15.5994           0 -0.978253       1.30000    
     48110 TIP3     4381     SWM4     DOH2     DOH2     -1.71640      0.400000           0   0.00000       0.00000    
     48111 TIP3     4381     SWM4     OM       LPDW     -1.11466       0.00000          -1   0.00000       0.00000    
     48112 TIP3     4381     SWM4     H1       HDW      0.557330       1.00800           0   0.00000       0.00000    
     48113 TIP3     4381     SWM4     H2       HDW      0.557330       1.00800           0   0.00000       0.00000    
     48114 TIP3     4382     SWM4     OH2      ODW       1.71640       15.5994           0 -0.978253       1.30000    
     48115 TIP3     4382     SWM4     DOH2     DOH2     -1.71640      0.400000           0   0.00000       0.00000    
     48116 TIP3     4382     SWM4     OM       LPDW     -1.11466       0.00000          -1   0.00000       0.00000    
     48117 TIP3     4382     SWM4     H1       HDW      0.557330       1.00800           0   0.00000       0.00000    
     48118 TIP3     4382     SWM4     H2       HDW      0.557330       1.00800           0   0.00000       0.00000    
     48119 TIP3     4383     SWM4     OH2      ODW       1.71640       15.5994           0 -0.978253       1.30000    
     48120 TIP3     4383     SWM4     DOH2     DOH2     -1.71640      0.400000           0   0.00000       0.00000    
     48121 TIP3     4383     SWM4     OM       LPDW     -1.11466       0.00000          -1   0.00000       0.00000    
     48122 TIP3     4383     SWM4     H1       HDW      0.557330       1.00800           0   0.00000       0.00000    
     48123 TIP3     4383     SWM4     H2       HDW      0.557330       1.00800           0   0.00000       0.00000    
     48124 TIP3     4384     SWM4     OH2      ODW       1.71640       15.5994           0 -0.978253       1.30000    
     48125 TIP3     4384     SWM4     DOH2     DOH2     -1.71640      0.400000           0   0.00000       0.00000    
     48126 TIP3     4384     SWM4     OM       LPDW     -1.11466       0.00000          -1   0.00000       0.00000    
     48127 TIP3     4384     SWM4     H1       HDW      0.557330       1.00800           0   0.00000       0.00000    
     48128 TIP3     4384     SWM4     H2       HDW      0.557330       1.00800           0   0.00000       0.00000    
     48129 TIP3     4385     SWM4     OH2      ODW       1.71640       15.5994           0 -0.978253       1.30000    
     48130 TIP3     4385     SWM4     DOH2     DOH2     -1.71640      0.400000           0   0.00000       0.00000    
     48131 TIP3     4385     SWM4     OM       LPDW     -1.11466       0.00000          -1   0.00000       0.00000    
     48132 TIP3     4385     SWM4     H1       HDW      0.557330       1.00800           0   0.00000       0.00000    
     48133 TIP3     4385     SWM4     H2       HDW      0.557330       1.00800           0   0.00000       0.00000    
     48134 TIP3     4386     SWM4     OH2      ODW       1.71640       15.5994           0 -0.978253       1.30000    
     48135 TIP3     4386     SWM4     DOH2     DOH2     -1.71640      0.400000           0   0.00000       0.00000    
     48136 TIP3     4386     SWM4     OM       LPDW     -1.11466       0.00000          -1   0.00000       0.00000    
     48137 TIP3     4386     SWM4     H1       HDW      0.557330       1.00800           0   0.00000       0.00000    
     48138 TIP3     4386     SWM4     H2       HDW      0.557330       1.00800           0   0.00000       0.00000    
     48139 TIP3     4387     SWM4     OH2      ODW       1.71640       15.5994           0 -0.978253       1.30000    
     48140 TIP3     4387     SWM4     DOH2     DOH2     -1.71640      0.400000           0   0.00000       0.00000    
     48141 TIP3     4387     SWM4     OM       LPDW     -1.11466       0.00000          -1   0.00000       0.00000    
     48142 TIP3     4387     SWM4     H1       HDW      0.557330       1.00800           0   0.00000       0.00000    
     48143 TIP3     4387     SWM4     H2       HDW      0.557330       1.00800           0   0.00000       0.00000    
     48144 TIP3     4388     SWM4     OH2      ODW       1.71640       15.5994           0 -0.978253       1.30000    
     48145 TIP3     4388     SWM4     DOH2     DOH2     -1.71640      0.400000           0   0.00000       0.00000    
     48146 TIP3     4388     SWM4     OM       LPDW     -1.11466       0.00000          -1   0.00000       0.00000    
     48147 TIP3     4388     SWM4     H1       HDW      0.557330       1.00800           0   0.00000       0.00000    
     48148 TIP3     4388     SWM4     H2       HDW      0.557330       1.00800           0   0.00000       0.00000    
     48149 TIP3     4389     SWM4     OH2      ODW       1.71640       15.5994           0 -0.978253       1.30000    
     48150 TIP3     4389     SWM4     DOH2     DOH2     -1.71640      0.400000           0   0.00000       0.00000    
     48151 TIP3     4389     SWM4     OM       LPDW     -1.11466       0.00000          -1   0.00000       0.00000    
     48152 TIP3     4389     SWM4     H1       HDW      0.557330       1.00800           0   0.00000       0.00000    
     48153 TIP3     4389     SWM4     H2       HDW      0.557330       1.00800           0   0.00000       0.00000    
     48154 TIP3     4390     SWM4     OH2      ODW       1.71640       15.5994           0 -0.978253       1.30000    
     48155 TIP3     4390     SWM4     DOH2     DOH2     -1.71640      0.400000           0   0.00000       0.00000    
     48156 TIP3     4390     SWM4     OM       LPDW     -1.11466       0.00000          -1   0.00000       0.00000    
     48157 TIP3     4390     SWM4     H1       HDW      0.557330       1.00800           0   0.00000       0.00000    
     48158 TIP3     4390     SWM4     H2       HDW      0.557330       1.00800           0   0.00000       0.00000    
     48159 TIP3     4391     SWM4     OH2      ODW       1.71640       15.5994           0 -0.978253       1.30000    
     48160 TIP3     4391     SWM4     DOH2     DOH2     -1.71640      0.400000           0   0.00000       0.00000    
     48161 TIP3     4391     SWM4     OM       LPDW     -1.11466       0.00000          -1   0.00000       0.00000    
     48162 TIP3     4391     SWM4     H1       HDW      0.557330       1.00800           0   0.00000       0.00000    
     48163 TIP3     4391     SWM4     H2       HDW      0.557330       1.00800           0   0.00000       0.00000    
     48164 TIP3     4392     SWM4     OH2      ODW       1.71640       15.5994           0 -0.978253       1.30000    
     48165 TIP3     4392     SWM4     DOH2     DOH2     -1.71640      0.400000           0   0.00000       0.00000    
     48166 TIP3     4392     SWM4     OM       LPDW     -1.11466       0.00000          -1   0.00000       0.00000    
     48167 TIP3     4392     SWM4     H1       HDW      0.557330       1.00800           0   0.00000       0.00000    
     48168 TIP3     4392     SWM4     H2       HDW      0.557330       1.00800           0   0.00000       0.00000    
     48169 TIP3     4393     SWM4     OH2      ODW       1.71640       15.5994           0 -0.978253       1.30000    
     48170 TIP3     4393     SWM4     DOH2     DOH2     -1.71640      0.400000           0   0.00000       0.00000    
     48171 TIP3     4393     SWM4     OM       LPDW     -1.11466       0.00000          -1   0.00000       0.00000    
     48172 TIP3     4393     SWM4     H1       HDW      0.557330       1.00800           0   0.00000       0.00000    
     48173 TIP3     4393     SWM4     H2       HDW      0.557330       1.00800           0   0.00000       0.00000    
     48174 TIP3     4394     SWM4     OH2      ODW       1.71640       15.5994           0 -0.978253       1.30000    
     48175 TIP3     4394     SWM4     DOH2     DOH2     -1.71640      0.400000           0   0.00000       0.00000    
     48176 TIP3     4394     SWM4     OM       LPDW     -1.11466       0.00000          -1   0.00000       0.00000    
     48177 TIP3     4394     SWM4     H1       HDW      0.557330       1.00800           0   0.00000       0.00000    
     48178 TIP3     4394     SWM4     H2       HDW      0.557330       1.00800           0   0.00000       0.00000    
     48179 TIP3     4395     SWM4     OH2      ODW       1.71640       15.5994           0 -0.978253       1.30000    
     48180 TIP3     4395     SWM4     DOH2     DOH2     -1.71640      0.400000           0   0.00000       0.00000    
     48181 TIP3     4395     SWM4     OM       LPDW     -1.11466       0.00000          -1   0.00000       0.00000    
     48182 TIP3     4395     SWM4     H1       HDW      0.557330       1.00800           0   0.00000       0.00000    
     48183 TIP3     4395     SWM4     H2       HDW      0.557330       1.00800           0   0.00000       0.00000    
     48184 TIP3     4396     SWM4     OH2      ODW       1.71640       15.5994           0 -0.978253       1.30000    
     48185 TIP3     4396     SWM4     DOH2     DOH2     -1.71640      0.400000           0   0.00000       0.00000    
     48186 TIP3     4396     SWM4     OM       LPDW     -1.11466       0.00000          -1   0.00000       0.00000    
     48187 TIP3     4396     SWM4     H1       HDW      0.557330       1.00800           0   0.00000       0.00000    
     48188 TIP3     4396     SWM4     H2       HDW      0.557330       1.00800           0   0.00000       0.00000    
     48189 TIP3     4397     SWM4     OH2      ODW       1.71640       15.5994           0 -0.978253       1.30000    
     48190 TIP3     4397     SWM4     DOH2     DOH2     -1.71640      0.400000           0   0.00000       0.00000    
     48191 TIP3     4397     SWM4     OM       LPDW     -1.11466       0.00000          -1   0.00000       0.00000    
     48192 TIP3     4397     SWM4     H1       HDW      0.557330       1.00800           0   0.00000       0.00000    
     48193 TIP3     4397     SWM4     H2       HDW      0.557330       1.00800           0   0.00000       0.00000    
     48194 TIP3     4398     SWM4     OH2      ODW       1.71640       15.5994           0 -0.978253       1.30000    
     48195 TIP3     4398     SWM4     DOH2     DOH2     -1.71640      0.400000           0   0.00000       0.00000    
     48196 TIP3     4398     SWM4     OM       LPDW     -1.11466       0.00000          -1   0.00000       0.00000    
     48197 TIP3     4398     SWM4     H1       HDW      0.557330       1.00800           0   0.00000       0.00000    
     48198 TIP3     4398     SWM4     H2       HDW      0.557330       1.00800           0   0.00000       0.00000    
     48199 TIP3     4399     SWM4     OH2      ODW       1.71640       15.5994           0 -0.978253       1.30000    
     48200 TIP3     4399     SWM4     DOH2     DOH2     -1.71640      0.400000           0   0.00000       0.00000    
     48201 TIP3     4399     SWM4     OM       LPDW     -1.11466       0.00000          -1   0.00000       0.00000    
     48202 TIP3     4399     SWM4     H1       HDW      0.557330       1.00800           0   0.00000       0.00000    
     48203 TIP3     4399     SWM4     H2       HDW      0.557330       1.00800           0   0.00000       0.00000    
     48204 TIP3     4400     SWM4     OH2      ODW       1.71640       15.5994           0 -0.978253       1.30000    
     48205 TIP3     4400     SWM4     DOH2     DOH2     -1.71640      0.400000           0   0.00000       0.00000    
     48206 TIP3     4400     SWM4     OM       LPDW     -1.11466       0.00000          -1   0.00000       0.00000    
     48207 TIP3     4400     SWM4     H1       HDW      0.557330       1.00800           0   0.00000       0.00000    
     48208 TIP3     4400     SWM4     H2       HDW      0.557330       1.00800           0   0.00000       0.00000    
     48209 TIP3     4401     SWM4     OH2      ODW       1.71640       15.5994           0 -0.978253       1.30000    
     48210 TIP3     4401     SWM4     DOH2     DOH2     -1.71640      0.400000           0   0.00000       0.00000    
     48211 TIP3     4401     SWM4     OM       LPDW     -1.11466       0.00000          -1   0.00000       0.00000    
     48212 TIP3     4401     SWM4     H1       HDW      0.557330       1.00800           0   0.00000       0.00000    
     48213 TIP3     4401     SWM4     H2       HDW      0.557330       1.00800           0   0.00000       0.00000    
     48214 TIP3     4402     SWM4     OH2      ODW       1.71640       15.5994           0 -0.978253       1.30000    
     48215 TIP3     4402     SWM4     DOH2     DOH2     -1.71640      0.400000           0   0.00000       0.00000    
     48216 TIP3     4402     SWM4     OM       LPDW     -1.11466       0.00000          -1   0.00000       0.00000    
     48217 TIP3     4402     SWM4     H1       HDW      0.557330       1.00800           0   0.00000       0.00000    
     48218 TIP3     4402     SWM4     H2       HDW      0.557330       1.00800           0   0.00000       0.00000    
     48219 TIP3     4403     SWM4     OH2      ODW       1.71640       15.5994           0 -0.978253       1.30000    
     48220 TIP3     4403     SWM4     DOH2     DOH2     -1.71640      0.400000           0   0.00000       0.00000    
     48221 TIP3     4403     SWM4     OM       LPDW     -1.11466       0.00000          -1   0.00000       0.00000    
     48222 TIP3     4403     SWM4     H1       HDW      0.557330       1.00800           0   0.00000       0.00000    
     48223 TIP3     4403     SWM4     H2       HDW      0.557330       1.00800           0   0.00000       0.00000    
     48224 TIP3     4404     SWM4     OH2      ODW       1.71640       15.5994           0 -0.978253       1.30000    
     48225 TIP3     4404     SWM4     DOH2     DOH2     -1.71640      0.400000           0   0.00000       0.00000    
     48226 TIP3     4404     SWM4     OM       LPDW     -1.11466       0.00000          -1   0.00000       0.00000    
     48227 TIP3     4404     SWM4     H1       HDW      0.557330       1.00800           0   0.00000       0.00000    
     48228 TIP3     4404     SWM4     H2       HDW      0.557330       1.00800           0   0.00000       0.00000    
     48229 TIP3     4405     SWM4     OH2      ODW       1.71640       15.5994           0 -0.978253       1.30000    
     48230 TIP3     4405     SWM4     DOH2     DOH2     -1.71640      0.400000           0   0.00000       0.00000    
     48231 TIP3     4405     SWM4     OM       LPDW     -1.11466       0.00000          -1   0.00000       0.00000    
     48232 TIP3     4405     SWM4     H1       HDW      0.557330       1.00800           0   0.00000       0.00000    
     48233 TIP3     4405     SWM4     H2       HDW      0.557330       1.00800           0   0.00000       0.00000    
     48234 TIP3     4406     SWM4     OH2      ODW       1.71640       15.5994           0 -0.978253       1.30000    
     48235 TIP3     4406     SWM4     DOH2     DOH2     -1.71640      0.400000           0   0.00000       0.00000    
     48236 TIP3     4406     SWM4     OM       LPDW     -1.11466       0.00000          -1   0.00000       0.00000    
     48237 TIP3     4406     SWM4     H1       HDW      0.557330       1.00800           0   0.00000       0.00000    
     48238 TIP3     4406     SWM4     H2       HDW      0.557330       1.00800           0   0.00000       0.00000    
     48239 TIP3     4407     SWM4     OH2      ODW       1.71640       15.5994           0 -0.978253       1.30000    
     48240 TIP3     4407     SWM4     DOH2     DOH2     -1.71640      0.400000           0   0.00000       0.00000    
     48241 TIP3     4407     SWM4     OM       LPDW     -1.11466       0.00000          -1   0.00000       0.00000    
     48242 TIP3     4407     SWM4     H1       HDW      0.557330       1.00800           0   0.00000       0.00000    
     48243 TIP3     4407     SWM4     H2       HDW      0.557330       1.00800           0   0.00000       0.00000    
     48244 TIP3     4408     SWM4     OH2      ODW       1.71640       15.5994           0 -0.978253       1.30000    
     48245 TIP3     4408     SWM4     DOH2     DOH2     -1.71640      0.400000           0   0.00000       0.00000    
     48246 TIP3     4408     SWM4     OM       LPDW     -1.11466       0.00000          -1   0.00000       0.00000    
     48247 TIP3     4408     SWM4     H1       HDW      0.557330       1.00800           0   0.00000       0.00000    
     48248 TIP3     4408     SWM4     H2       HDW      0.557330       1.00800           0   0.00000       0.00000    
     48249 TIP3     4409     SWM4     OH2      ODW       1.71640       15.5994           0 -0.978253       1.30000    
     48250 TIP3     4409     SWM4     DOH2     DOH2     -1.71640      0.400000           0   0.00000       0.00000    
     48251 TIP3     4409     SWM4     OM       LPDW     -1.11466       0.00000          -1   0.00000       0.00000    
     48252 TIP3     4409     SWM4     H1       HDW      0.557330       1.00800           0   0.00000       0.00000    
     48253 TIP3     4409     SWM4     H2       HDW      0.557330       1.00800           0   0.00000       0.00000    
     48254 TIP3     4410     SWM4     OH2      ODW       1.71640       15.5994           0 -0.978253       1.30000    
     48255 TIP3     4410     SWM4     DOH2     DOH2     -1.71640      0.400000           0   0.00000       0.00000    
     48256 TIP3     4410     SWM4     OM       LPDW     -1.11466       0.00000          -1   0.00000       0.00000    
     48257 TIP3     4410     SWM4     H1       HDW      0.557330       1.00800           0   0.00000       0.00000    
     48258 TIP3     4410     SWM4     H2       HDW      0.557330       1.00800           0   0.00000       0.00000    
     48259 TIP3     4411     SWM4     OH2      ODW       1.71640       15.5994           0 -0.978253       1.30000    
     48260 TIP3     4411     SWM4     DOH2     DOH2     -1.71640      0.400000           0   0.00000       0.00000    
     48261 TIP3     4411     SWM4     OM       LPDW     -1.11466       0.00000          -1   0.00000       0.00000    
     48262 TIP3     4411     SWM4     H1       HDW      0.557330       1.00800           0   0.00000       0.00000    
     48263 TIP3     4411     SWM4     H2       HDW      0.557330       1.00800           0   0.00000       0.00000    
     48264 TIP3     4412     SWM4     OH2      ODW       1.71640       15.5994           0 -0.978253       1.30000    
     48265 TIP3     4412     SWM4     DOH2     DOH2     -1.71640      0.400000           0   0.00000       0.00000    
     48266 TIP3     4412     SWM4     OM       LPDW     -1.11466       0.00000          -1   0.00000       0.00000    
     48267 TIP3     4412     SWM4     H1       HDW      0.557330       1.00800           0   0.00000       0.00000    
     48268 TIP3     4412     SWM4     H2       HDW      0.557330       1.00800           0   0.00000       0.00000    
     48269 TIP3     4413     SWM4     OH2      ODW       1.71640       15.5994           0 -0.978253       1.30000    
     48270 TIP3     4413     SWM4     DOH2     DOH2     -1.71640      0.400000           0   0.00000       0.00000    
     48271 TIP3     4413     SWM4     OM       LPDW     -1.11466       0.00000          -1   0.00000       0.00000    
     48272 TIP3     4413     SWM4     H1       HDW      0.557330       1.00800           0   0.00000       0.00000    
     48273 TIP3     4413     SWM4     H2       HDW      0.557330       1.00800           0   0.00000       0.00000    
     48274 TIP3     4414     SWM4     OH2      ODW       1.71640       15.5994           0 -0.978253       1.30000    
     48275 TIP3     4414     SWM4     DOH2     DOH2     -1.71640      0.400000           0   0.00000       0.00000    
     48276 TIP3     4414     SWM4     OM       LPDW     -1.11466       0.00000          -1   0.00000       0.00000    
     48277 TIP3     4414     SWM4     H1       HDW      0.557330       1.00800           0   0.00000       0.00000    
     48278 TIP3     4414     SWM4     H2       HDW      0.557330       1.00800           0   0.00000       0.00000    
     48279 TIP3     4415     SWM4     OH2      ODW       1.71640       15.5994           0 -0.978253       1.30000    
     48280 TIP3     4415     SWM4     DOH2     DOH2     -1.71640      0.400000           0   0.00000       0.00000    
     48281 TIP3     4415     SWM4     OM       LPDW     -1.11466       0.00000          -1   0.00000       0.00000    
     48282 TIP3     4415     SWM4     H1       HDW      0.557330       1.00800           0   0.00000       0.00000    
     48283 TIP3     4415     SWM4     H2       HDW      0.557330       1.00800           0   0.00000       0.00000    
     48284 TIP3     4416     SWM4     OH2      ODW       1.71640       15.5994           0 -0.978253       1.30000    
     48285 TIP3     4416     SWM4     DOH2     DOH2     -1.71640      0.400000           0   0.00000       0.00000    
     48286 TIP3     4416     SWM4     OM       LPDW     -1.11466       0.00000          -1   0.00000       0.00000    
     48287 TIP3     4416     SWM4     H1       HDW      0.557330       1.00800           0   0.00000       0.00000    
     48288 TIP3     4416     SWM4     H2       HDW      0.557330       1.00800           0   0.00000       0.00000    
     48289 TIP3     4417     SWM4     OH2      ODW       1.71640       15.5994           0 -0.978253       1.30000    
     48290 TIP3     4417     SWM4     DOH2     DOH2     -1.71640      0.400000           0   0.00000       0.00000    
     48291 TIP3     4417     SWM4     OM       LPDW     -1.11466       0.00000          -1   0.00000       0.00000    
     48292 TIP3     4417     SWM4     H1       HDW      0.557330       1.00800           0   0.00000       0.00000    
     48293 TIP3     4417     SWM4     H2       HDW      0.557330       1.00800           0   0.00000       0.00000    
     48294 TIP3     4418     SWM4     OH2      ODW       1.71640       15.5994           0 -0.978253       1.30000    
     48295 TIP3     4418     SWM4     DOH2     DOH2     -1.71640      0.400000           0   0.00000       0.00000    
     48296 TIP3     4418     SWM4     OM       LPDW     -1.11466       0.00000          -1   0.00000       0.00000    
     48297 TIP3     4418     SWM4     H1       HDW      0.557330       1.00800           0   0.00000       0.00000    
     48298 TIP3     4418     SWM4     H2       HDW      0.557330       1.00800           0   0.00000       0.00000    
     48299 TIP3     4419     SWM4     OH2      ODW       1.71640       15.5994           0 -0.978253       1.30000    
     48300 TIP3     4419     SWM4     DOH2     DOH2     -1.71640      0.400000           0   0.00000       0.00000    
     48301 TIP3     4419     SWM4     OM       LPDW     -1.11466       0.00000          -1   0.00000       0.00000    
     48302 TIP3     4419     SWM4     H1       HDW      0.557330       1.00800           0   0.00000       0.00000    
     48303 TIP3     4419     SWM4     H2       HDW      0.557330       1.00800           0   0.00000       0.00000    
     48304 TIP3     4420     SWM4     OH2      ODW       1.71640       15.5994           0 -0.978253       1.30000    
     48305 TIP3     4420     SWM4     DOH2     DOH2     -1.71640      0.400000           0   0.00000       0.00000    
     48306 TIP3     4420     SWM4     OM       LPDW     -1.11466       0.00000          -1   0.00000       0.00000    
     48307 TIP3     4420     SWM4     H1       HDW      0.557330       1.00800           0   0.00000       0.00000    
     48308 TIP3     4420     SWM4     H2       HDW      0.557330       1.00800           0   0.00000       0.00000    
     48309 TIP3     4421     SWM4     OH2      ODW       1.71640       15.5994           0 -0.978253       1.30000    
     48310 TIP3     4421     SWM4     DOH2     DOH2     -1.71640      0.400000           0   0.00000       0.00000    
     48311 TIP3     4421     SWM4     OM       LPDW     -1.11466       0.00000          -1   0.00000       0.00000    
     48312 TIP3     4421     SWM4     H1       HDW      0.557330       1.00800           0   0.00000       0.00000    
     48313 TIP3     4421     SWM4     H2       HDW      0.557330       1.00800           0   0.00000       0.00000    
     48314 TIP3     4422     SWM4     OH2      ODW       1.71640       15.5994           0 -0.978253       1.30000    
     48315 TIP3     4422     SWM4     DOH2     DOH2     -1.71640      0.400000           0   0.00000       0.00000    
     48316 TIP3     4422     SWM4     OM       LPDW     -1.11466       0.00000          -1   0.00000       0.00000    
     48317 TIP3     4422     SWM4     H1       HDW      0.557330       1.00800           0   0.00000       0.00000    
     48318 TIP3     4422     SWM4     H2       HDW      0.557330       1.00800           0   0.00000       0.00000    
     48319 TIP3     4423     SWM4     OH2      ODW       1.71640       15.5994           0 -0.978253       1.30000    
     48320 TIP3     4423     SWM4     DOH2     DOH2     -1.71640      0.400000           0   0.00000       0.00000    
     48321 TIP3     4423     SWM4     OM       LPDW     -1.11466       0.00000          -1   0.00000       0.00000    
     48322 TIP3     4423     SWM4     H1       HDW      0.557330       1.00800           0   0.00000       0.00000    
     48323 TIP3     4423     SWM4     H2       HDW      0.557330       1.00800           0   0.00000       0.00000    
     48324 TIP3     4424     SWM4     OH2      ODW       1.71640       15.5994           0 -0.978253       1.30000    
     48325 TIP3     4424     SWM4     DOH2     DOH2     -1.71640      0.400000           0   0.00000       0.00000    
     48326 TIP3     4424     SWM4     OM       LPDW     -1.11466       0.00000          -1   0.00000       0.00000    
     48327 TIP3     4424     SWM4     H1       HDW      0.557330       1.00800           0   0.00000       0.00000    
     48328 TIP3     4424     SWM4     H2       HDW      0.557330       1.00800           0   0.00000       0.00000    
     48329 TIP3     4425     SWM4     OH2      ODW       1.71640       15.5994           0 -0.978253       1.30000    
     48330 TIP3     4425     SWM4     DOH2     DOH2     -1.71640      0.400000           0   0.00000       0.00000    
     48331 TIP3     4425     SWM4     OM       LPDW     -1.11466       0.00000          -1   0.00000       0.00000    
     48332 TIP3     4425     SWM4     H1       HDW      0.557330       1.00800           0   0.00000       0.00000    
     48333 TIP3     4425     SWM4     H2       HDW      0.557330       1.00800           0   0.00000       0.00000    
     48334 TIP3     4426     SWM4     OH2      ODW       1.71640       15.5994           0 -0.978253       1.30000    
     48335 TIP3     4426     SWM4     DOH2     DOH2     -1.71640      0.400000           0   0.00000       0.00000    
     48336 TIP3     4426     SWM4     OM       LPDW     -1.11466       0.00000          -1   0.00000       0.00000    
     48337 TIP3     4426     SWM4     H1       HDW      0.557330       1.00800           0   0.00000       0.00000    
     48338 TIP3     4426     SWM4     H2       HDW      0.557330       1.00800           0   0.00000       0.00000    
     48339 TIP3     4427     SWM4     OH2      ODW       1.71640       15.5994           0 -0.978253       1.30000    
     48340 TIP3     4427     SWM4     DOH2     DOH2     -1.71640      0.400000           0   0.00000       0.00000    
     48341 TIP3     4427     SWM4     OM       LPDW     -1.11466       0.00000          -1   0.00000       0.00000    
     48342 TIP3     4427     SWM4     H1       HDW      0.557330       1.00800           0   0.00000       0.00000    
     48343 TIP3     4427     SWM4     H2       HDW      0.557330       1.00800           0   0.00000       0.00000    
     48344 TIP3     4428     SWM4     OH2      ODW       1.71640       15.5994           0 -0.978253       1.30000    
     48345 TIP3     4428     SWM4     DOH2     DOH2     -1.71640      0.400000           0   0.00000       0.00000    
     48346 TIP3     4428     SWM4     OM       LPDW     -1.11466       0.00000          -1   0.00000       0.00000    
     48347 TIP3     4428     SWM4     H1       HDW      0.557330       1.00800           0   0.00000       0.00000    
     48348 TIP3     4428     SWM4     H2       HDW      0.557330       1.00800           0   0.00000       0.00000    
     48349 TIP3     4429     SWM4     OH2      ODW       1.71640       15.5994           0 -0.978253       1.30000    
     48350 TIP3     4429     SWM4     DOH2     DOH2     -1.71640      0.400000           0   0.00000       0.00000    
     48351 TIP3     4429     SWM4     OM       LPDW     -1.11466       0.00000          -1   0.00000       0.00000    
     48352 TIP3     4429     SWM4     H1       HDW      0.557330       1.00800           0   0.00000       0.00000    
     48353 TIP3     4429     SWM4     H2       HDW      0.557330       1.00800           0   0.00000       0.00000    
     48354 TIP3     4430     SWM4     OH2      ODW       1.71640       15.5994           0 -0.978253       1.30000    
     48355 TIP3     4430     SWM4     DOH2     DOH2     -1.71640      0.400000           0   0.00000       0.00000    
     48356 TIP3     4430     SWM4     OM       LPDW     -1.11466       0.00000          -1   0.00000       0.00000    
     48357 TIP3     4430     SWM4     H1       HDW      0.557330       1.00800           0   0.00000       0.00000    
     48358 TIP3     4430     SWM4     H2       HDW      0.557330       1.00800           0   0.00000       0.00000    
     48359 TIP3     4431     SWM4     OH2      ODW       1.71640       15.5994           0 -0.978253       1.30000    
     48360 TIP3     4431     SWM4     DOH2     DOH2     -1.71640      0.400000           0   0.00000       0.00000    
     48361 TIP3     4431     SWM4     OM       LPDW     -1.11466       0.00000          -1   0.00000       0.00000    
     48362 TIP3     4431     SWM4     H1       HDW      0.557330       1.00800           0   0.00000       0.00000    
     48363 TIP3     4431     SWM4     H2       HDW      0.557330       1.00800           0   0.00000       0.00000    
     48364 TIP3     4432     SWM4     OH2      ODW       1.71640       15.5994           0 -0.978253       1.30000    
     48365 TIP3     4432     SWM4     DOH2     DOH2     -1.71640      0.400000           0   0.00000       0.00000    
     48366 TIP3     4432     SWM4     OM       LPDW     -1.11466       0.00000          -1   0.00000       0.00000    
     48367 TIP3     4432     SWM4     H1       HDW      0.557330       1.00800           0   0.00000       0.00000    
     48368 TIP3     4432     SWM4     H2       HDW      0.557330       1.00800           0   0.00000       0.00000    
     48369 TIP3     4433     SWM4     OH2      ODW       1.71640       15.5994           0 -0.978253       1.30000    
     48370 TIP3     4433     SWM4     DOH2     DOH2     -1.71640      0.400000           0   0.00000       0.00000    
     48371 TIP3     4433     SWM4     OM       LPDW     -1.11466       0.00000          -1   0.00000       0.00000    
     48372 TIP3     4433     SWM4     H1       HDW      0.557330       1.00800           0   0.00000       0.00000    
     48373 TIP3     4433     SWM4     H2       HDW      0.557330       1.00800           0   0.00000       0.00000    
     48374 TIP3     4434     SWM4     OH2      ODW       1.71640       15.5994           0 -0.978253       1.30000    
     48375 TIP3     4434     SWM4     DOH2     DOH2     -1.71640      0.400000           0   0.00000       0.00000    
     48376 TIP3     4434     SWM4     OM       LPDW     -1.11466       0.00000          -1   0.00000       0.00000    
     48377 TIP3     4434     SWM4     H1       HDW      0.557330       1.00800           0   0.00000       0.00000    
     48378 TIP3     4434     SWM4     H2       HDW      0.557330       1.00800           0   0.00000       0.00000    
     48379 TIP3     4435     SWM4     OH2      ODW       1.71640       15.5994           0 -0.978253       1.30000    
     48380 TIP3     4435     SWM4     DOH2     DOH2     -1.71640      0.400000           0   0.00000       0.00000    
     48381 TIP3     4435     SWM4     OM       LPDW     -1.11466       0.00000          -1   0.00000       0.00000    
     48382 TIP3     4435     SWM4     H1       HDW      0.557330       1.00800           0   0.00000       0.00000    
     48383 TIP3     4435     SWM4     H2       HDW      0.557330       1.00800           0   0.00000       0.00000    
     48384 TIP3     4436     SWM4     OH2      ODW       1.71640       15.5994           0 -0.978253       1.30000    
     48385 TIP3     4436     SWM4     DOH2     DOH2     -1.71640      0.400000           0   0.00000       0.00000    
     48386 TIP3     4436     SWM4     OM       LPDW     -1.11466       0.00000          -1   0.00000       0.00000    
     48387 TIP3     4436     SWM4     H1       HDW      0.557330       1.00800           0   0.00000       0.00000    
     48388 TIP3     4436     SWM4     H2       HDW      0.557330       1.00800           0   0.00000       0.00000    
     48389 TIP3     4437     SWM4     OH2      ODW       1.71640       15.5994           0 -0.978253       1.30000    
     48390 TIP3     4437     SWM4     DOH2     DOH2     -1.71640      0.400000           0   0.00000       0.00000    
     48391 TIP3     4437     SWM4     OM       LPDW     -1.11466       0.00000          -1   0.00000       0.00000    
     48392 TIP3     4437     SWM4     H1       HDW      0.557330       1.00800           0   0.00000       0.00000    
     48393 TIP3     4437     SWM4     H2       HDW      0.557330       1.00800           0   0.00000       0.00000    
     48394 TIP3     4438     SWM4     OH2      ODW       1.71640       15.5994           0 -0.978253       1.30000    
     48395 TIP3     4438     SWM4     DOH2     DOH2     -1.71640      0.400000           0   0.00000       0.00000    
     48396 TIP3     4438     SWM4     OM       LPDW     -1.11466       0.00000          -1   0.00000       0.00000    
     48397 TIP3     4438     SWM4     H1       HDW      0.557330       1.00800           0   0.00000       0.00000    
     48398 TIP3     4438     SWM4     H2       HDW      0.557330       1.00800           0   0.00000       0.00000    
     48399 TIP3     4439     SWM4     OH2      ODW       1.71640       15.5994           0 -0.978253       1.30000    
     48400 TIP3     4439     SWM4     DOH2     DOH2     -1.71640      0.400000           0   0.00000       0.00000    
     48401 TIP3     4439     SWM4     OM       LPDW     -1.11466       0.00000          -1   0.00000       0.00000    
     48402 TIP3     4439     SWM4     H1       HDW      0.557330       1.00800           0   0.00000       0.00000    
     48403 TIP3     4439     SWM4     H2       HDW      0.557330       1.00800           0   0.00000       0.00000    
     48404 TIP3     4440     SWM4     OH2      ODW       1.71640       15.5994           0 -0.978253       1.30000    
     48405 TIP3     4440     SWM4     DOH2     DOH2     -1.71640      0.400000           0   0.00000       0.00000    
     48406 TIP3     4440     SWM4     OM       LPDW     -1.11466       0.00000          -1   0.00000       0.00000    
     48407 TIP3     4440     SWM4     H1       HDW      0.557330       1.00800           0   0.00000       0.00000    
     48408 TIP3     4440     SWM4     H2       HDW      0.557330       1.00800           0   0.00000       0.00000    
     48409 TIP3     4441     SWM4     OH2      ODW       1.71640       15.5994           0 -0.978253       1.30000    
     48410 TIP3     4441     SWM4     DOH2     DOH2     -1.71640      0.400000           0   0.00000       0.00000    
     48411 TIP3     4441     SWM4     OM       LPDW     -1.11466       0.00000          -1   0.00000       0.00000    
     48412 TIP3     4441     SWM4     H1       HDW      0.557330       1.00800           0   0.00000       0.00000    
     48413 TIP3     4441     SWM4     H2       HDW      0.557330       1.00800           0   0.00000       0.00000    
     48414 TIP3     4442     SWM4     OH2      ODW       1.71640       15.5994           0 -0.978253       1.30000    
     48415 TIP3     4442     SWM4     DOH2     DOH2     -1.71640      0.400000           0   0.00000       0.00000    
     48416 TIP3     4442     SWM4     OM       LPDW     -1.11466       0.00000          -1   0.00000       0.00000    
     48417 TIP3     4442     SWM4     H1       HDW      0.557330       1.00800           0   0.00000       0.00000    
     48418 TIP3     4442     SWM4     H2       HDW      0.557330       1.00800           0   0.00000       0.00000    
     48419 TIP3     4443     SWM4     OH2      ODW       1.71640       15.5994           0 -0.978253       1.30000    
     48420 TIP3     4443     SWM4     DOH2     DOH2     -1.71640      0.400000           0   0.00000       0.00000    
     48421 TIP3     4443     SWM4     OM       LPDW     -1.11466       0.00000          -1   0.00000       0.00000    
     48422 TIP3     4443     SWM4     H1       HDW      0.557330       1.00800           0   0.00000       0.00000    
     48423 TIP3     4443     SWM4     H2       HDW      0.557330       1.00800           0   0.00000       0.00000    
     48424 TIP3     4444     SWM4     OH2      ODW       1.71640       15.5994           0 -0.978253       1.30000    
     48425 TIP3     4444     SWM4     DOH2     DOH2     -1.71640      0.400000           0   0.00000       0.00000    
     48426 TIP3     4444     SWM4     OM       LPDW     -1.11466       0.00000          -1   0.00000       0.00000    
     48427 TIP3     4444     SWM4     H1       HDW      0.557330       1.00800           0   0.00000       0.00000    
     48428 TIP3     4444     SWM4     H2       HDW      0.557330       1.00800           0   0.00000       0.00000    
     48429 TIP3     4445     SWM4     OH2      ODW       1.71640       15.5994           0 -0.978253       1.30000    
     48430 TIP3     4445     SWM4     DOH2     DOH2     -1.71640      0.400000           0   0.00000       0.00000    
     48431 TIP3     4445     SWM4     OM       LPDW     -1.11466       0.00000          -1   0.00000       0.00000    
     48432 TIP3     4445     SWM4     H1       HDW      0.557330       1.00800           0   0.00000       0.00000    
     48433 TIP3     4445     SWM4     H2       HDW      0.557330       1.00800           0   0.00000       0.00000    
     48434 TIP3     4446     SWM4     OH2      ODW       1.71640       15.5994           0 -0.978253       1.30000    
     48435 TIP3     4446     SWM4     DOH2     DOH2     -1.71640      0.400000           0   0.00000       0.00000    
     48436 TIP3     4446     SWM4     OM       LPDW     -1.11466       0.00000          -1   0.00000       0.00000    
     48437 TIP3     4446     SWM4     H1       HDW      0.557330       1.00800           0   0.00000       0.00000    
     48438 TIP3     4446     SWM4     H2       HDW      0.557330       1.00800           0   0.00000       0.00000    
     48439 TIP3     4447     SWM4     OH2      ODW       1.71640       15.5994           0 -0.978253       1.30000    
     48440 TIP3     4447     SWM4     DOH2     DOH2     -1.71640      0.400000           0   0.00000       0.00000    
     48441 TIP3     4447     SWM4     OM       LPDW     -1.11466       0.00000          -1   0.00000       0.00000    
     48442 TIP3     4447     SWM4     H1       HDW      0.557330       1.00800           0   0.00000       0.00000    
     48443 TIP3     4447     SWM4     H2       HDW      0.557330       1.00800           0   0.00000       0.00000    
     48444 TIP3     4448     SWM4     OH2      ODW       1.71640       15.5994           0 -0.978253       1.30000    
     48445 TIP3     4448     SWM4     DOH2     DOH2     -1.71640      0.400000           0   0.00000       0.00000    
     48446 TIP3     4448     SWM4     OM       LPDW     -1.11466       0.00000          -1   0.00000       0.00000    
     48447 TIP3     4448     SWM4     H1       HDW      0.557330       1.00800           0   0.00000       0.00000    
     48448 TIP3     4448     SWM4     H2       HDW      0.557330       1.00800           0   0.00000       0.00000    
     48449 TIP3     4449     SWM4     OH2      ODW       1.71640       15.5994           0 -0.978253       1.30000    
     48450 TIP3     4449     SWM4     DOH2     DOH2     -1.71640      0.400000           0   0.00000       0.00000    
     48451 TIP3     4449     SWM4     OM       LPDW     -1.11466       0.00000          -1   0.00000       0.00000    
     48452 TIP3     4449     SWM4     H1       HDW      0.557330       1.00800           0   0.00000       0.00000    
     48453 TIP3     4449     SWM4     H2       HDW      0.557330       1.00800           0   0.00000       0.00000    
     48454 TIP3     4450     SWM4     OH2      ODW       1.71640       15.5994           0 -0.978253       1.30000    
     48455 TIP3     4450     SWM4     DOH2     DOH2     -1.71640      0.400000           0   0.00000       0.00000    
     48456 TIP3     4450     SWM4     OM       LPDW     -1.11466       0.00000          -1   0.00000       0.00000    
     48457 TIP3     4450     SWM4     H1       HDW      0.557330       1.00800           0   0.00000       0.00000    
     48458 TIP3     4450     SWM4     H2       HDW      0.557330       1.00800           0   0.00000       0.00000    
     48459 TIP3     4451     SWM4     OH2      ODW       1.71640       15.5994           0 -0.978253       1.30000    
     48460 TIP3     4451     SWM4     DOH2     DOH2     -1.71640      0.400000           0   0.00000       0.00000    
     48461 TIP3     4451     SWM4     OM       LPDW     -1.11466       0.00000          -1   0.00000       0.00000    
     48462 TIP3     4451     SWM4     H1       HDW      0.557330       1.00800           0   0.00000       0.00000    
     48463 TIP3     4451     SWM4     H2       HDW      0.557330       1.00800           0   0.00000       0.00000    
     48464 TIP3     4452     SWM4     OH2      ODW       1.71640       15.5994           0 -0.978253       1.30000    
     48465 TIP3     4452     SWM4     DOH2     DOH2     -1.71640      0.400000           0   0.00000       0.00000    
     48466 TIP3     4452     SWM4     OM       LPDW     -1.11466       0.00000          -1   0.00000       0.00000    
     48467 TIP3     4452     SWM4     H1       HDW      0.557330       1.00800           0   0.00000       0.00000    
     48468 TIP3     4452     SWM4     H2       HDW      0.557330       1.00800           0   0.00000       0.00000    
     48469 TIP3     4453     SWM4     OH2      ODW       1.71640       15.5994           0 -0.978253       1.30000    
     48470 TIP3     4453     SWM4     DOH2     DOH2     -1.71640      0.400000           0   0.00000       0.00000    
     48471 TIP3     4453     SWM4     OM       LPDW     -1.11466       0.00000          -1   0.00000       0.00000    
     48472 TIP3     4453     SWM4     H1       HDW      0.557330       1.00800           0   0.00000       0.00000    
     48473 TIP3     4453     SWM4     H2       HDW      0.557330       1.00800           0   0.00000       0.00000    
     48474 TIP3     4454     SWM4     OH2      ODW       1.71640       15.5994           0 -0.978253       1.30000    
     48475 TIP3     4454     SWM4     DOH2     DOH2     -1.71640      0.400000           0   0.00000       0.00000    
     48476 TIP3     4454     SWM4     OM       LPDW     -1.11466       0.00000          -1   0.00000       0.00000    
     48477 TIP3     4454     SWM4     H1       HDW      0.557330       1.00800           0   0.00000       0.00000    
     48478 TIP3     4454     SWM4     H2       HDW      0.557330       1.00800           0   0.00000       0.00000    
     48479 TIP3     4455     SWM4     OH2      ODW       1.71640       15.5994           0 -0.978253       1.30000    
     48480 TIP3     4455     SWM4     DOH2     DOH2     -1.71640      0.400000           0   0.00000       0.00000    
     48481 TIP3     4455     SWM4     OM       LPDW     -1.11466       0.00000          -1   0.00000       0.00000    
     48482 TIP3     4455     SWM4     H1       HDW      0.557330       1.00800           0   0.00000       0.00000    
     48483 TIP3     4455     SWM4     H2       HDW      0.557330       1.00800           0   0.00000       0.00000    
     48484 TIP3     4456     SWM4     OH2      ODW       1.71640       15.5994           0 -0.978253       1.30000    
     48485 TIP3     4456     SWM4     DOH2     DOH2     -1.71640      0.400000           0   0.00000       0.00000    
     48486 TIP3     4456     SWM4     OM       LPDW     -1.11466       0.00000          -1   0.00000       0.00000    
     48487 TIP3     4456     SWM4     H1       HDW      0.557330       1.00800           0   0.00000       0.00000    
     48488 TIP3     4456     SWM4     H2       HDW      0.557330       1.00800           0   0.00000       0.00000    
     48489 TIP3     4457     SWM4     OH2      ODW       1.71640       15.5994           0 -0.978253       1.30000    
     48490 TIP3     4457     SWM4     DOH2     DOH2     -1.71640      0.400000           0   0.00000       0.00000    
     48491 TIP3     4457     SWM4     OM       LPDW     -1.11466       0.00000          -1   0.00000       0.00000    
     48492 TIP3     4457     SWM4     H1       HDW      0.557330       1.00800           0   0.00000       0.00000    
     48493 TIP3     4457     SWM4     H2       HDW      0.557330       1.00800           0   0.00000       0.00000    
     48494 TIP3     4458     SWM4     OH2      ODW       1.71640       15.5994           0 -0.978253       1.30000    
     48495 TIP3     4458     SWM4     DOH2     DOH2     -1.71640      0.400000           0   0.00000       0.00000    
     48496 TIP3     4458     SWM4     OM       LPDW     -1.11466       0.00000          -1   0.00000       0.00000    
     48497 TIP3     4458     SWM4     H1       HDW      0.557330       1.00800           0   0.00000       0.00000    
     48498 TIP3     4458     SWM4     H2       HDW      0.557330       1.00800           0   0.00000       0.00000    
     48499 TIP3     4459     SWM4     OH2      ODW       1.71640       15.5994           0 -0.978253       1.30000    
     48500 TIP3     4459     SWM4     DOH2     DOH2     -1.71640      0.400000           0   0.00000       0.00000    
     48501 TIP3     4459     SWM4     OM       LPDW     -1.11466       0.00000          -1   0.00000       0.00000    
     48502 TIP3     4459     SWM4     H1       HDW      0.557330       1.00800           0   0.00000       0.00000    
     48503 TIP3     4459     SWM4     H2       HDW      0.557330       1.00800           0   0.00000       0.00000    
     48504 TIP3     4460     SWM4     OH2      ODW       1.71640       15.5994           0 -0.978253       1.30000    
     48505 TIP3     4460     SWM4     DOH2     DOH2     -1.71640      0.400000           0   0.00000       0.00000    
     48506 TIP3     4460     SWM4     OM       LPDW     -1.11466       0.00000          -1   0.00000       0.00000    
     48507 TIP3     4460     SWM4     H1       HDW      0.557330       1.00800           0   0.00000       0.00000    
     48508 TIP3     4460     SWM4     H2       HDW      0.557330       1.00800           0   0.00000       0.00000    
     48509 TIP3     4461     SWM4     OH2      ODW       1.71640       15.5994           0 -0.978253       1.30000    
     48510 TIP3     4461     SWM4     DOH2     DOH2     -1.71640      0.400000           0   0.00000       0.00000    
     48511 TIP3     4461     SWM4     OM       LPDW     -1.11466       0.00000          -1   0.00000       0.00000    
     48512 TIP3     4461     SWM4     H1       HDW      0.557330       1.00800           0   0.00000       0.00000    
     48513 TIP3     4461     SWM4     H2       HDW      0.557330       1.00800           0   0.00000       0.00000    
     48514 TIP3     4462     SWM4     OH2      ODW       1.71640       15.5994           0 -0.978253       1.30000    
     48515 TIP3     4462     SWM4     DOH2     DOH2     -1.71640      0.400000           0   0.00000       0.00000    
     48516 TIP3     4462     SWM4     OM       LPDW     -1.11466       0.00000          -1   0.00000       0.00000    
     48517 TIP3     4462     SWM4     H1       HDW      0.557330       1.00800           0   0.00000       0.00000    
     48518 TIP3     4462     SWM4     H2       HDW      0.557330       1.00800           0   0.00000       0.00000    
     48519 TIP3     4463     SWM4     OH2      ODW       1.71640       15.5994           0 -0.978253       1.30000    
     48520 TIP3     4463     SWM4     DOH2     DOH2     -1.71640      0.400000           0   0.00000       0.00000    
     48521 TIP3     4463     SWM4     OM       LPDW     -1.11466       0.00000          -1   0.00000       0.00000    
     48522 TIP3     4463     SWM4     H1       HDW      0.557330       1.00800           0   0.00000       0.00000    
     48523 TIP3     4463     SWM4     H2       HDW      0.557330       1.00800           0   0.00000       0.00000    
     48524 TIP3     4464     SWM4     OH2      ODW       1.71640       15.5994           0 -0.978253       1.30000    
     48525 TIP3     4464     SWM4     DOH2     DOH2     -1.71640      0.400000           0   0.00000       0.00000    
     48526 TIP3     4464     SWM4     OM       LPDW     -1.11466       0.00000          -1   0.00000       0.00000    
     48527 TIP3     4464     SWM4     H1       HDW      0.557330       1.00800           0   0.00000       0.00000    
     48528 TIP3     4464     SWM4     H2       HDW      0.557330       1.00800           0   0.00000       0.00000    
     48529 TIP3     4465     SWM4     OH2      ODW       1.71640       15.5994           0 -0.978253       1.30000    
     48530 TIP3     4465     SWM4     DOH2     DOH2     -1.71640      0.400000           0   0.00000       0.00000    
     48531 TIP3     4465     SWM4     OM       LPDW     -1.11466       0.00000          -1   0.00000       0.00000    
     48532 TIP3     4465     SWM4     H1       HDW      0.557330       1.00800           0   0.00000       0.00000    
     48533 TIP3     4465     SWM4     H2       HDW      0.557330       1.00800           0   0.00000       0.00000    
     48534 TIP3     4466     SWM4     OH2      ODW       1.71640       15.5994           0 -0.978253       1.30000    
     48535 TIP3     4466     SWM4     DOH2     DOH2     -1.71640      0.400000           0   0.00000       0.00000    
     48536 TIP3     4466     SWM4     OM       LPDW     -1.11466       0.00000          -1   0.00000       0.00000    
     48537 TIP3     4466     SWM4     H1       HDW      0.557330       1.00800           0   0.00000       0.00000    
     48538 TIP3     4466     SWM4     H2       HDW      0.557330       1.00800           0   0.00000       0.00000    
     48539 TIP3     4467     SWM4     OH2      ODW       1.71640       15.5994           0 -0.978253       1.30000    
     48540 TIP3     4467     SWM4     DOH2     DOH2     -1.71640      0.400000           0   0.00000       0.00000    
     48541 TIP3     4467     SWM4     OM       LPDW     -1.11466       0.00000          -1   0.00000       0.00000    
     48542 TIP3     4467     SWM4     H1       HDW      0.557330       1.00800           0   0.00000       0.00000    
     48543 TIP3     4467     SWM4     H2       HDW      0.557330       1.00800           0   0.00000       0.00000    
     48544 TIP3     4468     SWM4     OH2      ODW       1.71640       15.5994           0 -0.978253       1.30000    
     48545 TIP3     4468     SWM4     DOH2     DOH2     -1.71640      0.400000           0   0.00000       0.00000    
     48546 TIP3     4468     SWM4     OM       LPDW     -1.11466       0.00000          -1   0.00000       0.00000    
     48547 TIP3     4468     SWM4     H1       HDW      0.557330       1.00800           0   0.00000       0.00000    
     48548 TIP3     4468     SWM4     H2       HDW      0.557330       1.00800           0   0.00000       0.00000    
     48549 TIP3     4469     SWM4     OH2      ODW       1.71640       15.5994           0 -0.978253       1.30000    
     48550 TIP3     4469     SWM4     DOH2     DOH2     -1.71640      0.400000           0   0.00000       0.00000    
     48551 TIP3     4469     SWM4     OM       LPDW     -1.11466       0.00000          -1   0.00000       0.00000    
     48552 TIP3     4469     SWM4     H1       HDW      0.557330       1.00800           0   0.00000       0.00000    
     48553 TIP3     4469     SWM4     H2       HDW      0.557330       1.00800           0   0.00000       0.00000    
     48554 TIP3     4470     SWM4     OH2      ODW       1.71640       15.5994           0 -0.978253       1.30000    
     48555 TIP3     4470     SWM4     DOH2     DOH2     -1.71640      0.400000           0   0.00000       0.00000    
     48556 TIP3     4470     SWM4     OM       LPDW     -1.11466       0.00000          -1   0.00000       0.00000    
     48557 TIP3     4470     SWM4     H1       HDW      0.557330       1.00800           0   0.00000       0.00000    
     48558 TIP3     4470     SWM4     H2       HDW      0.557330       1.00800           0   0.00000       0.00000    
     48559 TIP3     4471     SWM4     OH2      ODW       1.71640       15.5994           0 -0.978253       1.30000    
     48560 TIP3     4471     SWM4     DOH2     DOH2     -1.71640      0.400000           0   0.00000       0.00000    
     48561 TIP3     4471     SWM4     OM       LPDW     -1.11466       0.00000          -1   0.00000       0.00000    
     48562 TIP3     4471     SWM4     H1       HDW      0.557330       1.00800           0   0.00000       0.00000    
     48563 TIP3     4471     SWM4     H2       HDW      0.557330       1.00800           0   0.00000       0.00000    
     48564 TIP3     4472     SWM4     OH2      ODW       1.71640       15.5994           0 -0.978253       1.30000    
     48565 TIP3     4472     SWM4     DOH2     DOH2     -1.71640      0.400000           0   0.00000       0.00000    
     48566 TIP3     4472     SWM4     OM       LPDW     -1.11466       0.00000          -1   0.00000       0.00000    
     48567 TIP3     4472     SWM4     H1       HDW      0.557330       1.00800           0   0.00000       0.00000    
     48568 TIP3     4472     SWM4     H2       HDW      0.557330       1.00800           0   0.00000       0.00000    
     48569 TIP3     4473     SWM4     OH2      ODW       1.71640       15.5994           0 -0.978253       1.30000    
     48570 TIP3     4473     SWM4     DOH2     DOH2     -1.71640      0.400000           0   0.00000       0.00000    
     48571 TIP3     4473     SWM4     OM       LPDW     -1.11466       0.00000          -1   0.00000       0.00000    
     48572 TIP3     4473     SWM4     H1       HDW      0.557330       1.00800           0   0.00000       0.00000    
     48573 TIP3     4473     SWM4     H2       HDW      0.557330       1.00800           0   0.00000       0.00000    
     48574 TIP3     4474     SWM4     OH2      ODW       1.71640       15.5994           0 -0.978253       1.30000    
     48575 TIP3     4474     SWM4     DOH2     DOH2     -1.71640      0.400000           0   0.00000       0.00000    
     48576 TIP3     4474     SWM4     OM       LPDW     -1.11466       0.00000          -1   0.00000       0.00000    
     48577 TIP3     4474     SWM4     H1       HDW      0.557330       1.00800           0   0.00000       0.00000    
     48578 TIP3     4474     SWM4     H2       HDW      0.557330       1.00800           0   0.00000       0.00000    
     48579 TIP3     4475     SWM4     OH2      ODW       1.71640       15.5994           0 -0.978253       1.30000    
     48580 TIP3     4475     SWM4     DOH2     DOH2     -1.71640      0.400000           0   0.00000       0.00000    
     48581 TIP3     4475     SWM4     OM       LPDW     -1.11466       0.00000          -1   0.00000       0.00000    
     48582 TIP3     4475     SWM4     H1       HDW      0.557330       1.00800           0   0.00000       0.00000    
     48583 TIP3     4475     SWM4     H2       HDW      0.557330       1.00800           0   0.00000       0.00000    
     48584 TIP3     4476     SWM4     OH2      ODW       1.71640       15.5994           0 -0.978253       1.30000    
     48585 TIP3     4476     SWM4     DOH2     DOH2     -1.71640      0.400000           0   0.00000       0.00000    
     48586 TIP3     4476     SWM4     OM       LPDW     -1.11466       0.00000          -1   0.00000       0.00000    
     48587 TIP3     4476     SWM4     H1       HDW      0.557330       1.00800           0   0.00000       0.00000    
     48588 TIP3     4476     SWM4     H2       HDW      0.557330       1.00800           0   0.00000       0.00000    
     48589 TIP3     4477     SWM4     OH2      ODW       1.71640       15.5994           0 -0.978253       1.30000    
     48590 TIP3     4477     SWM4     DOH2     DOH2     -1.71640      0.400000           0   0.00000       0.00000    
     48591 TIP3     4477     SWM4     OM       LPDW     -1.11466       0.00000          -1   0.00000       0.00000    
     48592 TIP3     4477     SWM4     H1       HDW      0.557330       1.00800           0   0.00000       0.00000    
     48593 TIP3     4477     SWM4     H2       HDW      0.557330       1.00800           0   0.00000       0.00000    
     48594 TIP3     4478     SWM4     OH2      ODW       1.71640       15.5994           0 -0.978253       1.30000    
     48595 TIP3     4478     SWM4     DOH2     DOH2     -1.71640      0.400000           0   0.00000       0.00000    
     48596 TIP3     4478     SWM4     OM       LPDW     -1.11466       0.00000          -1   0.00000       0.00000    
     48597 TIP3     4478     SWM4     H1       HDW      0.557330       1.00800           0   0.00000       0.00000    
     48598 TIP3     4478     SWM4     H2       HDW      0.557330       1.00800           0   0.00000       0.00000    
     48599 TIP3     4479     SWM4     OH2      ODW       1.71640       15.5994           0 -0.978253       1.30000    
     48600 TIP3     4479     SWM4     DOH2     DOH2     -1.71640      0.400000           0   0.00000       0.00000    
     48601 TIP3     4479     SWM4     OM       LPDW     -1.11466       0.00000          -1   0.00000       0.00000    
     48602 TIP3     4479     SWM4     H1       HDW      0.557330       1.00800           0   0.00000       0.00000    
     48603 TIP3     4479     SWM4     H2       HDW      0.557330       1.00800           0   0.00000       0.00000    
     48604 TIP3     4480     SWM4     OH2      ODW       1.71640       15.5994           0 -0.978253       1.30000    
     48605 TIP3     4480     SWM4     DOH2     DOH2     -1.71640      0.400000           0   0.00000       0.00000    
     48606 TIP3     4480     SWM4     OM       LPDW     -1.11466       0.00000          -1   0.00000       0.00000    
     48607 TIP3     4480     SWM4     H1       HDW      0.557330       1.00800           0   0.00000       0.00000    
     48608 TIP3     4480     SWM4     H2       HDW      0.557330       1.00800           0   0.00000       0.00000    
     48609 TIP3     4481     SWM4     OH2      ODW       1.71640       15.5994           0 -0.978253       1.30000    
     48610 TIP3     4481     SWM4     DOH2     DOH2     -1.71640      0.400000           0   0.00000       0.00000    
     48611 TIP3     4481     SWM4     OM       LPDW     -1.11466       0.00000          -1   0.00000       0.00000    
     48612 TIP3     4481     SWM4     H1       HDW      0.557330       1.00800           0   0.00000       0.00000    
     48613 TIP3     4481     SWM4     H2       HDW      0.557330       1.00800           0   0.00000       0.00000    
     48614 TIP3     4482     SWM4     OH2      ODW       1.71640       15.5994           0 -0.978253       1.30000    
     48615 TIP3     4482     SWM4     DOH2     DOH2     -1.71640      0.400000           0   0.00000       0.00000    
     48616 TIP3     4482     SWM4     OM       LPDW     -1.11466       0.00000          -1   0.00000       0.00000    
     48617 TIP3     4482     SWM4     H1       HDW      0.557330       1.00800           0   0.00000       0.00000    
     48618 TIP3     4482     SWM4     H2       HDW      0.557330       1.00800           0   0.00000       0.00000    
     48619 TIP3     4483     SWM4     OH2      ODW       1.71640       15.5994           0 -0.978253       1.30000    
     48620 TIP3     4483     SWM4     DOH2     DOH2     -1.71640      0.400000           0   0.00000       0.00000    
     48621 TIP3     4483     SWM4     OM       LPDW     -1.11466       0.00000          -1   0.00000       0.00000    
     48622 TIP3     4483     SWM4     H1       HDW      0.557330       1.00800           0   0.00000       0.00000    
     48623 TIP3     4483     SWM4     H2       HDW      0.557330       1.00800           0   0.00000       0.00000    
     48624 TIP3     4484     SWM4     OH2      ODW       1.71640       15.5994           0 -0.978253       1.30000    
     48625 TIP3     4484     SWM4     DOH2     DOH2     -1.71640      0.400000           0   0.00000       0.00000    
     48626 TIP3     4484     SWM4     OM       LPDW     -1.11466       0.00000          -1   0.00000       0.00000    
     48627 TIP3     4484     SWM4     H1       HDW      0.557330       1.00800           0   0.00000       0.00000    
     48628 TIP3     4484     SWM4     H2       HDW      0.557330       1.00800           0   0.00000       0.00000    
     48629 TIP3     4485     SWM4     OH2      ODW       1.71640       15.5994           0 -0.978253       1.30000    
     48630 TIP3     4485     SWM4     DOH2     DOH2     -1.71640      0.400000           0   0.00000       0.00000    
     48631 TIP3     4485     SWM4     OM       LPDW     -1.11466       0.00000          -1   0.00000       0.00000    
     48632 TIP3     4485     SWM4     H1       HDW      0.557330       1.00800           0   0.00000       0.00000    
     48633 TIP3     4485     SWM4     H2       HDW      0.557330       1.00800           0   0.00000       0.00000    
     48634 TIP3     4486     SWM4     OH2      ODW       1.71640       15.5994           0 -0.978253       1.30000    
     48635 TIP3     4486     SWM4     DOH2     DOH2     -1.71640      0.400000           0   0.00000       0.00000    
     48636 TIP3     4486     SWM4     OM       LPDW     -1.11466       0.00000          -1   0.00000       0.00000    
     48637 TIP3     4486     SWM4     H1       HDW      0.557330       1.00800           0   0.00000       0.00000    
     48638 TIP3     4486     SWM4     H2       HDW      0.557330       1.00800           0   0.00000       0.00000    
     48639 TIP3     4487     SWM4     OH2      ODW       1.71640       15.5994           0 -0.978253       1.30000    
     48640 TIP3     4487     SWM4     DOH2     DOH2     -1.71640      0.400000           0   0.00000       0.00000    
     48641 TIP3     4487     SWM4     OM       LPDW     -1.11466       0.00000          -1   0.00000       0.00000    
     48642 TIP3     4487     SWM4     H1       HDW      0.557330       1.00800           0   0.00000       0.00000    
     48643 TIP3     4487     SWM4     H2       HDW      0.557330       1.00800           0   0.00000       0.00000    
     48644 TIP3     4488     SWM4     OH2      ODW       1.71640       15.5994           0 -0.978253       1.30000    
     48645 TIP3     4488     SWM4     DOH2     DOH2     -1.71640      0.400000           0   0.00000       0.00000    
     48646 TIP3     4488     SWM4     OM       LPDW     -1.11466       0.00000          -1   0.00000       0.00000    
     48647 TIP3     4488     SWM4     H1       HDW      0.557330       1.00800           0   0.00000       0.00000    
     48648 TIP3     4488     SWM4     H2       HDW      0.557330       1.00800           0   0.00000       0.00000    
     48649 TIP3     4489     SWM4     OH2      ODW       1.71640       15.5994           0 -0.978253       1.30000    
     48650 TIP3     4489     SWM4     DOH2     DOH2     -1.71640      0.400000           0   0.00000       0.00000    
     48651 TIP3     4489     SWM4     OM       LPDW     -1.11466       0.00000          -1   0.00000       0.00000    
     48652 TIP3     4489     SWM4     H1       HDW      0.557330       1.00800           0   0.00000       0.00000    
     48653 TIP3     4489     SWM4     H2       HDW      0.557330       1.00800           0   0.00000       0.00000    
     48654 TIP3     4490     SWM4     OH2      ODW       1.71640       15.5994           0 -0.978253       1.30000    
     48655 TIP3     4490     SWM4     DOH2     DOH2     -1.71640      0.400000           0   0.00000       0.00000    
     48656 TIP3     4490     SWM4     OM       LPDW     -1.11466       0.00000          -1   0.00000       0.00000    
     48657 TIP3     4490     SWM4     H1       HDW      0.557330       1.00800           0   0.00000       0.00000    
     48658 TIP3     4490     SWM4     H2       HDW      0.557330       1.00800           0   0.00000       0.00000    
     48659 TIP3     4491     SWM4     OH2      ODW       1.71640       15.5994           0 -0.978253       1.30000    
     48660 TIP3     4491     SWM4     DOH2     DOH2     -1.71640      0.400000           0   0.00000       0.00000    
     48661 TIP3     4491     SWM4     OM       LPDW     -1.11466       0.00000          -1   0.00000       0.00000    
     48662 TIP3     4491     SWM4     H1       HDW      0.557330       1.00800           0   0.00000       0.00000    
     48663 TIP3     4491     SWM4     H2       HDW      0.557330       1.00800           0   0.00000       0.00000    
     48664 TIP3     4492     SWM4     OH2      ODW       1.71640       15.5994           0 -0.978253       1.30000    
     48665 TIP3     4492     SWM4     DOH2     DOH2     -1.71640      0.400000           0   0.00000       0.00000    
     48666 TIP3     4492     SWM4     OM       LPDW     -1.11466       0.00000          -1   0.00000       0.00000    
     48667 TIP3     4492     SWM4     H1       HDW      0.557330       1.00800           0   0.00000       0.00000    
     48668 TIP3     4492     SWM4     H2       HDW      0.557330       1.00800           0   0.00000       0.00000    
     48669 TIP3     4493     SWM4     OH2      ODW       1.71640       15.5994           0 -0.978253       1.30000    
     48670 TIP3     4493     SWM4     DOH2     DOH2     -1.71640      0.400000           0   0.00000       0.00000    
     48671 TIP3     4493     SWM4     OM       LPDW     -1.11466       0.00000          -1   0.00000       0.00000    
     48672 TIP3     4493     SWM4     H1       HDW      0.557330       1.00800           0   0.00000       0.00000    
     48673 TIP3     4493     SWM4     H2       HDW      0.557330       1.00800           0   0.00000       0.00000    
     48674 TIP3     4494     SWM4     OH2      ODW       1.71640       15.5994           0 -0.978253       1.30000    
     48675 TIP3     4494     SWM4     DOH2     DOH2     -1.71640      0.400000           0   0.00000       0.00000    
     48676 TIP3     4494     SWM4     OM       LPDW     -1.11466       0.00000          -1   0.00000       0.00000    
     48677 TIP3     4494     SWM4     H1       HDW      0.557330       1.00800           0   0.00000       0.00000    
     48678 TIP3     4494     SWM4     H2       HDW      0.557330       1.00800           0   0.00000       0.00000    
     48679 TIP3     4495     SWM4     OH2      ODW       1.71640       15.5994           0 -0.978253       1.30000    
     48680 TIP3     4495     SWM4     DOH2     DOH2     -1.71640      0.400000           0   0.00000       0.00000    
     48681 TIP3     4495     SWM4     OM       LPDW     -1.11466       0.00000          -1   0.00000       0.00000    
     48682 TIP3     4495     SWM4     H1       HDW      0.557330       1.00800           0   0.00000       0.00000    
     48683 TIP3     4495     SWM4     H2       HDW      0.557330       1.00800           0   0.00000       0.00000    
     48684 TIP3     4496     SWM4     OH2      ODW       1.71640       15.5994           0 -0.978253       1.30000    
     48685 TIP3     4496     SWM4     DOH2     DOH2     -1.71640      0.400000           0   0.00000       0.00000    
     48686 TIP3     4496     SWM4     OM       LPDW     -1.11466       0.00000          -1   0.00000       0.00000    
     48687 TIP3     4496     SWM4     H1       HDW      0.557330       1.00800           0   0.00000       0.00000    
     48688 TIP3     4496     SWM4     H2       HDW      0.557330       1.00800           0   0.00000       0.00000    
     48689 TIP3     4497     SWM4     OH2      ODW       1.71640       15.5994           0 -0.978253       1.30000    
     48690 TIP3     4497     SWM4     DOH2     DOH2     -1.71640      0.400000           0   0.00000       0.00000    
     48691 TIP3     4497     SWM4     OM       LPDW     -1.11466       0.00000          -1   0.00000       0.00000    
     48692 TIP3     4497     SWM4     H1       HDW      0.557330       1.00800           0   0.00000       0.00000    
     48693 TIP3     4497     SWM4     H2       HDW      0.557330       1.00800           0   0.00000       0.00000    
     48694 TIP3     4498     SWM4     OH2      ODW       1.71640       15.5994           0 -0.978253       1.30000    
     48695 TIP3     4498     SWM4     DOH2     DOH2     -1.71640      0.400000           0   0.00000       0.00000    
     48696 TIP3     4498     SWM4     OM       LPDW     -1.11466       0.00000          -1   0.00000       0.00000    
     48697 TIP3     4498     SWM4     H1       HDW      0.557330       1.00800           0   0.00000       0.00000    
     48698 TIP3     4498     SWM4     H2       HDW      0.557330       1.00800           0   0.00000       0.00000    
     48699 TIP3     4499     SWM4     OH2      ODW       1.71640       15.5994           0 -0.978253       1.30000    
     48700 TIP3     4499     SWM4     DOH2     DOH2     -1.71640      0.400000           0   0.00000       0.00000    
     48701 TIP3     4499     SWM4     OM       LPDW     -1.11466       0.00000          -1   0.00000       0.00000    
     48702 TIP3     4499     SWM4     H1       HDW      0.557330       1.00800           0   0.00000       0.00000    
     48703 TIP3     4499     SWM4     H2       HDW      0.557330       1.00800           0   0.00000       0.00000    
     48704 TIP3     4500     SWM4     OH2      ODW       1.71640       15.5994           0 -0.978253       1.30000    
     48705 TIP3     4500     SWM4     DOH2     DOH2     -1.71640      0.400000           0   0.00000       0.00000    
     48706 TIP3     4500     SWM4     OM       LPDW     -1.11466       0.00000          -1   0.00000       0.00000    
     48707 TIP3     4500     SWM4     H1       HDW      0.557330       1.00800           0   0.00000       0.00000    
     48708 TIP3     4500     SWM4     H2       HDW      0.557330       1.00800           0   0.00000       0.00000    
     48709 TIP3     4501     SWM4     OH2      ODW       1.71640       15.5994           0 -0.978253       1.30000    
     48710 TIP3     4501     SWM4     DOH2     DOH2     -1.71640      0.400000           0   0.00000       0.00000    
     48711 TIP3     4501     SWM4     OM       LPDW     -1.11466       0.00000          -1   0.00000       0.00000    
     48712 TIP3     4501     SWM4     H1       HDW      0.557330       1.00800           0   0.00000       0.00000    
     48713 TIP3     4501     SWM4     H2       HDW      0.557330       1.00800           0   0.00000       0.00000    
     48714 TIP3     4502     SWM4     OH2      ODW       1.71640       15.5994           0 -0.978253       1.30000    
     48715 TIP3     4502     SWM4     DOH2     DOH2     -1.71640      0.400000           0   0.00000       0.00000    
     48716 TIP3     4502     SWM4     OM       LPDW     -1.11466       0.00000          -1   0.00000       0.00000    
     48717 TIP3     4502     SWM4     H1       HDW      0.557330       1.00800           0   0.00000       0.00000    
     48718 TIP3     4502     SWM4     H2       HDW      0.557330       1.00800           0   0.00000       0.00000    
     48719 TIP3     4503     SWM4     OH2      ODW       1.71640       15.5994           0 -0.978253       1.30000    
     48720 TIP3     4503     SWM4     DOH2     DOH2     -1.71640      0.400000           0   0.00000       0.00000    
     48721 TIP3     4503     SWM4     OM       LPDW     -1.11466       0.00000          -1   0.00000       0.00000    
     48722 TIP3     4503     SWM4     H1       HDW      0.557330       1.00800           0   0.00000       0.00000    
     48723 TIP3     4503     SWM4     H2       HDW      0.557330       1.00800           0   0.00000       0.00000    
     48724 TIP3     4504     SWM4     OH2      ODW       1.71640       15.5994           0 -0.978253       1.30000    
     48725 TIP3     4504     SWM4     DOH2     DOH2     -1.71640      0.400000           0   0.00000       0.00000    
     48726 TIP3     4504     SWM4     OM       LPDW     -1.11466       0.00000          -1   0.00000       0.00000    
     48727 TIP3     4504     SWM4     H1       HDW      0.557330       1.00800           0   0.00000       0.00000    
     48728 TIP3     4504     SWM4     H2       HDW      0.557330       1.00800           0   0.00000       0.00000    
     48729 TIP3     4505     SWM4     OH2      ODW       1.71640       15.5994           0 -0.978253       1.30000    
     48730 TIP3     4505     SWM4     DOH2     DOH2     -1.71640      0.400000           0   0.00000       0.00000    
     48731 TIP3     4505     SWM4     OM       LPDW     -1.11466       0.00000          -1   0.00000       0.00000    
     48732 TIP3     4505     SWM4     H1       HDW      0.557330       1.00800           0   0.00000       0.00000    
     48733 TIP3     4505     SWM4     H2       HDW      0.557330       1.00800           0   0.00000       0.00000    
     48734 TIP3     4506     SWM4     OH2      ODW       1.71640       15.5994           0 -0.978253       1.30000    
     48735 TIP3     4506     SWM4     DOH2     DOH2     -1.71640      0.400000           0   0.00000       0.00000    
     48736 TIP3     4506     SWM4     OM       LPDW     -1.11466       0.00000          -1   0.00000       0.00000    
     48737 TIP3     4506     SWM4     H1       HDW      0.557330       1.00800           0   0.00000       0.00000    
     48738 TIP3     4506     SWM4     H2       HDW      0.557330       1.00800           0   0.00000       0.00000    
     48739 TIP3     4507     SWM4     OH2      ODW       1.71640       15.5994           0 -0.978253       1.30000    
     48740 TIP3     4507     SWM4     DOH2     DOH2     -1.71640      0.400000           0   0.00000       0.00000    
     48741 TIP3     4507     SWM4     OM       LPDW     -1.11466       0.00000          -1   0.00000       0.00000    
     48742 TIP3     4507     SWM4     H1       HDW      0.557330       1.00800           0   0.00000       0.00000    
     48743 TIP3     4507     SWM4     H2       HDW      0.557330       1.00800           0   0.00000       0.00000    
     48744 TIP3     4508     SWM4     OH2      ODW       1.71640       15.5994           0 -0.978253       1.30000    
     48745 TIP3     4508     SWM4     DOH2     DOH2     -1.71640      0.400000           0   0.00000       0.00000    
     48746 TIP3     4508     SWM4     OM       LPDW     -1.11466       0.00000          -1   0.00000       0.00000    
     48747 TIP3     4508     SWM4     H1       HDW      0.557330       1.00800           0   0.00000       0.00000    
     48748 TIP3     4508     SWM4     H2       HDW      0.557330       1.00800           0   0.00000       0.00000    
     48749 TIP3     4509     SWM4     OH2      ODW       1.71640       15.5994           0 -0.978253       1.30000    
     48750 TIP3     4509     SWM4     DOH2     DOH2     -1.71640      0.400000           0   0.00000       0.00000    
     48751 TIP3     4509     SWM4     OM       LPDW     -1.11466       0.00000          -1   0.00000       0.00000    
     48752 TIP3     4509     SWM4     H1       HDW      0.557330       1.00800           0   0.00000       0.00000    
     48753 TIP3     4509     SWM4     H2       HDW      0.557330       1.00800           0   0.00000       0.00000    
     48754 TIP3     4510     SWM4     OH2      ODW       1.71640       15.5994           0 -0.978253       1.30000    
     48755 TIP3     4510     SWM4     DOH2     DOH2     -1.71640      0.400000           0   0.00000       0.00000    
     48756 TIP3     4510     SWM4     OM       LPDW     -1.11466       0.00000          -1   0.00000       0.00000    
     48757 TIP3     4510     SWM4     H1       HDW      0.557330       1.00800           0   0.00000       0.00000    
     48758 TIP3     4510     SWM4     H2       HDW      0.557330       1.00800           0   0.00000       0.00000    
     48759 TIP3     4511     SWM4     OH2      ODW       1.71640       15.5994           0 -0.978253       1.30000    
     48760 TIP3     4511     SWM4     DOH2     DOH2     -1.71640      0.400000           0   0.00000       0.00000    
     48761 TIP3     4511     SWM4     OM       LPDW     -1.11466       0.00000          -1   0.00000       0.00000    
     48762 TIP3     4511     SWM4     H1       HDW      0.557330       1.00800           0   0.00000       0.00000    
     48763 TIP3     4511     SWM4     H2       HDW      0.557330       1.00800           0   0.00000       0.00000    
     48764 TIP3     4512     SWM4     OH2      ODW       1.71640       15.5994           0 -0.978253       1.30000    
     48765 TIP3     4512     SWM4     DOH2     DOH2     -1.71640      0.400000           0   0.00000       0.00000    
     48766 TIP3     4512     SWM4     OM       LPDW     -1.11466       0.00000          -1   0.00000       0.00000    
     48767 TIP3     4512     SWM4     H1       HDW      0.557330       1.00800           0   0.00000       0.00000    
     48768 TIP3     4512     SWM4     H2       HDW      0.557330       1.00800           0   0.00000       0.00000    
     48769 TIP3     4513     SWM4     OH2      ODW       1.71640       15.5994           0 -0.978253       1.30000    
     48770 TIP3     4513     SWM4     DOH2     DOH2     -1.71640      0.400000           0   0.00000       0.00000    
     48771 TIP3     4513     SWM4     OM       LPDW     -1.11466       0.00000          -1   0.00000       0.00000    
     48772 TIP3     4513     SWM4     H1       HDW      0.557330       1.00800           0   0.00000       0.00000    
     48773 TIP3     4513     SWM4     H2       HDW      0.557330       1.00800           0   0.00000       0.00000    
     48774 TIP3     4514     SWM4     OH2      ODW       1.71640       15.5994           0 -0.978253       1.30000    
     48775 TIP3     4514     SWM4     DOH2     DOH2     -1.71640      0.400000           0   0.00000       0.00000    
     48776 TIP3     4514     SWM4     OM       LPDW     -1.11466       0.00000          -1   0.00000       0.00000    
     48777 TIP3     4514     SWM4     H1       HDW      0.557330       1.00800           0   0.00000       0.00000    
     48778 TIP3     4514     SWM4     H2       HDW      0.557330       1.00800           0   0.00000       0.00000    
     48779 TIP3     4515     SWM4     OH2      ODW       1.71640       15.5994           0 -0.978253       1.30000    
     48780 TIP3     4515     SWM4     DOH2     DOH2     -1.71640      0.400000           0   0.00000       0.00000    
     48781 TIP3     4515     SWM4     OM       LPDW     -1.11466       0.00000          -1   0.00000       0.00000    
     48782 TIP3     4515     SWM4     H1       HDW      0.557330       1.00800           0   0.00000       0.00000    
     48783 TIP3     4515     SWM4     H2       HDW      0.557330       1.00800           0   0.00000       0.00000    
     48784 TIP3     4516     SWM4     OH2      ODW       1.71640       15.5994           0 -0.978253       1.30000    
     48785 TIP3     4516     SWM4     DOH2     DOH2     -1.71640      0.400000           0   0.00000       0.00000    
     48786 TIP3     4516     SWM4     OM       LPDW     -1.11466       0.00000          -1   0.00000       0.00000    
     48787 TIP3     4516     SWM4     H1       HDW      0.557330       1.00800           0   0.00000       0.00000    
     48788 TIP3     4516     SWM4     H2       HDW      0.557330       1.00800           0   0.00000       0.00000    
     48789 TIP3     4517     SWM4     OH2      ODW       1.71640       15.5994           0 -0.978253       1.30000    
     48790 TIP3     4517     SWM4     DOH2     DOH2     -1.71640      0.400000           0   0.00000       0.00000    
     48791 TIP3     4517     SWM4     OM       LPDW     -1.11466       0.00000          -1   0.00000       0.00000    
     48792 TIP3     4517     SWM4     H1       HDW      0.557330       1.00800           0   0.00000       0.00000    
     48793 TIP3     4517     SWM4     H2       HDW      0.557330       1.00800           0   0.00000       0.00000    
     48794 TIP3     4518     SWM4     OH2      ODW       1.71640       15.5994           0 -0.978253       1.30000    
     48795 TIP3     4518     SWM4     DOH2     DOH2     -1.71640      0.400000           0   0.00000       0.00000    
     48796 TIP3     4518     SWM4     OM       LPDW     -1.11466       0.00000          -1   0.00000       0.00000    
     48797 TIP3     4518     SWM4     H1       HDW      0.557330       1.00800           0   0.00000       0.00000    
     48798 TIP3     4518     SWM4     H2       HDW      0.557330       1.00800           0   0.00000       0.00000    
     48799 TIP3     4519     SWM4     OH2      ODW       1.71640       15.5994           0 -0.978253       1.30000    
     48800 TIP3     4519     SWM4     DOH2     DOH2     -1.71640      0.400000           0   0.00000       0.00000    
     48801 TIP3     4519     SWM4     OM       LPDW     -1.11466       0.00000          -1   0.00000       0.00000    
     48802 TIP3     4519     SWM4     H1       HDW      0.557330       1.00800           0   0.00000       0.00000    
     48803 TIP3     4519     SWM4     H2       HDW      0.557330       1.00800           0   0.00000       0.00000    
     48804 TIP3     4520     SWM4     OH2      ODW       1.71640       15.5994           0 -0.978253       1.30000    
     48805 TIP3     4520     SWM4     DOH2     DOH2     -1.71640      0.400000           0   0.00000       0.00000    
     48806 TIP3     4520     SWM4     OM       LPDW     -1.11466       0.00000          -1   0.00000       0.00000    
     48807 TIP3     4520     SWM4     H1       HDW      0.557330       1.00800           0   0.00000       0.00000    
     48808 TIP3     4520     SWM4     H2       HDW      0.557330       1.00800           0   0.00000       0.00000    
     48809 TIP3     4521     SWM4     OH2      ODW       1.71640       15.5994           0 -0.978253       1.30000    
     48810 TIP3     4521     SWM4     DOH2     DOH2     -1.71640      0.400000           0   0.00000       0.00000    
     48811 TIP3     4521     SWM4     OM       LPDW     -1.11466       0.00000          -1   0.00000       0.00000    
     48812 TIP3     4521     SWM4     H1       HDW      0.557330       1.00800           0   0.00000       0.00000    
     48813 TIP3     4521     SWM4     H2       HDW      0.557330       1.00800           0   0.00000       0.00000    
     48814 TIP3     4522     SWM4     OH2      ODW       1.71640       15.5994           0 -0.978253       1.30000    
     48815 TIP3     4522     SWM4     DOH2     DOH2     -1.71640      0.400000           0   0.00000       0.00000    
     48816 TIP3     4522     SWM4     OM       LPDW     -1.11466       0.00000          -1   0.00000       0.00000    
     48817 TIP3     4522     SWM4     H1       HDW      0.557330       1.00800           0   0.00000       0.00000    
     48818 TIP3     4522     SWM4     H2       HDW      0.557330       1.00800           0   0.00000       0.00000    
     48819 TIP3     4523     SWM4     OH2      ODW       1.71640       15.5994           0 -0.978253       1.30000    
     48820 TIP3     4523     SWM4     DOH2     DOH2     -1.71640      0.400000           0   0.00000       0.00000    
     48821 TIP3     4523     SWM4     OM       LPDW     -1.11466       0.00000          -1   0.00000       0.00000    
     48822 TIP3     4523     SWM4     H1       HDW      0.557330       1.00800           0   0.00000       0.00000    
     48823 TIP3     4523     SWM4     H2       HDW      0.557330       1.00800           0   0.00000       0.00000    
     48824 TIP3     4524     SWM4     OH2      ODW       1.71640       15.5994           0 -0.978253       1.30000    
     48825 TIP3     4524     SWM4     DOH2     DOH2     -1.71640      0.400000           0   0.00000       0.00000    
     48826 TIP3     4524     SWM4     OM       LPDW     -1.11466       0.00000          -1   0.00000       0.00000    
     48827 TIP3     4524     SWM4     H1       HDW      0.557330       1.00800           0   0.00000       0.00000    
     48828 TIP3     4524     SWM4     H2       HDW      0.557330       1.00800           0   0.00000       0.00000    
     48829 TIP3     4525     SWM4     OH2      ODW       1.71640       15.5994           0 -0.978253       1.30000    
     48830 TIP3     4525     SWM4     DOH2     DOH2     -1.71640      0.400000           0   0.00000       0.00000    
     48831 TIP3     4525     SWM4     OM       LPDW     -1.11466       0.00000          -1   0.00000       0.00000    
     48832 TIP3     4525     SWM4     H1       HDW      0.557330       1.00800           0   0.00000       0.00000    
     48833 TIP3     4525     SWM4     H2       HDW      0.557330       1.00800           0   0.00000       0.00000    
     48834 TIP3     4526     SWM4     OH2      ODW       1.71640       15.5994           0 -0.978253       1.30000    
     48835 TIP3     4526     SWM4     DOH2     DOH2     -1.71640      0.400000           0   0.00000       0.00000    
     48836 TIP3     4526     SWM4     OM       LPDW     -1.11466       0.00000          -1   0.00000       0.00000    
     48837 TIP3     4526     SWM4     H1       HDW      0.557330       1.00800           0   0.00000       0.00000    
     48838 TIP3     4526     SWM4     H2       HDW      0.557330       1.00800           0   0.00000       0.00000    
     48839 TIP3     4527     SWM4     OH2      ODW       1.71640       15.5994           0 -0.978253       1.30000    
     48840 TIP3     4527     SWM4     DOH2     DOH2     -1.71640      0.400000           0   0.00000       0.00000    
     48841 TIP3     4527     SWM4     OM       LPDW     -1.11466       0.00000          -1   0.00000       0.00000    
     48842 TIP3     4527     SWM4     H1       HDW      0.557330       1.00800           0   0.00000       0.00000    
     48843 TIP3     4527     SWM4     H2       HDW      0.557330       1.00800           0   0.00000       0.00000    
     48844 TIP3     4528     SWM4     OH2      ODW       1.71640       15.5994           0 -0.978253       1.30000    
     48845 TIP3     4528     SWM4     DOH2     DOH2     -1.71640      0.400000           0   0.00000       0.00000    
     48846 TIP3     4528     SWM4     OM       LPDW     -1.11466       0.00000          -1   0.00000       0.00000    
     48847 TIP3     4528     SWM4     H1       HDW      0.557330       1.00800           0   0.00000       0.00000    
     48848 TIP3     4528     SWM4     H2       HDW      0.557330       1.00800           0   0.00000       0.00000    
     48849 TIP3     4529     SWM4     OH2      ODW       1.71640       15.5994           0 -0.978253       1.30000    
     48850 TIP3     4529     SWM4     DOH2     DOH2     -1.71640      0.400000           0   0.00000       0.00000    
     48851 TIP3     4529     SWM4     OM       LPDW     -1.11466       0.00000          -1   0.00000       0.00000    
     48852 TIP3     4529     SWM4     H1       HDW      0.557330       1.00800           0   0.00000       0.00000    
     48853 TIP3     4529     SWM4     H2       HDW      0.557330       1.00800           0   0.00000       0.00000    
     48854 TIP3     4530     SWM4     OH2      ODW       1.71640       15.5994           0 -0.978253       1.30000    
     48855 TIP3     4530     SWM4     DOH2     DOH2     -1.71640      0.400000           0   0.00000       0.00000    
     48856 TIP3     4530     SWM4     OM       LPDW     -1.11466       0.00000          -1   0.00000       0.00000    
     48857 TIP3     4530     SWM4     H1       HDW      0.557330       1.00800           0   0.00000       0.00000    
     48858 TIP3     4530     SWM4     H2       HDW      0.557330       1.00800           0   0.00000       0.00000    
     48859 TIP3     4531     SWM4     OH2      ODW       1.71640       15.5994           0 -0.978253       1.30000    
     48860 TIP3     4531     SWM4     DOH2     DOH2     -1.71640      0.400000           0   0.00000       0.00000    
     48861 TIP3     4531     SWM4     OM       LPDW     -1.11466       0.00000          -1   0.00000       0.00000    
     48862 TIP3     4531     SWM4     H1       HDW      0.557330       1.00800           0   0.00000       0.00000    
     48863 TIP3     4531     SWM4     H2       HDW      0.557330       1.00800           0   0.00000       0.00000    
     48864 TIP3     4532     SWM4     OH2      ODW       1.71640       15.5994           0 -0.978253       1.30000    
     48865 TIP3     4532     SWM4     DOH2     DOH2     -1.71640      0.400000           0   0.00000       0.00000    
     48866 TIP3     4532     SWM4     OM       LPDW     -1.11466       0.00000          -1   0.00000       0.00000    
     48867 TIP3     4532     SWM4     H1       HDW      0.557330       1.00800           0   0.00000       0.00000    
     48868 TIP3     4532     SWM4     H2       HDW      0.557330       1.00800           0   0.00000       0.00000    
     48869 TIP3     4533     SWM4     OH2      ODW       1.71640       15.5994           0 -0.978253       1.30000    
     48870 TIP3     4533     SWM4     DOH2     DOH2     -1.71640      0.400000           0   0.00000       0.00000    
     48871 TIP3     4533     SWM4     OM       LPDW     -1.11466       0.00000          -1   0.00000       0.00000    
     48872 TIP3     4533     SWM4     H1       HDW      0.557330       1.00800           0   0.00000       0.00000    
     48873 TIP3     4533     SWM4     H2       HDW      0.557330       1.00800           0   0.00000       0.00000    
     48874 TIP3     4534     SWM4     OH2      ODW       1.71640       15.5994           0 -0.978253       1.30000    
     48875 TIP3     4534     SWM4     DOH2     DOH2     -1.71640      0.400000           0   0.00000       0.00000    
     48876 TIP3     4534     SWM4     OM       LPDW     -1.11466       0.00000          -1   0.00000       0.00000    
     48877 TIP3     4534     SWM4     H1       HDW      0.557330       1.00800           0   0.00000       0.00000    
     48878 TIP3     4534     SWM4     H2       HDW      0.557330       1.00800           0   0.00000       0.00000    
     48879 TIP3     4535     SWM4     OH2      ODW       1.71640       15.5994           0 -0.978253       1.30000    
     48880 TIP3     4535     SWM4     DOH2     DOH2     -1.71640      0.400000           0   0.00000       0.00000    
     48881 TIP3     4535     SWM4     OM       LPDW     -1.11466       0.00000          -1   0.00000       0.00000    
     48882 TIP3     4535     SWM4     H1       HDW      0.557330       1.00800           0   0.00000       0.00000    
     48883 TIP3     4535     SWM4     H2       HDW      0.557330       1.00800           0   0.00000       0.00000    
     48884 TIP3     4536     SWM4     OH2      ODW       1.71640       15.5994           0 -0.978253       1.30000    
     48885 TIP3     4536     SWM4     DOH2     DOH2     -1.71640      0.400000           0   0.00000       0.00000    
     48886 TIP3     4536     SWM4     OM       LPDW     -1.11466       0.00000          -1   0.00000       0.00000    
     48887 TIP3     4536     SWM4     H1       HDW      0.557330       1.00800           0   0.00000       0.00000    
     48888 TIP3     4536     SWM4     H2       HDW      0.557330       1.00800           0   0.00000       0.00000    
     48889 TIP3     4537     SWM4     OH2      ODW       1.71640       15.5994           0 -0.978253       1.30000    
     48890 TIP3     4537     SWM4     DOH2     DOH2     -1.71640      0.400000           0   0.00000       0.00000    
     48891 TIP3     4537     SWM4     OM       LPDW     -1.11466       0.00000          -1   0.00000       0.00000    
     48892 TIP3     4537     SWM4     H1       HDW      0.557330       1.00800           0   0.00000       0.00000    
     48893 TIP3     4537     SWM4     H2       HDW      0.557330       1.00800           0   0.00000       0.00000    
     48894 TIP3     4538     SWM4     OH2      ODW       1.71640       15.5994           0 -0.978253       1.30000    
     48895 TIP3     4538     SWM4     DOH2     DOH2     -1.71640      0.400000           0   0.00000       0.00000    
     48896 TIP3     4538     SWM4     OM       LPDW     -1.11466       0.00000          -1   0.00000       0.00000    
     48897 TIP3     4538     SWM4     H1       HDW      0.557330       1.00800           0   0.00000       0.00000    
     48898 TIP3     4538     SWM4     H2       HDW      0.557330       1.00800           0   0.00000       0.00000    
     48899 TIP3     4539     SWM4     OH2      ODW       1.71640       15.5994           0 -0.978253       1.30000    
     48900 TIP3     4539     SWM4     DOH2     DOH2     -1.71640      0.400000           0   0.00000       0.00000    
     48901 TIP3     4539     SWM4     OM       LPDW     -1.11466       0.00000          -1   0.00000       0.00000    
     48902 TIP3     4539     SWM4     H1       HDW      0.557330       1.00800           0   0.00000       0.00000    
     48903 TIP3     4539     SWM4     H2       HDW      0.557330       1.00800           0   0.00000       0.00000    
     48904 TIP3     4540     SWM4     OH2      ODW       1.71640       15.5994           0 -0.978253       1.30000    
     48905 TIP3     4540     SWM4     DOH2     DOH2     -1.71640      0.400000           0   0.00000       0.00000    
     48906 TIP3     4540     SWM4     OM       LPDW     -1.11466       0.00000          -1   0.00000       0.00000    
     48907 TIP3     4540     SWM4     H1       HDW      0.557330       1.00800           0   0.00000       0.00000    
     48908 TIP3     4540     SWM4     H2       HDW      0.557330       1.00800           0   0.00000       0.00000    
     48909 TIP3     4541     SWM4     OH2      ODW       1.71640       15.5994           0 -0.978253       1.30000    
     48910 TIP3     4541     SWM4     DOH2     DOH2     -1.71640      0.400000           0   0.00000       0.00000    
     48911 TIP3     4541     SWM4     OM       LPDW     -1.11466       0.00000          -1   0.00000       0.00000    
     48912 TIP3     4541     SWM4     H1       HDW      0.557330       1.00800           0   0.00000       0.00000    
     48913 TIP3     4541     SWM4     H2       HDW      0.557330       1.00800           0   0.00000       0.00000    
     48914 TIP3     4542     SWM4     OH2      ODW       1.71640       15.5994           0 -0.978253       1.30000    
     48915 TIP3     4542     SWM4     DOH2     DOH2     -1.71640      0.400000           0   0.00000       0.00000    
     48916 TIP3     4542     SWM4     OM       LPDW     -1.11466       0.00000          -1   0.00000       0.00000    
     48917 TIP3     4542     SWM4     H1       HDW      0.557330       1.00800           0   0.00000       0.00000    
     48918 TIP3     4542     SWM4     H2       HDW      0.557330       1.00800           0   0.00000       0.00000    
     48919 TIP3     4543     SWM4     OH2      ODW       1.71640       15.5994           0 -0.978253       1.30000    
     48920 TIP3     4543     SWM4     DOH2     DOH2     -1.71640      0.400000           0   0.00000       0.00000    
     48921 TIP3     4543     SWM4     OM       LPDW     -1.11466       0.00000          -1   0.00000       0.00000    
     48922 TIP3     4543     SWM4     H1       HDW      0.557330       1.00800           0   0.00000       0.00000    
     48923 TIP3     4543     SWM4     H2       HDW      0.557330       1.00800           0   0.00000       0.00000    
     48924 TIP3     4544     SWM4     OH2      ODW       1.71640       15.5994           0 -0.978253       1.30000    
     48925 TIP3     4544     SWM4     DOH2     DOH2     -1.71640      0.400000           0   0.00000       0.00000    
     48926 TIP3     4544     SWM4     OM       LPDW     -1.11466       0.00000          -1   0.00000       0.00000    
     48927 TIP3     4544     SWM4     H1       HDW      0.557330       1.00800           0   0.00000       0.00000    
     48928 TIP3     4544     SWM4     H2       HDW      0.557330       1.00800           0   0.00000       0.00000    
     48929 TIP3     4545     SWM4     OH2      ODW       1.71640       15.5994           0 -0.978253       1.30000    
     48930 TIP3     4545     SWM4     DOH2     DOH2     -1.71640      0.400000           0   0.00000       0.00000    
     48931 TIP3     4545     SWM4     OM       LPDW     -1.11466       0.00000          -1   0.00000       0.00000    
     48932 TIP3     4545     SWM4     H1       HDW      0.557330       1.00800           0   0.00000       0.00000    
     48933 TIP3     4545     SWM4     H2       HDW      0.557330       1.00800           0   0.00000       0.00000    
     48934 TIP3     4546     SWM4     OH2      ODW       1.71640       15.5994           0 -0.978253       1.30000    
     48935 TIP3     4546     SWM4     DOH2     DOH2     -1.71640      0.400000           0   0.00000       0.00000    
     48936 TIP3     4546     SWM4     OM       LPDW     -1.11466       0.00000          -1   0.00000       0.00000    
     48937 TIP3     4546     SWM4     H1       HDW      0.557330       1.00800           0   0.00000       0.00000    
     48938 TIP3     4546     SWM4     H2       HDW      0.557330       1.00800           0   0.00000       0.00000    
     48939 TIP3     4547     SWM4     OH2      ODW       1.71640       15.5994           0 -0.978253       1.30000    
     48940 TIP3     4547     SWM4     DOH2     DOH2     -1.71640      0.400000           0   0.00000       0.00000    
     48941 TIP3     4547     SWM4     OM       LPDW     -1.11466       0.00000          -1   0.00000       0.00000    
     48942 TIP3     4547     SWM4     H1       HDW      0.557330       1.00800           0   0.00000       0.00000    
     48943 TIP3     4547     SWM4     H2       HDW      0.557330       1.00800           0   0.00000       0.00000    
     48944 TIP3     4548     SWM4     OH2      ODW       1.71640       15.5994           0 -0.978253       1.30000    
     48945 TIP3     4548     SWM4     DOH2     DOH2     -1.71640      0.400000           0   0.00000       0.00000    
     48946 TIP3     4548     SWM4     OM       LPDW     -1.11466       0.00000          -1   0.00000       0.00000    
     48947 TIP3     4548     SWM4     H1       HDW      0.557330       1.00800           0   0.00000       0.00000    
     48948 TIP3     4548     SWM4     H2       HDW      0.557330       1.00800           0   0.00000       0.00000    
     48949 TIP3     4549     SWM4     OH2      ODW       1.71640       15.5994           0 -0.978253       1.30000    
     48950 TIP3     4549     SWM4     DOH2     DOH2     -1.71640      0.400000           0   0.00000       0.00000    
     48951 TIP3     4549     SWM4     OM       LPDW     -1.11466       0.00000          -1   0.00000       0.00000    
     48952 TIP3     4549     SWM4     H1       HDW      0.557330       1.00800           0   0.00000       0.00000    
     48953 TIP3     4549     SWM4     H2       HDW      0.557330       1.00800           0   0.00000       0.00000    
     48954 TIP3     4550     SWM4     OH2      ODW       1.71640       15.5994           0 -0.978253       1.30000    
     48955 TIP3     4550     SWM4     DOH2     DOH2     -1.71640      0.400000           0   0.00000       0.00000    
     48956 TIP3     4550     SWM4     OM       LPDW     -1.11466       0.00000          -1   0.00000       0.00000    
     48957 TIP3     4550     SWM4     H1       HDW      0.557330       1.00800           0   0.00000       0.00000    
     48958 TIP3     4550     SWM4     H2       HDW      0.557330       1.00800           0   0.00000       0.00000    
     48959 TIP3     4551     SWM4     OH2      ODW       1.71640       15.5994           0 -0.978253       1.30000    
     48960 TIP3     4551     SWM4     DOH2     DOH2     -1.71640      0.400000           0   0.00000       0.00000    
     48961 TIP3     4551     SWM4     OM       LPDW     -1.11466       0.00000          -1   0.00000       0.00000    
     48962 TIP3     4551     SWM4     H1       HDW      0.557330       1.00800           0   0.00000       0.00000    
     48963 TIP3     4551     SWM4     H2       HDW      0.557330       1.00800           0   0.00000       0.00000    
     48964 TIP3     4552     SWM4     OH2      ODW       1.71640       15.5994           0 -0.978253       1.30000    
     48965 TIP3     4552     SWM4     DOH2     DOH2     -1.71640      0.400000           0   0.00000       0.00000    
     48966 TIP3     4552     SWM4     OM       LPDW     -1.11466       0.00000          -1   0.00000       0.00000    
     48967 TIP3     4552     SWM4     H1       HDW      0.557330       1.00800           0   0.00000       0.00000    
     48968 TIP3     4552     SWM4     H2       HDW      0.557330       1.00800           0   0.00000       0.00000    
     48969 TIP3     4553     SWM4     OH2      ODW       1.71640       15.5994           0 -0.978253       1.30000    
     48970 TIP3     4553     SWM4     DOH2     DOH2     -1.71640      0.400000           0   0.00000       0.00000    
     48971 TIP3     4553     SWM4     OM       LPDW     -1.11466       0.00000          -1   0.00000       0.00000    
     48972 TIP3     4553     SWM4     H1       HDW      0.557330       1.00800           0   0.00000       0.00000    
     48973 TIP3     4553     SWM4     H2       HDW      0.557330       1.00800           0   0.00000       0.00000    
     48974 TIP3     4554     SWM4     OH2      ODW       1.71640       15.5994           0 -0.978253       1.30000    
     48975 TIP3     4554     SWM4     DOH2     DOH2     -1.71640      0.400000           0   0.00000       0.00000    
     48976 TIP3     4554     SWM4     OM       LPDW     -1.11466       0.00000          -1   0.00000       0.00000    
     48977 TIP3     4554     SWM4     H1       HDW      0.557330       1.00800           0   0.00000       0.00000    
     48978 TIP3     4554     SWM4     H2       HDW      0.557330       1.00800           0   0.00000       0.00000    
     48979 TIP3     4555     SWM4     OH2      ODW       1.71640       15.5994           0 -0.978253       1.30000    
     48980 TIP3     4555     SWM4     DOH2     DOH2     -1.71640      0.400000           0   0.00000       0.00000    
     48981 TIP3     4555     SWM4     OM       LPDW     -1.11466       0.00000          -1   0.00000       0.00000    
     48982 TIP3     4555     SWM4     H1       HDW      0.557330       1.00800           0   0.00000       0.00000    
     48983 TIP3     4555     SWM4     H2       HDW      0.557330       1.00800           0   0.00000       0.00000    
     48984 TIP3     4556     SWM4     OH2      ODW       1.71640       15.5994           0 -0.978253       1.30000    
     48985 TIP3     4556     SWM4     DOH2     DOH2     -1.71640      0.400000           0   0.00000       0.00000    
     48986 TIP3     4556     SWM4     OM       LPDW     -1.11466       0.00000          -1   0.00000       0.00000    
     48987 TIP3     4556     SWM4     H1       HDW      0.557330       1.00800           0   0.00000       0.00000    
     48988 TIP3     4556     SWM4     H2       HDW      0.557330       1.00800           0   0.00000       0.00000    
     48989 TIP3     4557     SWM4     OH2      ODW       1.71640       15.5994           0 -0.978253       1.30000    
     48990 TIP3     4557     SWM4     DOH2     DOH2     -1.71640      0.400000           0   0.00000       0.00000    
     48991 TIP3     4557     SWM4     OM       LPDW     -1.11466       0.00000          -1   0.00000       0.00000    
     48992 TIP3     4557     SWM4     H1       HDW      0.557330       1.00800           0   0.00000       0.00000    
     48993 TIP3     4557     SWM4     H2       HDW      0.557330       1.00800           0   0.00000       0.00000    
     48994 TIP3     4558     SWM4     OH2      ODW       1.71640       15.5994           0 -0.978253       1.30000    
     48995 TIP3     4558     SWM4     DOH2     DOH2     -1.71640      0.400000           0   0.00000       0.00000    
     48996 TIP3     4558     SWM4     OM       LPDW     -1.11466       0.00000          -1   0.00000       0.00000    
     48997 TIP3     4558     SWM4     H1       HDW      0.557330       1.00800           0   0.00000       0.00000    
     48998 TIP3     4558     SWM4     H2       HDW      0.557330       1.00800           0   0.00000       0.00000    
     48999 TIP3     4559     SWM4     OH2      ODW       1.71640       15.5994           0 -0.978253       1.30000    
     49000 TIP3     4559     SWM4     DOH2     DOH2     -1.71640      0.400000           0   0.00000       0.00000    
     49001 TIP3     4559     SWM4     OM       LPDW     -1.11466       0.00000          -1   0.00000       0.00000    
     49002 TIP3     4559     SWM4     H1       HDW      0.557330       1.00800           0   0.00000       0.00000    
     49003 TIP3     4559     SWM4     H2       HDW      0.557330       1.00800           0   0.00000       0.00000    
     49004 TIP3     4560     SWM4     OH2      ODW       1.71640       15.5994           0 -0.978253       1.30000    
     49005 TIP3     4560     SWM4     DOH2     DOH2     -1.71640      0.400000           0   0.00000       0.00000    
     49006 TIP3     4560     SWM4     OM       LPDW     -1.11466       0.00000          -1   0.00000       0.00000    
     49007 TIP3     4560     SWM4     H1       HDW      0.557330       1.00800           0   0.00000       0.00000    
     49008 TIP3     4560     SWM4     H2       HDW      0.557330       1.00800           0   0.00000       0.00000    
     49009 TIP3     4561     SWM4     OH2      ODW       1.71640       15.5994           0 -0.978253       1.30000    
     49010 TIP3     4561     SWM4     DOH2     DOH2     -1.71640      0.400000           0   0.00000       0.00000    
     49011 TIP3     4561     SWM4     OM       LPDW     -1.11466       0.00000          -1   0.00000       0.00000    
     49012 TIP3     4561     SWM4     H1       HDW      0.557330       1.00800           0   0.00000       0.00000    
     49013 TIP3     4561     SWM4     H2       HDW      0.557330       1.00800           0   0.00000       0.00000    
     49014 TIP3     4562     SWM4     OH2      ODW       1.71640       15.5994           0 -0.978253       1.30000    
     49015 TIP3     4562     SWM4     DOH2     DOH2     -1.71640      0.400000           0   0.00000       0.00000    
     49016 TIP3     4562     SWM4     OM       LPDW     -1.11466       0.00000          -1   0.00000       0.00000    
     49017 TIP3     4562     SWM4     H1       HDW      0.557330       1.00800           0   0.00000       0.00000    
     49018 TIP3     4562     SWM4     H2       HDW      0.557330       1.00800           0   0.00000       0.00000    
     49019 TIP3     4563     SWM4     OH2      ODW       1.71640       15.5994           0 -0.978253       1.30000    
     49020 TIP3     4563     SWM4     DOH2     DOH2     -1.71640      0.400000           0   0.00000       0.00000    
     49021 TIP3     4563     SWM4     OM       LPDW     -1.11466       0.00000          -1   0.00000       0.00000    
     49022 TIP3     4563     SWM4     H1       HDW      0.557330       1.00800           0   0.00000       0.00000    
     49023 TIP3     4563     SWM4     H2       HDW      0.557330       1.00800           0   0.00000       0.00000    
     49024 TIP3     4564     SWM4     OH2      ODW       1.71640       15.5994           0 -0.978253       1.30000    
     49025 TIP3     4564     SWM4     DOH2     DOH2     -1.71640      0.400000           0   0.00000       0.00000    
     49026 TIP3     4564     SWM4     OM       LPDW     -1.11466       0.00000          -1   0.00000       0.00000    
     49027 TIP3     4564     SWM4     H1       HDW      0.557330       1.00800           0   0.00000       0.00000    
     49028 TIP3     4564     SWM4     H2       HDW      0.557330       1.00800           0   0.00000       0.00000    
     49029 TIP3     4565     SWM4     OH2      ODW       1.71640       15.5994           0 -0.978253       1.30000    
     49030 TIP3     4565     SWM4     DOH2     DOH2     -1.71640      0.400000           0   0.00000       0.00000    
     49031 TIP3     4565     SWM4     OM       LPDW     -1.11466       0.00000          -1   0.00000       0.00000    
     49032 TIP3     4565     SWM4     H1       HDW      0.557330       1.00800           0   0.00000       0.00000    
     49033 TIP3     4565     SWM4     H2       HDW      0.557330       1.00800           0   0.00000       0.00000    
     49034 TIP3     4566     SWM4     OH2      ODW       1.71640       15.5994           0 -0.978253       1.30000    
     49035 TIP3     4566     SWM4     DOH2     DOH2     -1.71640      0.400000           0   0.00000       0.00000    
     49036 TIP3     4566     SWM4     OM       LPDW     -1.11466       0.00000          -1   0.00000       0.00000    
     49037 TIP3     4566     SWM4     H1       HDW      0.557330       1.00800           0   0.00000       0.00000    
     49038 TIP3     4566     SWM4     H2       HDW      0.557330       1.00800           0   0.00000       0.00000    
     49039 TIP3     4567     SWM4     OH2      ODW       1.71640       15.5994           0 -0.978253       1.30000    
     49040 TIP3     4567     SWM4     DOH2     DOH2     -1.71640      0.400000           0   0.00000       0.00000    
     49041 TIP3     4567     SWM4     OM       LPDW     -1.11466       0.00000          -1   0.00000       0.00000    
     49042 TIP3     4567     SWM4     H1       HDW      0.557330       1.00800           0   0.00000       0.00000    
     49043 TIP3     4567     SWM4     H2       HDW      0.557330       1.00800           0   0.00000       0.00000    
     49044 TIP3     4568     SWM4     OH2      ODW       1.71640       15.5994           0 -0.978253       1.30000    
     49045 TIP3     4568     SWM4     DOH2     DOH2     -1.71640      0.400000           0   0.00000       0.00000    
     49046 TIP3     4568     SWM4     OM       LPDW     -1.11466       0.00000          -1   0.00000       0.00000    
     49047 TIP3     4568     SWM4     H1       HDW      0.557330       1.00800           0   0.00000       0.00000    
     49048 TIP3     4568     SWM4     H2       HDW      0.557330       1.00800           0   0.00000       0.00000    
     49049 TIP3     4569     SWM4     OH2      ODW       1.71640       15.5994           0 -0.978253       1.30000    
     49050 TIP3     4569     SWM4     DOH2     DOH2     -1.71640      0.400000           0   0.00000       0.00000    
     49051 TIP3     4569     SWM4     OM       LPDW     -1.11466       0.00000          -1   0.00000       0.00000    
     49052 TIP3     4569     SWM4     H1       HDW      0.557330       1.00800           0   0.00000       0.00000    
     49053 TIP3     4569     SWM4     H2       HDW      0.557330       1.00800           0   0.00000       0.00000    
     49054 TIP3     4570     SWM4     OH2      ODW       1.71640       15.5994           0 -0.978253       1.30000    
     49055 TIP3     4570     SWM4     DOH2     DOH2     -1.71640      0.400000           0   0.00000       0.00000    
     49056 TIP3     4570     SWM4     OM       LPDW     -1.11466       0.00000          -1   0.00000       0.00000    
     49057 TIP3     4570     SWM4     H1       HDW      0.557330       1.00800           0   0.00000       0.00000    
     49058 TIP3     4570     SWM4     H2       HDW      0.557330       1.00800           0   0.00000       0.00000    
     49059 TIP3     4571     SWM4     OH2      ODW       1.71640       15.5994           0 -0.978253       1.30000    
     49060 TIP3     4571     SWM4     DOH2     DOH2     -1.71640      0.400000           0   0.00000       0.00000    
     49061 TIP3     4571     SWM4     OM       LPDW     -1.11466       0.00000          -1   0.00000       0.00000    
     49062 TIP3     4571     SWM4     H1       HDW      0.557330       1.00800           0   0.00000       0.00000    
     49063 TIP3     4571     SWM4     H2       HDW      0.557330       1.00800           0   0.00000       0.00000    
     49064 TIP3     4572     SWM4     OH2      ODW       1.71640       15.5994           0 -0.978253       1.30000    
     49065 TIP3     4572     SWM4     DOH2     DOH2     -1.71640      0.400000           0   0.00000       0.00000    
     49066 TIP3     4572     SWM4     OM       LPDW     -1.11466       0.00000          -1   0.00000       0.00000    
     49067 TIP3     4572     SWM4     H1       HDW      0.557330       1.00800           0   0.00000       0.00000    
     49068 TIP3     4572     SWM4     H2       HDW      0.557330       1.00800           0   0.00000       0.00000    
     49069 TIP3     4573     SWM4     OH2      ODW       1.71640       15.5994           0 -0.978253       1.30000    
     49070 TIP3     4573     SWM4     DOH2     DOH2     -1.71640      0.400000           0   0.00000       0.00000    
     49071 TIP3     4573     SWM4     OM       LPDW     -1.11466       0.00000          -1   0.00000       0.00000    
     49072 TIP3     4573     SWM4     H1       HDW      0.557330       1.00800           0   0.00000       0.00000    
     49073 TIP3     4573     SWM4     H2       HDW      0.557330       1.00800           0   0.00000       0.00000    
     49074 TIP3     4574     SWM4     OH2      ODW       1.71640       15.5994           0 -0.978253       1.30000    
     49075 TIP3     4574     SWM4     DOH2     DOH2     -1.71640      0.400000           0   0.00000       0.00000    
     49076 TIP3     4574     SWM4     OM       LPDW     -1.11466       0.00000          -1   0.00000       0.00000    
     49077 TIP3     4574     SWM4     H1       HDW      0.557330       1.00800           0   0.00000       0.00000    
     49078 TIP3     4574     SWM4     H2       HDW      0.557330       1.00800           0   0.00000       0.00000    
     49079 TIP3     4575     SWM4     OH2      ODW       1.71640       15.5994           0 -0.978253       1.30000    
     49080 TIP3     4575     SWM4     DOH2     DOH2     -1.71640      0.400000           0   0.00000       0.00000    
     49081 TIP3     4575     SWM4     OM       LPDW     -1.11466       0.00000          -1   0.00000       0.00000    
     49082 TIP3     4575     SWM4     H1       HDW      0.557330       1.00800           0   0.00000       0.00000    
     49083 TIP3     4575     SWM4     H2       HDW      0.557330       1.00800           0   0.00000       0.00000    
     49084 TIP3     4576     SWM4     OH2      ODW       1.71640       15.5994           0 -0.978253       1.30000    
     49085 TIP3     4576     SWM4     DOH2     DOH2     -1.71640      0.400000           0   0.00000       0.00000    
     49086 TIP3     4576     SWM4     OM       LPDW     -1.11466       0.00000          -1   0.00000       0.00000    
     49087 TIP3     4576     SWM4     H1       HDW      0.557330       1.00800           0   0.00000       0.00000    
     49088 TIP3     4576     SWM4     H2       HDW      0.557330       1.00800           0   0.00000       0.00000    
     49089 TIP3     4577     SWM4     OH2      ODW       1.71640       15.5994           0 -0.978253       1.30000    
     49090 TIP3     4577     SWM4     DOH2     DOH2     -1.71640      0.400000           0   0.00000       0.00000    
     49091 TIP3     4577     SWM4     OM       LPDW     -1.11466       0.00000          -1   0.00000       0.00000    
     49092 TIP3     4577     SWM4     H1       HDW      0.557330       1.00800           0   0.00000       0.00000    
     49093 TIP3     4577     SWM4     H2       HDW      0.557330       1.00800           0   0.00000       0.00000    
     49094 TIP3     4578     SWM4     OH2      ODW       1.71640       15.5994           0 -0.978253       1.30000    
     49095 TIP3     4578     SWM4     DOH2     DOH2     -1.71640      0.400000           0   0.00000       0.00000    
     49096 TIP3     4578     SWM4     OM       LPDW     -1.11466       0.00000          -1   0.00000       0.00000    
     49097 TIP3     4578     SWM4     H1       HDW      0.557330       1.00800           0   0.00000       0.00000    
     49098 TIP3     4578     SWM4     H2       HDW      0.557330       1.00800           0   0.00000       0.00000    
     49099 TIP3     4579     SWM4     OH2      ODW       1.71640       15.5994           0 -0.978253       1.30000    
     49100 TIP3     4579     SWM4     DOH2     DOH2     -1.71640      0.400000           0   0.00000       0.00000    
     49101 TIP3     4579     SWM4     OM       LPDW     -1.11466       0.00000          -1   0.00000       0.00000    
     49102 TIP3     4579     SWM4     H1       HDW      0.557330       1.00800           0   0.00000       0.00000    
     49103 TIP3     4579     SWM4     H2       HDW      0.557330       1.00800           0   0.00000       0.00000    
     49104 TIP3     4580     SWM4     OH2      ODW       1.71640       15.5994           0 -0.978253       1.30000    
     49105 TIP3     4580     SWM4     DOH2     DOH2     -1.71640      0.400000           0   0.00000       0.00000    
     49106 TIP3     4580     SWM4     OM       LPDW     -1.11466       0.00000          -1   0.00000       0.00000    
     49107 TIP3     4580     SWM4     H1       HDW      0.557330       1.00800           0   0.00000       0.00000    
     49108 TIP3     4580     SWM4     H2       HDW      0.557330       1.00800           0   0.00000       0.00000    
     49109 TIP3     4581     SWM4     OH2      ODW       1.71640       15.5994           0 -0.978253       1.30000    
     49110 TIP3     4581     SWM4     DOH2     DOH2     -1.71640      0.400000           0   0.00000       0.00000    
     49111 TIP3     4581     SWM4     OM       LPDW     -1.11466       0.00000          -1   0.00000       0.00000    
     49112 TIP3     4581     SWM4     H1       HDW      0.557330       1.00800           0   0.00000       0.00000    
     49113 TIP3     4581     SWM4     H2       HDW      0.557330       1.00800           0   0.00000       0.00000    
     49114 TIP3     4582     SWM4     OH2      ODW       1.71640       15.5994           0 -0.978253       1.30000    
     49115 TIP3     4582     SWM4     DOH2     DOH2     -1.71640      0.400000           0   0.00000       0.00000    
     49116 TIP3     4582     SWM4     OM       LPDW     -1.11466       0.00000          -1   0.00000       0.00000    
     49117 TIP3     4582     SWM4     H1       HDW      0.557330       1.00800           0   0.00000       0.00000    
     49118 TIP3     4582     SWM4     H2       HDW      0.557330       1.00800           0   0.00000       0.00000    
     49119 TIP3     4583     SWM4     OH2      ODW       1.71640       15.5994           0 -0.978253       1.30000    
     49120 TIP3     4583     SWM4     DOH2     DOH2     -1.71640      0.400000           0   0.00000       0.00000    
     49121 TIP3     4583     SWM4     OM       LPDW     -1.11466       0.00000          -1   0.00000       0.00000    
     49122 TIP3     4583     SWM4     H1       HDW      0.557330       1.00800           0   0.00000       0.00000    
     49123 TIP3     4583     SWM4     H2       HDW      0.557330       1.00800           0   0.00000       0.00000    
     49124 TIP3     4584     SWM4     OH2      ODW       1.71640       15.5994           0 -0.978253       1.30000    
     49125 TIP3     4584     SWM4     DOH2     DOH2     -1.71640      0.400000           0   0.00000       0.00000    
     49126 TIP3     4584     SWM4     OM       LPDW     -1.11466       0.00000          -1   0.00000       0.00000    
     49127 TIP3     4584     SWM4     H1       HDW      0.557330       1.00800           0   0.00000       0.00000    
     49128 TIP3     4584     SWM4     H2       HDW      0.557330       1.00800           0   0.00000       0.00000    
     49129 TIP3     4585     SWM4     OH2      ODW       1.71640       15.5994           0 -0.978253       1.30000    
     49130 TIP3     4585     SWM4     DOH2     DOH2     -1.71640      0.400000           0   0.00000       0.00000    
     49131 TIP3     4585     SWM4     OM       LPDW     -1.11466       0.00000          -1   0.00000       0.00000    
     49132 TIP3     4585     SWM4     H1       HDW      0.557330       1.00800           0   0.00000       0.00000    
     49133 TIP3     4585     SWM4     H2       HDW      0.557330       1.00800           0   0.00000       0.00000    
     49134 TIP3     4586     SWM4     OH2      ODW       1.71640       15.5994           0 -0.978253       1.30000    
     49135 TIP3     4586     SWM4     DOH2     DOH2     -1.71640      0.400000           0   0.00000       0.00000    
     49136 TIP3     4586     SWM4     OM       LPDW     -1.11466       0.00000          -1   0.00000       0.00000    
     49137 TIP3     4586     SWM4     H1       HDW      0.557330       1.00800           0   0.00000       0.00000    
     49138 TIP3     4586     SWM4     H2       HDW      0.557330       1.00800           0   0.00000       0.00000    
     49139 TIP3     4587     SWM4     OH2      ODW       1.71640       15.5994           0 -0.978253       1.30000    
     49140 TIP3     4587     SWM4     DOH2     DOH2     -1.71640      0.400000           0   0.00000       0.00000    
     49141 TIP3     4587     SWM4     OM       LPDW     -1.11466       0.00000          -1   0.00000       0.00000    
     49142 TIP3     4587     SWM4     H1       HDW      0.557330       1.00800           0   0.00000       0.00000    
     49143 TIP3     4587     SWM4     H2       HDW      0.557330       1.00800           0   0.00000       0.00000    
     49144 TIP3     4588     SWM4     OH2      ODW       1.71640       15.5994           0 -0.978253       1.30000    
     49145 TIP3     4588     SWM4     DOH2     DOH2     -1.71640      0.400000           0   0.00000       0.00000    
     49146 TIP3     4588     SWM4     OM       LPDW     -1.11466       0.00000          -1   0.00000       0.00000    
     49147 TIP3     4588     SWM4     H1       HDW      0.557330       1.00800           0   0.00000       0.00000    
     49148 TIP3     4588     SWM4     H2       HDW      0.557330       1.00800           0   0.00000       0.00000    
     49149 TIP3     4589     SWM4     OH2      ODW       1.71640       15.5994           0 -0.978253       1.30000    
     49150 TIP3     4589     SWM4     DOH2     DOH2     -1.71640      0.400000           0   0.00000       0.00000    
     49151 TIP3     4589     SWM4     OM       LPDW     -1.11466       0.00000          -1   0.00000       0.00000    
     49152 TIP3     4589     SWM4     H1       HDW      0.557330       1.00800           0   0.00000       0.00000    
     49153 TIP3     4589     SWM4     H2       HDW      0.557330       1.00800           0   0.00000       0.00000    
     49154 TIP3     4590     SWM4     OH2      ODW       1.71640       15.5994           0 -0.978253       1.30000    
     49155 TIP3     4590     SWM4     DOH2     DOH2     -1.71640      0.400000           0   0.00000       0.00000    
     49156 TIP3     4590     SWM4     OM       LPDW     -1.11466       0.00000          -1   0.00000       0.00000    
     49157 TIP3     4590     SWM4     H1       HDW      0.557330       1.00800           0   0.00000       0.00000    
     49158 TIP3     4590     SWM4     H2       HDW      0.557330       1.00800           0   0.00000       0.00000    
     49159 TIP3     4591     SWM4     OH2      ODW       1.71640       15.5994           0 -0.978253       1.30000    
     49160 TIP3     4591     SWM4     DOH2     DOH2     -1.71640      0.400000           0   0.00000       0.00000    
     49161 TIP3     4591     SWM4     OM       LPDW     -1.11466       0.00000          -1   0.00000       0.00000    
     49162 TIP3     4591     SWM4     H1       HDW      0.557330       1.00800           0   0.00000       0.00000    
     49163 TIP3     4591     SWM4     H2       HDW      0.557330       1.00800           0   0.00000       0.00000    
     49164 TIP3     4592     SWM4     OH2      ODW       1.71640       15.5994           0 -0.978253       1.30000    
     49165 TIP3     4592     SWM4     DOH2     DOH2     -1.71640      0.400000           0   0.00000       0.00000    
     49166 TIP3     4592     SWM4     OM       LPDW     -1.11466       0.00000          -1   0.00000       0.00000    
     49167 TIP3     4592     SWM4     H1       HDW      0.557330       1.00800           0   0.00000       0.00000    
     49168 TIP3     4592     SWM4     H2       HDW      0.557330       1.00800           0   0.00000       0.00000    
     49169 TIP3     4593     SWM4     OH2      ODW       1.71640       15.5994           0 -0.978253       1.30000    
     49170 TIP3     4593     SWM4     DOH2     DOH2     -1.71640      0.400000           0   0.00000       0.00000    
     49171 TIP3     4593     SWM4     OM       LPDW     -1.11466       0.00000          -1   0.00000       0.00000    
     49172 TIP3     4593     SWM4     H1       HDW      0.557330       1.00800           0   0.00000       0.00000    
     49173 TIP3     4593     SWM4     H2       HDW      0.557330       1.00800           0   0.00000       0.00000    
     49174 TIP3     4594     SWM4     OH2      ODW       1.71640       15.5994           0 -0.978253       1.30000    
     49175 TIP3     4594     SWM4     DOH2     DOH2     -1.71640      0.400000           0   0.00000       0.00000    
     49176 TIP3     4594     SWM4     OM       LPDW     -1.11466       0.00000          -1   0.00000       0.00000    
     49177 TIP3     4594     SWM4     H1       HDW      0.557330       1.00800           0   0.00000       0.00000    
     49178 TIP3     4594     SWM4     H2       HDW      0.557330       1.00800           0   0.00000       0.00000    
     49179 TIP3     4595     SWM4     OH2      ODW       1.71640       15.5994           0 -0.978253       1.30000    
     49180 TIP3     4595     SWM4     DOH2     DOH2     -1.71640      0.400000           0   0.00000       0.00000    
     49181 TIP3     4595     SWM4     OM       LPDW     -1.11466       0.00000          -1   0.00000       0.00000    
     49182 TIP3     4595     SWM4     H1       HDW      0.557330       1.00800           0   0.00000       0.00000    
     49183 TIP3     4595     SWM4     H2       HDW      0.557330       1.00800           0   0.00000       0.00000    
     49184 TIP3     4596     SWM4     OH2      ODW       1.71640       15.5994           0 -0.978253       1.30000    
     49185 TIP3     4596     SWM4     DOH2     DOH2     -1.71640      0.400000           0   0.00000       0.00000    
     49186 TIP3     4596     SWM4     OM       LPDW     -1.11466       0.00000          -1   0.00000       0.00000    
     49187 TIP3     4596     SWM4     H1       HDW      0.557330       1.00800           0   0.00000       0.00000    
     49188 TIP3     4596     SWM4     H2       HDW      0.557330       1.00800           0   0.00000       0.00000    
     49189 TIP3     4597     SWM4     OH2      ODW       1.71640       15.5994           0 -0.978253       1.30000    
     49190 TIP3     4597     SWM4     DOH2     DOH2     -1.71640      0.400000           0   0.00000       0.00000    
     49191 TIP3     4597     SWM4     OM       LPDW     -1.11466       0.00000          -1   0.00000       0.00000    
     49192 TIP3     4597     SWM4     H1       HDW      0.557330       1.00800           0   0.00000       0.00000    
     49193 TIP3     4597     SWM4     H2       HDW      0.557330       1.00800           0   0.00000       0.00000    
     49194 TIP3     4598     SWM4     OH2      ODW       1.71640       15.5994           0 -0.978253       1.30000    
     49195 TIP3     4598     SWM4     DOH2     DOH2     -1.71640      0.400000           0   0.00000       0.00000    
     49196 TIP3     4598     SWM4     OM       LPDW     -1.11466       0.00000          -1   0.00000       0.00000    
     49197 TIP3     4598     SWM4     H1       HDW      0.557330       1.00800           0   0.00000       0.00000    
     49198 TIP3     4598     SWM4     H2       HDW      0.557330       1.00800           0   0.00000       0.00000    
     49199 TIP3     4599     SWM4     OH2      ODW       1.71640       15.5994           0 -0.978253       1.30000    
     49200 TIP3     4599     SWM4     DOH2     DOH2     -1.71640      0.400000           0   0.00000       0.00000    
     49201 TIP3     4599     SWM4     OM       LPDW     -1.11466       0.00000          -1   0.00000       0.00000    
     49202 TIP3     4599     SWM4     H1       HDW      0.557330       1.00800           0   0.00000       0.00000    
     49203 TIP3     4599     SWM4     H2       HDW      0.557330       1.00800           0   0.00000       0.00000    
     49204 TIP3     4600     SWM4     OH2      ODW       1.71640       15.5994           0 -0.978253       1.30000    
     49205 TIP3     4600     SWM4     DOH2     DOH2     -1.71640      0.400000           0   0.00000       0.00000    
     49206 TIP3     4600     SWM4     OM       LPDW     -1.11466       0.00000          -1   0.00000       0.00000    
     49207 TIP3     4600     SWM4     H1       HDW      0.557330       1.00800           0   0.00000       0.00000    
     49208 TIP3     4600     SWM4     H2       HDW      0.557330       1.00800           0   0.00000       0.00000    
     49209 TIP3     4601     SWM4     OH2      ODW       1.71640       15.5994           0 -0.978253       1.30000    
     49210 TIP3     4601     SWM4     DOH2     DOH2     -1.71640      0.400000           0   0.00000       0.00000    
     49211 TIP3     4601     SWM4     OM       LPDW     -1.11466       0.00000          -1   0.00000       0.00000    
     49212 TIP3     4601     SWM4     H1       HDW      0.557330       1.00800           0   0.00000       0.00000    
     49213 TIP3     4601     SWM4     H2       HDW      0.557330       1.00800           0   0.00000       0.00000    
     49214 TIP3     4602     SWM4     OH2      ODW       1.71640       15.5994           0 -0.978253       1.30000    
     49215 TIP3     4602     SWM4     DOH2     DOH2     -1.71640      0.400000           0   0.00000       0.00000    
     49216 TIP3     4602     SWM4     OM       LPDW     -1.11466       0.00000          -1   0.00000       0.00000    
     49217 TIP3     4602     SWM4     H1       HDW      0.557330       1.00800           0   0.00000       0.00000    
     49218 TIP3     4602     SWM4     H2       HDW      0.557330       1.00800           0   0.00000       0.00000    
     49219 TIP3     4603     SWM4     OH2      ODW       1.71640       15.5994           0 -0.978253       1.30000    
     49220 TIP3     4603     SWM4     DOH2     DOH2     -1.71640      0.400000           0   0.00000       0.00000    
     49221 TIP3     4603     SWM4     OM       LPDW     -1.11466       0.00000          -1   0.00000       0.00000    
     49222 TIP3     4603     SWM4     H1       HDW      0.557330       1.00800           0   0.00000       0.00000    
     49223 TIP3     4603     SWM4     H2       HDW      0.557330       1.00800           0   0.00000       0.00000    
     49224 TIP3     4604     SWM4     OH2      ODW       1.71640       15.5994           0 -0.978253       1.30000    
     49225 TIP3     4604     SWM4     DOH2     DOH2     -1.71640      0.400000           0   0.00000       0.00000    
     49226 TIP3     4604     SWM4     OM       LPDW     -1.11466       0.00000          -1   0.00000       0.00000    
     49227 TIP3     4604     SWM4     H1       HDW      0.557330       1.00800           0   0.00000       0.00000    
     49228 TIP3     4604     SWM4     H2       HDW      0.557330       1.00800           0   0.00000       0.00000    
     49229 TIP3     4605     SWM4     OH2      ODW       1.71640       15.5994           0 -0.978253       1.30000    
     49230 TIP3     4605     SWM4     DOH2     DOH2     -1.71640      0.400000           0   0.00000       0.00000    
     49231 TIP3     4605     SWM4     OM       LPDW     -1.11466       0.00000          -1   0.00000       0.00000    
     49232 TIP3     4605     SWM4     H1       HDW      0.557330       1.00800           0   0.00000       0.00000    
     49233 TIP3     4605     SWM4     H2       HDW      0.557330       1.00800           0   0.00000       0.00000    
     49234 TIP3     4606     SWM4     OH2      ODW       1.71640       15.5994           0 -0.978253       1.30000    
     49235 TIP3     4606     SWM4     DOH2     DOH2     -1.71640      0.400000           0   0.00000       0.00000    
     49236 TIP3     4606     SWM4     OM       LPDW     -1.11466       0.00000          -1   0.00000       0.00000    
     49237 TIP3     4606     SWM4     H1       HDW      0.557330       1.00800           0   0.00000       0.00000    
     49238 TIP3     4606     SWM4     H2       HDW      0.557330       1.00800           0   0.00000       0.00000    
     49239 TIP3     4607     SWM4     OH2      ODW       1.71640       15.5994           0 -0.978253       1.30000    
     49240 TIP3     4607     SWM4     DOH2     DOH2     -1.71640      0.400000           0   0.00000       0.00000    
     49241 TIP3     4607     SWM4     OM       LPDW     -1.11466       0.00000          -1   0.00000       0.00000    
     49242 TIP3     4607     SWM4     H1       HDW      0.557330       1.00800           0   0.00000       0.00000    
     49243 TIP3     4607     SWM4     H2       HDW      0.557330       1.00800           0   0.00000       0.00000    
     49244 TIP3     4608     SWM4     OH2      ODW       1.71640       15.5994           0 -0.978253       1.30000    
     49245 TIP3     4608     SWM4     DOH2     DOH2     -1.71640      0.400000           0   0.00000       0.00000    
     49246 TIP3     4608     SWM4     OM       LPDW     -1.11466       0.00000          -1   0.00000       0.00000    
     49247 TIP3     4608     SWM4     H1       HDW      0.557330       1.00800           0   0.00000       0.00000    
     49248 TIP3     4608     SWM4     H2       HDW      0.557330       1.00800           0   0.00000       0.00000    
     49249 TIP3     4609     SWM4     OH2      ODW       1.71640       15.5994           0 -0.978253       1.30000    
     49250 TIP3     4609     SWM4     DOH2     DOH2     -1.71640      0.400000           0   0.00000       0.00000    
     49251 TIP3     4609     SWM4     OM       LPDW     -1.11466       0.00000          -1   0.00000       0.00000    
     49252 TIP3     4609     SWM4     H1       HDW      0.557330       1.00800           0   0.00000       0.00000    
     49253 TIP3     4609     SWM4     H2       HDW      0.557330       1.00800           0   0.00000       0.00000    
     49254 TIP3     4610     SWM4     OH2      ODW       1.71640       15.5994           0 -0.978253       1.30000    
     49255 TIP3     4610     SWM4     DOH2     DOH2     -1.71640      0.400000           0   0.00000       0.00000    
     49256 TIP3     4610     SWM4     OM       LPDW     -1.11466       0.00000          -1   0.00000       0.00000    
     49257 TIP3     4610     SWM4     H1       HDW      0.557330       1.00800           0   0.00000       0.00000    
     49258 TIP3     4610     SWM4     H2       HDW      0.557330       1.00800           0   0.00000       0.00000    
     49259 TIP3     4611     SWM4     OH2      ODW       1.71640       15.5994           0 -0.978253       1.30000    
     49260 TIP3     4611     SWM4     DOH2     DOH2     -1.71640      0.400000           0   0.00000       0.00000    
     49261 TIP3     4611     SWM4     OM       LPDW     -1.11466       0.00000          -1   0.00000       0.00000    
     49262 TIP3     4611     SWM4     H1       HDW      0.557330       1.00800           0   0.00000       0.00000    
     49263 TIP3     4611     SWM4     H2       HDW      0.557330       1.00800           0   0.00000       0.00000    
     49264 TIP3     4612     SWM4     OH2      ODW       1.71640       15.5994           0 -0.978253       1.30000    
     49265 TIP3     4612     SWM4     DOH2     DOH2     -1.71640      0.400000           0   0.00000       0.00000    
     49266 TIP3     4612     SWM4     OM       LPDW     -1.11466       0.00000          -1   0.00000       0.00000    
     49267 TIP3     4612     SWM4     H1       HDW      0.557330       1.00800           0   0.00000       0.00000    
     49268 TIP3     4612     SWM4     H2       HDW      0.557330       1.00800           0   0.00000       0.00000    
     49269 TIP3     4613     SWM4     OH2      ODW       1.71640       15.5994           0 -0.978253       1.30000    
     49270 TIP3     4613     SWM4     DOH2     DOH2     -1.71640      0.400000           0   0.00000       0.00000    
     49271 TIP3     4613     SWM4     OM       LPDW     -1.11466       0.00000          -1   0.00000       0.00000    
     49272 TIP3     4613     SWM4     H1       HDW      0.557330       1.00800           0   0.00000       0.00000    
     49273 TIP3     4613     SWM4     H2       HDW      0.557330       1.00800           0   0.00000       0.00000    
     49274 TIP3     4614     SWM4     OH2      ODW       1.71640       15.5994           0 -0.978253       1.30000    
     49275 TIP3     4614     SWM4     DOH2     DOH2     -1.71640      0.400000           0   0.00000       0.00000    
     49276 TIP3     4614     SWM4     OM       LPDW     -1.11466       0.00000          -1   0.00000       0.00000    
     49277 TIP3     4614     SWM4     H1       HDW      0.557330       1.00800           0   0.00000       0.00000    
     49278 TIP3     4614     SWM4     H2       HDW      0.557330       1.00800           0   0.00000       0.00000    
     49279 TIP3     4615     SWM4     OH2      ODW       1.71640       15.5994           0 -0.978253       1.30000    
     49280 TIP3     4615     SWM4     DOH2     DOH2     -1.71640      0.400000           0   0.00000       0.00000    
     49281 TIP3     4615     SWM4     OM       LPDW     -1.11466       0.00000          -1   0.00000       0.00000    
     49282 TIP3     4615     SWM4     H1       HDW      0.557330       1.00800           0   0.00000       0.00000    
     49283 TIP3     4615     SWM4     H2       HDW      0.557330       1.00800           0   0.00000       0.00000    
     49284 TIP3     4616     SWM4     OH2      ODW       1.71640       15.5994           0 -0.978253       1.30000    
     49285 TIP3     4616     SWM4     DOH2     DOH2     -1.71640      0.400000           0   0.00000       0.00000    
     49286 TIP3     4616     SWM4     OM       LPDW     -1.11466       0.00000          -1   0.00000       0.00000    
     49287 TIP3     4616     SWM4     H1       HDW      0.557330       1.00800           0   0.00000       0.00000    
     49288 TIP3     4616     SWM4     H2       HDW      0.557330       1.00800           0   0.00000       0.00000    
     49289 TIP3     4617     SWM4     OH2      ODW       1.71640       15.5994           0 -0.978253       1.30000    
     49290 TIP3     4617     SWM4     DOH2     DOH2     -1.71640      0.400000           0   0.00000       0.00000    
     49291 TIP3     4617     SWM4     OM       LPDW     -1.11466       0.00000          -1   0.00000       0.00000    
     49292 TIP3     4617     SWM4     H1       HDW      0.557330       1.00800           0   0.00000       0.00000    
     49293 TIP3     4617     SWM4     H2       HDW      0.557330       1.00800           0   0.00000       0.00000    
     49294 TIP3     4618     SWM4     OH2      ODW       1.71640       15.5994           0 -0.978253       1.30000    
     49295 TIP3     4618     SWM4     DOH2     DOH2     -1.71640      0.400000           0   0.00000       0.00000    
     49296 TIP3     4618     SWM4     OM       LPDW     -1.11466       0.00000          -1   0.00000       0.00000    
     49297 TIP3     4618     SWM4     H1       HDW      0.557330       1.00800           0   0.00000       0.00000    
     49298 TIP3     4618     SWM4     H2       HDW      0.557330       1.00800           0   0.00000       0.00000    
     49299 TIP3     4619     SWM4     OH2      ODW       1.71640       15.5994           0 -0.978253       1.30000    
     49300 TIP3     4619     SWM4     DOH2     DOH2     -1.71640      0.400000           0   0.00000       0.00000    
     49301 TIP3     4619     SWM4     OM       LPDW     -1.11466       0.00000          -1   0.00000       0.00000    
     49302 TIP3     4619     SWM4     H1       HDW      0.557330       1.00800           0   0.00000       0.00000    
     49303 TIP3     4619     SWM4     H2       HDW      0.557330       1.00800           0   0.00000       0.00000    
     49304 TIP3     4620     SWM4     OH2      ODW       1.71640       15.5994           0 -0.978253       1.30000    
     49305 TIP3     4620     SWM4     DOH2     DOH2     -1.71640      0.400000           0   0.00000       0.00000    
     49306 TIP3     4620     SWM4     OM       LPDW     -1.11466       0.00000          -1   0.00000       0.00000    
     49307 TIP3     4620     SWM4     H1       HDW      0.557330       1.00800           0   0.00000       0.00000    
     49308 TIP3     4620     SWM4     H2       HDW      0.557330       1.00800           0   0.00000       0.00000    
     49309 TIP3     4621     SWM4     OH2      ODW       1.71640       15.5994           0 -0.978253       1.30000    
     49310 TIP3     4621     SWM4     DOH2     DOH2     -1.71640      0.400000           0   0.00000       0.00000    
     49311 TIP3     4621     SWM4     OM       LPDW     -1.11466       0.00000          -1   0.00000       0.00000    
     49312 TIP3     4621     SWM4     H1       HDW      0.557330       1.00800           0   0.00000       0.00000    
     49313 TIP3     4621     SWM4     H2       HDW      0.557330       1.00800           0   0.00000       0.00000    
     49314 TIP3     4622     SWM4     OH2      ODW       1.71640       15.5994           0 -0.978253       1.30000    
     49315 TIP3     4622     SWM4     DOH2     DOH2     -1.71640      0.400000           0   0.00000       0.00000    
     49316 TIP3     4622     SWM4     OM       LPDW     -1.11466       0.00000          -1   0.00000       0.00000    
     49317 TIP3     4622     SWM4     H1       HDW      0.557330       1.00800           0   0.00000       0.00000    
     49318 TIP3     4622     SWM4     H2       HDW      0.557330       1.00800           0   0.00000       0.00000    
     49319 TIP3     4623     SWM4     OH2      ODW       1.71640       15.5994           0 -0.978253       1.30000    
     49320 TIP3     4623     SWM4     DOH2     DOH2     -1.71640      0.400000           0   0.00000       0.00000    
     49321 TIP3     4623     SWM4     OM       LPDW     -1.11466       0.00000          -1   0.00000       0.00000    
     49322 TIP3     4623     SWM4     H1       HDW      0.557330       1.00800           0   0.00000       0.00000    
     49323 TIP3     4623     SWM4     H2       HDW      0.557330       1.00800           0   0.00000       0.00000    
     49324 TIP3     4624     SWM4     OH2      ODW       1.71640       15.5994           0 -0.978253       1.30000    
     49325 TIP3     4624     SWM4     DOH2     DOH2     -1.71640      0.400000           0   0.00000       0.00000    
     49326 TIP3     4624     SWM4     OM       LPDW     -1.11466       0.00000          -1   0.00000       0.00000    
     49327 TIP3     4624     SWM4     H1       HDW      0.557330       1.00800           0   0.00000       0.00000    
     49328 TIP3     4624     SWM4     H2       HDW      0.557330       1.00800           0   0.00000       0.00000    
     49329 TIP3     4625     SWM4     OH2      ODW       1.71640       15.5994           0 -0.978253       1.30000    
     49330 TIP3     4625     SWM4     DOH2     DOH2     -1.71640      0.400000           0   0.00000       0.00000    
     49331 TIP3     4625     SWM4     OM       LPDW     -1.11466       0.00000          -1   0.00000       0.00000    
     49332 TIP3     4625     SWM4     H1       HDW      0.557330       1.00800           0   0.00000       0.00000    
     49333 TIP3     4625     SWM4     H2       HDW      0.557330       1.00800           0   0.00000       0.00000    
     49334 TIP3     4626     SWM4     OH2      ODW       1.71640       15.5994           0 -0.978253       1.30000    
     49335 TIP3     4626     SWM4     DOH2     DOH2     -1.71640      0.400000           0   0.00000       0.00000    
     49336 TIP3     4626     SWM4     OM       LPDW     -1.11466       0.00000          -1   0.00000       0.00000    
     49337 TIP3     4626     SWM4     H1       HDW      0.557330       1.00800           0   0.00000       0.00000    
     49338 TIP3     4626     SWM4     H2       HDW      0.557330       1.00800           0   0.00000       0.00000    
     49339 TIP3     4627     SWM4     OH2      ODW       1.71640       15.5994           0 -0.978253       1.30000    
     49340 TIP3     4627     SWM4     DOH2     DOH2     -1.71640      0.400000           0   0.00000       0.00000    
     49341 TIP3     4627     SWM4     OM       LPDW     -1.11466       0.00000          -1   0.00000       0.00000    
     49342 TIP3     4627     SWM4     H1       HDW      0.557330       1.00800           0   0.00000       0.00000    
     49343 TIP3     4627     SWM4     H2       HDW      0.557330       1.00800           0   0.00000       0.00000    
     49344 TIP3     4628     SWM4     OH2      ODW       1.71640       15.5994           0 -0.978253       1.30000    
     49345 TIP3     4628     SWM4     DOH2     DOH2     -1.71640      0.400000           0   0.00000       0.00000    
     49346 TIP3     4628     SWM4     OM       LPDW     -1.11466       0.00000          -1   0.00000       0.00000    
     49347 TIP3     4628     SWM4     H1       HDW      0.557330       1.00800           0   0.00000       0.00000    
     49348 TIP3     4628     SWM4     H2       HDW      0.557330       1.00800           0   0.00000       0.00000    
     49349 TIP3     4629     SWM4     OH2      ODW       1.71640       15.5994           0 -0.978253       1.30000    
     49350 TIP3     4629     SWM4     DOH2     DOH2     -1.71640      0.400000           0   0.00000       0.00000    
     49351 TIP3     4629     SWM4     OM       LPDW     -1.11466       0.00000          -1   0.00000       0.00000    
     49352 TIP3     4629     SWM4     H1       HDW      0.557330       1.00800           0   0.00000       0.00000    
     49353 TIP3     4629     SWM4     H2       HDW      0.557330       1.00800           0   0.00000       0.00000    
     49354 TIP3     4630     SWM4     OH2      ODW       1.71640       15.5994           0 -0.978253       1.30000    
     49355 TIP3     4630     SWM4     DOH2     DOH2     -1.71640      0.400000           0   0.00000       0.00000    
     49356 TIP3     4630     SWM4     OM       LPDW     -1.11466       0.00000          -1   0.00000       0.00000    
     49357 TIP3     4630     SWM4     H1       HDW      0.557330       1.00800           0   0.00000       0.00000    
     49358 TIP3     4630     SWM4     H2       HDW      0.557330       1.00800           0   0.00000       0.00000    
     49359 TIP3     4631     SWM4     OH2      ODW       1.71640       15.5994           0 -0.978253       1.30000    
     49360 TIP3     4631     SWM4     DOH2     DOH2     -1.71640      0.400000           0   0.00000       0.00000    
     49361 TIP3     4631     SWM4     OM       LPDW     -1.11466       0.00000          -1   0.00000       0.00000    
     49362 TIP3     4631     SWM4     H1       HDW      0.557330       1.00800           0   0.00000       0.00000    
     49363 TIP3     4631     SWM4     H2       HDW      0.557330       1.00800           0   0.00000       0.00000    
     49364 TIP3     4632     SWM4     OH2      ODW       1.71640       15.5994           0 -0.978253       1.30000    
     49365 TIP3     4632     SWM4     DOH2     DOH2     -1.71640      0.400000           0   0.00000       0.00000    
     49366 TIP3     4632     SWM4     OM       LPDW     -1.11466       0.00000          -1   0.00000       0.00000    
     49367 TIP3     4632     SWM4     H1       HDW      0.557330       1.00800           0   0.00000       0.00000    
     49368 TIP3     4632     SWM4     H2       HDW      0.557330       1.00800           0   0.00000       0.00000    
     49369 TIP3     4633     SWM4     OH2      ODW       1.71640       15.5994           0 -0.978253       1.30000    
     49370 TIP3     4633     SWM4     DOH2     DOH2     -1.71640      0.400000           0   0.00000       0.00000    
     49371 TIP3     4633     SWM4     OM       LPDW     -1.11466       0.00000          -1   0.00000       0.00000    
     49372 TIP3     4633     SWM4     H1       HDW      0.557330       1.00800           0   0.00000       0.00000    
     49373 TIP3     4633     SWM4     H2       HDW      0.557330       1.00800           0   0.00000       0.00000    
     49374 TIP3     4634     SWM4     OH2      ODW       1.71640       15.5994           0 -0.978253       1.30000    
     49375 TIP3     4634     SWM4     DOH2     DOH2     -1.71640      0.400000           0   0.00000       0.00000    
     49376 TIP3     4634     SWM4     OM       LPDW     -1.11466       0.00000          -1   0.00000       0.00000    
     49377 TIP3     4634     SWM4     H1       HDW      0.557330       1.00800           0   0.00000       0.00000    
     49378 TIP3     4634     SWM4     H2       HDW      0.557330       1.00800           0   0.00000       0.00000    
     49379 TIP3     4635     SWM4     OH2      ODW       1.71640       15.5994           0 -0.978253       1.30000    
     49380 TIP3     4635     SWM4     DOH2     DOH2     -1.71640      0.400000           0   0.00000       0.00000    
     49381 TIP3     4635     SWM4     OM       LPDW     -1.11466       0.00000          -1   0.00000       0.00000    
     49382 TIP3     4635     SWM4     H1       HDW      0.557330       1.00800           0   0.00000       0.00000    
     49383 TIP3     4635     SWM4     H2       HDW      0.557330       1.00800           0   0.00000       0.00000    
     49384 TIP3     4636     SWM4     OH2      ODW       1.71640       15.5994           0 -0.978253       1.30000    
     49385 TIP3     4636     SWM4     DOH2     DOH2     -1.71640      0.400000           0   0.00000       0.00000    
     49386 TIP3     4636     SWM4     OM       LPDW     -1.11466       0.00000          -1   0.00000       0.00000    
     49387 TIP3     4636     SWM4     H1       HDW      0.557330       1.00800           0   0.00000       0.00000    
     49388 TIP3     4636     SWM4     H2       HDW      0.557330       1.00800           0   0.00000       0.00000    
     49389 TIP3     4637     SWM4     OH2      ODW       1.71640       15.5994           0 -0.978253       1.30000    
     49390 TIP3     4637     SWM4     DOH2     DOH2     -1.71640      0.400000           0   0.00000       0.00000    
     49391 TIP3     4637     SWM4     OM       LPDW     -1.11466       0.00000          -1   0.00000       0.00000    
     49392 TIP3     4637     SWM4     H1       HDW      0.557330       1.00800           0   0.00000       0.00000    
     49393 TIP3     4637     SWM4     H2       HDW      0.557330       1.00800           0   0.00000       0.00000    
     49394 TIP3     4638     SWM4     OH2      ODW       1.71640       15.5994           0 -0.978253       1.30000    
     49395 TIP3     4638     SWM4     DOH2     DOH2     -1.71640      0.400000           0   0.00000       0.00000    
     49396 TIP3     4638     SWM4     OM       LPDW     -1.11466       0.00000          -1   0.00000       0.00000    
     49397 TIP3     4638     SWM4     H1       HDW      0.557330       1.00800           0   0.00000       0.00000    
     49398 TIP3     4638     SWM4     H2       HDW      0.557330       1.00800           0   0.00000       0.00000    
     49399 TIP3     4639     SWM4     OH2      ODW       1.71640       15.5994           0 -0.978253       1.30000    
     49400 TIP3     4639     SWM4     DOH2     DOH2     -1.71640      0.400000           0   0.00000       0.00000    
     49401 TIP3     4639     SWM4     OM       LPDW     -1.11466       0.00000          -1   0.00000       0.00000    
     49402 TIP3     4639     SWM4     H1       HDW      0.557330       1.00800           0   0.00000       0.00000    
     49403 TIP3     4639     SWM4     H2       HDW      0.557330       1.00800           0   0.00000       0.00000    
     49404 TIP3     4640     SWM4     OH2      ODW       1.71640       15.5994           0 -0.978253       1.30000    
     49405 TIP3     4640     SWM4     DOH2     DOH2     -1.71640      0.400000           0   0.00000       0.00000    
     49406 TIP3     4640     SWM4     OM       LPDW     -1.11466       0.00000          -1   0.00000       0.00000    
     49407 TIP3     4640     SWM4     H1       HDW      0.557330       1.00800           0   0.00000       0.00000    
     49408 TIP3     4640     SWM4     H2       HDW      0.557330       1.00800           0   0.00000       0.00000    
     49409 TIP3     4641     SWM4     OH2      ODW       1.71640       15.5994           0 -0.978253       1.30000    
     49410 TIP3     4641     SWM4     DOH2     DOH2     -1.71640      0.400000           0   0.00000       0.00000    
     49411 TIP3     4641     SWM4     OM       LPDW     -1.11466       0.00000          -1   0.00000       0.00000    
     49412 TIP3     4641     SWM4     H1       HDW      0.557330       1.00800           0   0.00000       0.00000    
     49413 TIP3     4641     SWM4     H2       HDW      0.557330       1.00800           0   0.00000       0.00000    
     49414 TIP3     4642     SWM4     OH2      ODW       1.71640       15.5994           0 -0.978253       1.30000    
     49415 TIP3     4642     SWM4     DOH2     DOH2     -1.71640      0.400000           0   0.00000       0.00000    
     49416 TIP3     4642     SWM4     OM       LPDW     -1.11466       0.00000          -1   0.00000       0.00000    
     49417 TIP3     4642     SWM4     H1       HDW      0.557330       1.00800           0   0.00000       0.00000    
     49418 TIP3     4642     SWM4     H2       HDW      0.557330       1.00800           0   0.00000       0.00000    
     49419 TIP3     4643     SWM4     OH2      ODW       1.71640       15.5994           0 -0.978253       1.30000    
     49420 TIP3     4643     SWM4     DOH2     DOH2     -1.71640      0.400000           0   0.00000       0.00000    
     49421 TIP3     4643     SWM4     OM       LPDW     -1.11466       0.00000          -1   0.00000       0.00000    
     49422 TIP3     4643     SWM4     H1       HDW      0.557330       1.00800           0   0.00000       0.00000    
     49423 TIP3     4643     SWM4     H2       HDW      0.557330       1.00800           0   0.00000       0.00000    
     49424 TIP3     4644     SWM4     OH2      ODW       1.71640       15.5994           0 -0.978253       1.30000    
     49425 TIP3     4644     SWM4     DOH2     DOH2     -1.71640      0.400000           0   0.00000       0.00000    
     49426 TIP3     4644     SWM4     OM       LPDW     -1.11466       0.00000          -1   0.00000       0.00000    
     49427 TIP3     4644     SWM4     H1       HDW      0.557330       1.00800           0   0.00000       0.00000    
     49428 TIP3     4644     SWM4     H2       HDW      0.557330       1.00800           0   0.00000       0.00000    
     49429 TIP3     4645     SWM4     OH2      ODW       1.71640       15.5994           0 -0.978253       1.30000    
     49430 TIP3     4645     SWM4     DOH2     DOH2     -1.71640      0.400000           0   0.00000       0.00000    
     49431 TIP3     4645     SWM4     OM       LPDW     -1.11466       0.00000          -1   0.00000       0.00000    
     49432 TIP3     4645     SWM4     H1       HDW      0.557330       1.00800           0   0.00000       0.00000    
     49433 TIP3     4645     SWM4     H2       HDW      0.557330       1.00800           0   0.00000       0.00000    
     49434 TIP3     4646     SWM4     OH2      ODW       1.71640       15.5994           0 -0.978253       1.30000    
     49435 TIP3     4646     SWM4     DOH2     DOH2     -1.71640      0.400000           0   0.00000       0.00000    
     49436 TIP3     4646     SWM4     OM       LPDW     -1.11466       0.00000          -1   0.00000       0.00000    
     49437 TIP3     4646     SWM4     H1       HDW      0.557330       1.00800           0   0.00000       0.00000    
     49438 TIP3     4646     SWM4     H2       HDW      0.557330       1.00800           0   0.00000       0.00000    
     49439 TIP3     4647     SWM4     OH2      ODW       1.71640       15.5994           0 -0.978253       1.30000    
     49440 TIP3     4647     SWM4     DOH2     DOH2     -1.71640      0.400000           0   0.00000       0.00000    
     49441 TIP3     4647     SWM4     OM       LPDW     -1.11466       0.00000          -1   0.00000       0.00000    
     49442 TIP3     4647     SWM4     H1       HDW      0.557330       1.00800           0   0.00000       0.00000    
     49443 TIP3     4647     SWM4     H2       HDW      0.557330       1.00800           0   0.00000       0.00000    
     49444 TIP3     4648     SWM4     OH2      ODW       1.71640       15.5994           0 -0.978253       1.30000    
     49445 TIP3     4648     SWM4     DOH2     DOH2     -1.71640      0.400000           0   0.00000       0.00000    
     49446 TIP3     4648     SWM4     OM       LPDW     -1.11466       0.00000          -1   0.00000       0.00000    
     49447 TIP3     4648     SWM4     H1       HDW      0.557330       1.00800           0   0.00000       0.00000    
     49448 TIP3     4648     SWM4     H2       HDW      0.557330       1.00800           0   0.00000       0.00000    
     49449 TIP3     4649     SWM4     OH2      ODW       1.71640       15.5994           0 -0.978253       1.30000    
     49450 TIP3     4649     SWM4     DOH2     DOH2     -1.71640      0.400000           0   0.00000       0.00000    
     49451 TIP3     4649     SWM4     OM       LPDW     -1.11466       0.00000          -1   0.00000       0.00000    
     49452 TIP3     4649     SWM4     H1       HDW      0.557330       1.00800           0   0.00000       0.00000    
     49453 TIP3     4649     SWM4     H2       HDW      0.557330       1.00800           0   0.00000       0.00000    
     49454 TIP3     4650     SWM4     OH2      ODW       1.71640       15.5994           0 -0.978253       1.30000    
     49455 TIP3     4650     SWM4     DOH2     DOH2     -1.71640      0.400000           0   0.00000       0.00000    
     49456 TIP3     4650     SWM4     OM       LPDW     -1.11466       0.00000          -1   0.00000       0.00000    
     49457 TIP3     4650     SWM4     H1       HDW      0.557330       1.00800           0   0.00000       0.00000    
     49458 TIP3     4650     SWM4     H2       HDW      0.557330       1.00800           0   0.00000       0.00000    
     49459 TIP3     4651     SWM4     OH2      ODW       1.71640       15.5994           0 -0.978253       1.30000    
     49460 TIP3     4651     SWM4     DOH2     DOH2     -1.71640      0.400000           0   0.00000       0.00000    
     49461 TIP3     4651     SWM4     OM       LPDW     -1.11466       0.00000          -1   0.00000       0.00000    
     49462 TIP3     4651     SWM4     H1       HDW      0.557330       1.00800           0   0.00000       0.00000    
     49463 TIP3     4651     SWM4     H2       HDW      0.557330       1.00800           0   0.00000       0.00000    
     49464 TIP3     4652     SWM4     OH2      ODW       1.71640       15.5994           0 -0.978253       1.30000    
     49465 TIP3     4652     SWM4     DOH2     DOH2     -1.71640      0.400000           0   0.00000       0.00000    
     49466 TIP3     4652     SWM4     OM       LPDW     -1.11466       0.00000          -1   0.00000       0.00000    
     49467 TIP3     4652     SWM4     H1       HDW      0.557330       1.00800           0   0.00000       0.00000    
     49468 TIP3     4652     SWM4     H2       HDW      0.557330       1.00800           0   0.00000       0.00000    
     49469 TIP3     4653     SWM4     OH2      ODW       1.71640       15.5994           0 -0.978253       1.30000    
     49470 TIP3     4653     SWM4     DOH2     DOH2     -1.71640      0.400000           0   0.00000       0.00000    
     49471 TIP3     4653     SWM4     OM       LPDW     -1.11466       0.00000          -1   0.00000       0.00000    
     49472 TIP3     4653     SWM4     H1       HDW      0.557330       1.00800           0   0.00000       0.00000    
     49473 TIP3     4653     SWM4     H2       HDW      0.557330       1.00800           0   0.00000       0.00000    
     49474 TIP3     4654     SWM4     OH2      ODW       1.71640       15.5994           0 -0.978253       1.30000    
     49475 TIP3     4654     SWM4     DOH2     DOH2     -1.71640      0.400000           0   0.00000       0.00000    
     49476 TIP3     4654     SWM4     OM       LPDW     -1.11466       0.00000          -1   0.00000       0.00000    
     49477 TIP3     4654     SWM4     H1       HDW      0.557330       1.00800           0   0.00000       0.00000    
     49478 TIP3     4654     SWM4     H2       HDW      0.557330       1.00800           0   0.00000       0.00000    
     49479 TIP3     4655     SWM4     OH2      ODW       1.71640       15.5994           0 -0.978253       1.30000    
     49480 TIP3     4655     SWM4     DOH2     DOH2     -1.71640      0.400000           0   0.00000       0.00000    
     49481 TIP3     4655     SWM4     OM       LPDW     -1.11466       0.00000          -1   0.00000       0.00000    
     49482 TIP3     4655     SWM4     H1       HDW      0.557330       1.00800           0   0.00000       0.00000    
     49483 TIP3     4655     SWM4     H2       HDW      0.557330       1.00800           0   0.00000       0.00000    
     49484 TIP3     4656     SWM4     OH2      ODW       1.71640       15.5994           0 -0.978253       1.30000    
     49485 TIP3     4656     SWM4     DOH2     DOH2     -1.71640      0.400000           0   0.00000       0.00000    
     49486 TIP3     4656     SWM4     OM       LPDW     -1.11466       0.00000          -1   0.00000       0.00000    
     49487 TIP3     4656     SWM4     H1       HDW      0.557330       1.00800           0   0.00000       0.00000    
     49488 TIP3     4656     SWM4     H2       HDW      0.557330       1.00800           0   0.00000       0.00000    
     49489 TIP3     4657     SWM4     OH2      ODW       1.71640       15.5994           0 -0.978253       1.30000    
     49490 TIP3     4657     SWM4     DOH2     DOH2     -1.71640      0.400000           0   0.00000       0.00000    
     49491 TIP3     4657     SWM4     OM       LPDW     -1.11466       0.00000          -1   0.00000       0.00000    
     49492 TIP3     4657     SWM4     H1       HDW      0.557330       1.00800           0   0.00000       0.00000    
     49493 TIP3     4657     SWM4     H2       HDW      0.557330       1.00800           0   0.00000       0.00000    
     49494 TIP3     4658     SWM4     OH2      ODW       1.71640       15.5994           0 -0.978253       1.30000    
     49495 TIP3     4658     SWM4     DOH2     DOH2     -1.71640      0.400000           0   0.00000       0.00000    
     49496 TIP3     4658     SWM4     OM       LPDW     -1.11466       0.00000          -1   0.00000       0.00000    
     49497 TIP3     4658     SWM4     H1       HDW      0.557330       1.00800           0   0.00000       0.00000    
     49498 TIP3     4658     SWM4     H2       HDW      0.557330       1.00800           0   0.00000       0.00000    
     49499 TIP3     4659     SWM4     OH2      ODW       1.71640       15.5994           0 -0.978253       1.30000    
     49500 TIP3     4659     SWM4     DOH2     DOH2     -1.71640      0.400000           0   0.00000       0.00000    
     49501 TIP3     4659     SWM4     OM       LPDW     -1.11466       0.00000          -1   0.00000       0.00000    
     49502 TIP3     4659     SWM4     H1       HDW      0.557330       1.00800           0   0.00000       0.00000    
     49503 TIP3     4659     SWM4     H2       HDW      0.557330       1.00800           0   0.00000       0.00000    
     49504 TIP3     4660     SWM4     OH2      ODW       1.71640       15.5994           0 -0.978253       1.30000    
     49505 TIP3     4660     SWM4     DOH2     DOH2     -1.71640      0.400000           0   0.00000       0.00000    
     49506 TIP3     4660     SWM4     OM       LPDW     -1.11466       0.00000          -1   0.00000       0.00000    
     49507 TIP3     4660     SWM4     H1       HDW      0.557330       1.00800           0   0.00000       0.00000    
     49508 TIP3     4660     SWM4     H2       HDW      0.557330       1.00800           0   0.00000       0.00000    
     49509 TIP3     4661     SWM4     OH2      ODW       1.71640       15.5994           0 -0.978253       1.30000    
     49510 TIP3     4661     SWM4     DOH2     DOH2     -1.71640      0.400000           0   0.00000       0.00000    
     49511 TIP3     4661     SWM4     OM       LPDW     -1.11466       0.00000          -1   0.00000       0.00000    
     49512 TIP3     4661     SWM4     H1       HDW      0.557330       1.00800           0   0.00000       0.00000    
     49513 TIP3     4661     SWM4     H2       HDW      0.557330       1.00800           0   0.00000       0.00000    
     49514 TIP3     4662     SWM4     OH2      ODW       1.71640       15.5994           0 -0.978253       1.30000    
     49515 TIP3     4662     SWM4     DOH2     DOH2     -1.71640      0.400000           0   0.00000       0.00000    
     49516 TIP3     4662     SWM4     OM       LPDW     -1.11466       0.00000          -1   0.00000       0.00000    
     49517 TIP3     4662     SWM4     H1       HDW      0.557330       1.00800           0   0.00000       0.00000    
     49518 TIP3     4662     SWM4     H2       HDW      0.557330       1.00800           0   0.00000       0.00000    
     49519 TIP3     4663     SWM4     OH2      ODW       1.71640       15.5994           0 -0.978253       1.30000    
     49520 TIP3     4663     SWM4     DOH2     DOH2     -1.71640      0.400000           0   0.00000       0.00000    
     49521 TIP3     4663     SWM4     OM       LPDW     -1.11466       0.00000          -1   0.00000       0.00000    
     49522 TIP3     4663     SWM4     H1       HDW      0.557330       1.00800           0   0.00000       0.00000    
     49523 TIP3     4663     SWM4     H2       HDW      0.557330       1.00800           0   0.00000       0.00000    
     49524 TIP3     4664     SWM4     OH2      ODW       1.71640       15.5994           0 -0.978253       1.30000    
     49525 TIP3     4664     SWM4     DOH2     DOH2     -1.71640      0.400000           0   0.00000       0.00000    
     49526 TIP3     4664     SWM4     OM       LPDW     -1.11466       0.00000          -1   0.00000       0.00000    
     49527 TIP3     4664     SWM4     H1       HDW      0.557330       1.00800           0   0.00000       0.00000    
     49528 TIP3     4664     SWM4     H2       HDW      0.557330       1.00800           0   0.00000       0.00000    
     49529 TIP3     4665     SWM4     OH2      ODW       1.71640       15.5994           0 -0.978253       1.30000    
     49530 TIP3     4665     SWM4     DOH2     DOH2     -1.71640      0.400000           0   0.00000       0.00000    
     49531 TIP3     4665     SWM4     OM       LPDW     -1.11466       0.00000          -1   0.00000       0.00000    
     49532 TIP3     4665     SWM4     H1       HDW      0.557330       1.00800           0   0.00000       0.00000    
     49533 TIP3     4665     SWM4     H2       HDW      0.557330       1.00800           0   0.00000       0.00000    
     49534 TIP3     4666     SWM4     OH2      ODW       1.71640       15.5994           0 -0.978253       1.30000    
     49535 TIP3     4666     SWM4     DOH2     DOH2     -1.71640      0.400000           0   0.00000       0.00000    
     49536 TIP3     4666     SWM4     OM       LPDW     -1.11466       0.00000          -1   0.00000       0.00000    
     49537 TIP3     4666     SWM4     H1       HDW      0.557330       1.00800           0   0.00000       0.00000    
     49538 TIP3     4666     SWM4     H2       HDW      0.557330       1.00800           0   0.00000       0.00000    
     49539 TIP3     4667     SWM4     OH2      ODW       1.71640       15.5994           0 -0.978253       1.30000    
     49540 TIP3     4667     SWM4     DOH2     DOH2     -1.71640      0.400000           0   0.00000       0.00000    
     49541 TIP3     4667     SWM4     OM       LPDW     -1.11466       0.00000          -1   0.00000       0.00000    
     49542 TIP3     4667     SWM4     H1       HDW      0.557330       1.00800           0   0.00000       0.00000    
     49543 TIP3     4667     SWM4     H2       HDW      0.557330       1.00800           0   0.00000       0.00000    
     49544 TIP3     4668     SWM4     OH2      ODW       1.71640       15.5994           0 -0.978253       1.30000    
     49545 TIP3     4668     SWM4     DOH2     DOH2     -1.71640      0.400000           0   0.00000       0.00000    
     49546 TIP3     4668     SWM4     OM       LPDW     -1.11466       0.00000          -1   0.00000       0.00000    
     49547 TIP3     4668     SWM4     H1       HDW      0.557330       1.00800           0   0.00000       0.00000    
     49548 TIP3     4668     SWM4     H2       HDW      0.557330       1.00800           0   0.00000       0.00000    
     49549 TIP3     4669     SWM4     OH2      ODW       1.71640       15.5994           0 -0.978253       1.30000    
     49550 TIP3     4669     SWM4     DOH2     DOH2     -1.71640      0.400000           0   0.00000       0.00000    
     49551 TIP3     4669     SWM4     OM       LPDW     -1.11466       0.00000          -1   0.00000       0.00000    
     49552 TIP3     4669     SWM4     H1       HDW      0.557330       1.00800           0   0.00000       0.00000    
     49553 TIP3     4669     SWM4     H2       HDW      0.557330       1.00800           0   0.00000       0.00000    
     49554 TIP3     4670     SWM4     OH2      ODW       1.71640       15.5994           0 -0.978253       1.30000    
     49555 TIP3     4670     SWM4     DOH2     DOH2     -1.71640      0.400000           0   0.00000       0.00000    
     49556 TIP3     4670     SWM4     OM       LPDW     -1.11466       0.00000          -1   0.00000       0.00000    
     49557 TIP3     4670     SWM4     H1       HDW      0.557330       1.00800           0   0.00000       0.00000    
     49558 TIP3     4670     SWM4     H2       HDW      0.557330       1.00800           0   0.00000       0.00000    
     49559 TIP3     4671     SWM4     OH2      ODW       1.71640       15.5994           0 -0.978253       1.30000    
     49560 TIP3     4671     SWM4     DOH2     DOH2     -1.71640      0.400000           0   0.00000       0.00000    
     49561 TIP3     4671     SWM4     OM       LPDW     -1.11466       0.00000          -1   0.00000       0.00000    
     49562 TIP3     4671     SWM4     H1       HDW      0.557330       1.00800           0   0.00000       0.00000    
     49563 TIP3     4671     SWM4     H2       HDW      0.557330       1.00800           0   0.00000       0.00000    
     49564 TIP3     4672     SWM4     OH2      ODW       1.71640       15.5994           0 -0.978253       1.30000    
     49565 TIP3     4672     SWM4     DOH2     DOH2     -1.71640      0.400000           0   0.00000       0.00000    
     49566 TIP3     4672     SWM4     OM       LPDW     -1.11466       0.00000          -1   0.00000       0.00000    
     49567 TIP3     4672     SWM4     H1       HDW      0.557330       1.00800           0   0.00000       0.00000    
     49568 TIP3     4672     SWM4     H2       HDW      0.557330       1.00800           0   0.00000       0.00000    
     49569 TIP3     4673     SWM4     OH2      ODW       1.71640       15.5994           0 -0.978253       1.30000    
     49570 TIP3     4673     SWM4     DOH2     DOH2     -1.71640      0.400000           0   0.00000       0.00000    
     49571 TIP3     4673     SWM4     OM       LPDW     -1.11466       0.00000          -1   0.00000       0.00000    
     49572 TIP3     4673     SWM4     H1       HDW      0.557330       1.00800           0   0.00000       0.00000    
     49573 TIP3     4673     SWM4     H2       HDW      0.557330       1.00800           0   0.00000       0.00000    
     49574 TIP3     4674     SWM4     OH2      ODW       1.71640       15.5994           0 -0.978253       1.30000    
     49575 TIP3     4674     SWM4     DOH2     DOH2     -1.71640      0.400000           0   0.00000       0.00000    
     49576 TIP3     4674     SWM4     OM       LPDW     -1.11466       0.00000          -1   0.00000       0.00000    
     49577 TIP3     4674     SWM4     H1       HDW      0.557330       1.00800           0   0.00000       0.00000    
     49578 TIP3     4674     SWM4     H2       HDW      0.557330       1.00800           0   0.00000       0.00000    
     49579 TIP3     4675     SWM4     OH2      ODW       1.71640       15.5994           0 -0.978253       1.30000    
     49580 TIP3     4675     SWM4     DOH2     DOH2     -1.71640      0.400000           0   0.00000       0.00000    
     49581 TIP3     4675     SWM4     OM       LPDW     -1.11466       0.00000          -1   0.00000       0.00000    
     49582 TIP3     4675     SWM4     H1       HDW      0.557330       1.00800           0   0.00000       0.00000    
     49583 TIP3     4675     SWM4     H2       HDW      0.557330       1.00800           0   0.00000       0.00000    
     49584 TIP3     4676     SWM4     OH2      ODW       1.71640       15.5994           0 -0.978253       1.30000    
     49585 TIP3     4676     SWM4     DOH2     DOH2     -1.71640      0.400000           0   0.00000       0.00000    
     49586 TIP3     4676     SWM4     OM       LPDW     -1.11466       0.00000          -1   0.00000       0.00000    
     49587 TIP3     4676     SWM4     H1       HDW      0.557330       1.00800           0   0.00000       0.00000    
     49588 TIP3     4676     SWM4     H2       HDW      0.557330       1.00800           0   0.00000       0.00000    
     49589 TIP3     4677     SWM4     OH2      ODW       1.71640       15.5994           0 -0.978253       1.30000    
     49590 TIP3     4677     SWM4     DOH2     DOH2     -1.71640      0.400000           0   0.00000       0.00000    
     49591 TIP3     4677     SWM4     OM       LPDW     -1.11466       0.00000          -1   0.00000       0.00000    
     49592 TIP3     4677     SWM4     H1       HDW      0.557330       1.00800           0   0.00000       0.00000    
     49593 TIP3     4677     SWM4     H2       HDW      0.557330       1.00800           0   0.00000       0.00000    
     49594 TIP3     4678     SWM4     OH2      ODW       1.71640       15.5994           0 -0.978253       1.30000    
     49595 TIP3     4678     SWM4     DOH2     DOH2     -1.71640      0.400000           0   0.00000       0.00000    
     49596 TIP3     4678     SWM4     OM       LPDW     -1.11466       0.00000          -1   0.00000       0.00000    
     49597 TIP3     4678     SWM4     H1       HDW      0.557330       1.00800           0   0.00000       0.00000    
     49598 TIP3     4678     SWM4     H2       HDW      0.557330       1.00800           0   0.00000       0.00000    
     49599 TIP3     4679     SWM4     OH2      ODW       1.71640       15.5994           0 -0.978253       1.30000    
     49600 TIP3     4679     SWM4     DOH2     DOH2     -1.71640      0.400000           0   0.00000       0.00000    
     49601 TIP3     4679     SWM4     OM       LPDW     -1.11466       0.00000          -1   0.00000       0.00000    
     49602 TIP3     4679     SWM4     H1       HDW      0.557330       1.00800           0   0.00000       0.00000    
     49603 TIP3     4679     SWM4     H2       HDW      0.557330       1.00800           0   0.00000       0.00000    
     49604 TIP3     4680     SWM4     OH2      ODW       1.71640       15.5994           0 -0.978253       1.30000    
     49605 TIP3     4680     SWM4     DOH2     DOH2     -1.71640      0.400000           0   0.00000       0.00000    
     49606 TIP3     4680     SWM4     OM       LPDW     -1.11466       0.00000          -1   0.00000       0.00000    
     49607 TIP3     4680     SWM4     H1       HDW      0.557330       1.00800           0   0.00000       0.00000    
     49608 TIP3     4680     SWM4     H2       HDW      0.557330       1.00800           0   0.00000       0.00000    
     49609 TIP3     4681     SWM4     OH2      ODW       1.71640       15.5994           0 -0.978253       1.30000    
     49610 TIP3     4681     SWM4     DOH2     DOH2     -1.71640      0.400000           0   0.00000       0.00000    
     49611 TIP3     4681     SWM4     OM       LPDW     -1.11466       0.00000          -1   0.00000       0.00000    
     49612 TIP3     4681     SWM4     H1       HDW      0.557330       1.00800           0   0.00000       0.00000    
     49613 TIP3     4681     SWM4     H2       HDW      0.557330       1.00800           0   0.00000       0.00000    
     49614 TIP3     4682     SWM4     OH2      ODW       1.71640       15.5994           0 -0.978253       1.30000    
     49615 TIP3     4682     SWM4     DOH2     DOH2     -1.71640      0.400000           0   0.00000       0.00000    
     49616 TIP3     4682     SWM4     OM       LPDW     -1.11466       0.00000          -1   0.00000       0.00000    
     49617 TIP3     4682     SWM4     H1       HDW      0.557330       1.00800           0   0.00000       0.00000    
     49618 TIP3     4682     SWM4     H2       HDW      0.557330       1.00800           0   0.00000       0.00000    
     49619 TIP3     4683     SWM4     OH2      ODW       1.71640       15.5994           0 -0.978253       1.30000    
     49620 TIP3     4683     SWM4     DOH2     DOH2     -1.71640      0.400000           0   0.00000       0.00000    
     49621 TIP3     4683     SWM4     OM       LPDW     -1.11466       0.00000          -1   0.00000       0.00000    
     49622 TIP3     4683     SWM4     H1       HDW      0.557330       1.00800           0   0.00000       0.00000    
     49623 TIP3     4683     SWM4     H2       HDW      0.557330       1.00800           0   0.00000       0.00000    
     49624 TIP3     4684     SWM4     OH2      ODW       1.71640       15.5994           0 -0.978253       1.30000    
     49625 TIP3     4684     SWM4     DOH2     DOH2     -1.71640      0.400000           0   0.00000       0.00000    
     49626 TIP3     4684     SWM4     OM       LPDW     -1.11466       0.00000          -1   0.00000       0.00000    
     49627 TIP3     4684     SWM4     H1       HDW      0.557330       1.00800           0   0.00000       0.00000    
     49628 TIP3     4684     SWM4     H2       HDW      0.557330       1.00800           0   0.00000       0.00000    
     49629 TIP3     4685     SWM4     OH2      ODW       1.71640       15.5994           0 -0.978253       1.30000    
     49630 TIP3     4685     SWM4     DOH2     DOH2     -1.71640      0.400000           0   0.00000       0.00000    
     49631 TIP3     4685     SWM4     OM       LPDW     -1.11466       0.00000          -1   0.00000       0.00000    
     49632 TIP3     4685     SWM4     H1       HDW      0.557330       1.00800           0   0.00000       0.00000    
     49633 TIP3     4685     SWM4     H2       HDW      0.557330       1.00800           0   0.00000       0.00000    
     49634 TIP3     4686     SWM4     OH2      ODW       1.71640       15.5994           0 -0.978253       1.30000    
     49635 TIP3     4686     SWM4     DOH2     DOH2     -1.71640      0.400000           0   0.00000       0.00000    
     49636 TIP3     4686     SWM4     OM       LPDW     -1.11466       0.00000          -1   0.00000       0.00000    
     49637 TIP3     4686     SWM4     H1       HDW      0.557330       1.00800           0   0.00000       0.00000    
     49638 TIP3     4686     SWM4     H2       HDW      0.557330       1.00800           0   0.00000       0.00000    
     49639 TIP3     4687     SWM4     OH2      ODW       1.71640       15.5994           0 -0.978253       1.30000    
     49640 TIP3     4687     SWM4     DOH2     DOH2     -1.71640      0.400000           0   0.00000       0.00000    
     49641 TIP3     4687     SWM4     OM       LPDW     -1.11466       0.00000          -1   0.00000       0.00000    
     49642 TIP3     4687     SWM4     H1       HDW      0.557330       1.00800           0   0.00000       0.00000    
     49643 TIP3     4687     SWM4     H2       HDW      0.557330       1.00800           0   0.00000       0.00000    
     49644 TIP3     4688     SWM4     OH2      ODW       1.71640       15.5994           0 -0.978253       1.30000    
     49645 TIP3     4688     SWM4     DOH2     DOH2     -1.71640      0.400000           0   0.00000       0.00000    
     49646 TIP3     4688     SWM4     OM       LPDW     -1.11466       0.00000          -1   0.00000       0.00000    
     49647 TIP3     4688     SWM4     H1       HDW      0.557330       1.00800           0   0.00000       0.00000    
     49648 TIP3     4688     SWM4     H2       HDW      0.557330       1.00800           0   0.00000       0.00000    
     49649 TIP3     4689     SWM4     OH2      ODW       1.71640       15.5994           0 -0.978253       1.30000    
     49650 TIP3     4689     SWM4     DOH2     DOH2     -1.71640      0.400000           0   0.00000       0.00000    
     49651 TIP3     4689     SWM4     OM       LPDW     -1.11466       0.00000          -1   0.00000       0.00000    
     49652 TIP3     4689     SWM4     H1       HDW      0.557330       1.00800           0   0.00000       0.00000    
     49653 TIP3     4689     SWM4     H2       HDW      0.557330       1.00800           0   0.00000       0.00000    
     49654 TIP3     4690     SWM4     OH2      ODW       1.71640       15.5994           0 -0.978253       1.30000    
     49655 TIP3     4690     SWM4     DOH2     DOH2     -1.71640      0.400000           0   0.00000       0.00000    
     49656 TIP3     4690     SWM4     OM       LPDW     -1.11466       0.00000          -1   0.00000       0.00000    
     49657 TIP3     4690     SWM4     H1       HDW      0.557330       1.00800           0   0.00000       0.00000    
     49658 TIP3     4690     SWM4     H2       HDW      0.557330       1.00800           0   0.00000       0.00000    
     49659 TIP3     4691     SWM4     OH2      ODW       1.71640       15.5994           0 -0.978253       1.30000    
     49660 TIP3     4691     SWM4     DOH2     DOH2     -1.71640      0.400000           0   0.00000       0.00000    
     49661 TIP3     4691     SWM4     OM       LPDW     -1.11466       0.00000          -1   0.00000       0.00000    
     49662 TIP3     4691     SWM4     H1       HDW      0.557330       1.00800           0   0.00000       0.00000    
     49663 TIP3     4691     SWM4     H2       HDW      0.557330       1.00800           0   0.00000       0.00000    
     49664 TIP3     4692     SWM4     OH2      ODW       1.71640       15.5994           0 -0.978253       1.30000    
     49665 TIP3     4692     SWM4     DOH2     DOH2     -1.71640      0.400000           0   0.00000       0.00000    
     49666 TIP3     4692     SWM4     OM       LPDW     -1.11466       0.00000          -1   0.00000       0.00000    
     49667 TIP3     4692     SWM4     H1       HDW      0.557330       1.00800           0   0.00000       0.00000    
     49668 TIP3     4692     SWM4     H2       HDW      0.557330       1.00800           0   0.00000       0.00000    
     49669 TIP3     4693     SWM4     OH2      ODW       1.71640       15.5994           0 -0.978253       1.30000    
     49670 TIP3     4693     SWM4     DOH2     DOH2     -1.71640      0.400000           0   0.00000       0.00000    
     49671 TIP3     4693     SWM4     OM       LPDW     -1.11466       0.00000          -1   0.00000       0.00000    
     49672 TIP3     4693     SWM4     H1       HDW      0.557330       1.00800           0   0.00000       0.00000    
     49673 TIP3     4693     SWM4     H2       HDW      0.557330       1.00800           0   0.00000       0.00000    
     49674 TIP3     4694     SWM4     OH2      ODW       1.71640       15.5994           0 -0.978253       1.30000    
     49675 TIP3     4694     SWM4     DOH2     DOH2     -1.71640      0.400000           0   0.00000       0.00000    
     49676 TIP3     4694     SWM4     OM       LPDW     -1.11466       0.00000          -1   0.00000       0.00000    
     49677 TIP3     4694     SWM4     H1       HDW      0.557330       1.00800           0   0.00000       0.00000    
     49678 TIP3     4694     SWM4     H2       HDW      0.557330       1.00800           0   0.00000       0.00000    
     49679 TIP3     4695     SWM4     OH2      ODW       1.71640       15.5994           0 -0.978253       1.30000    
     49680 TIP3     4695     SWM4     DOH2     DOH2     -1.71640      0.400000           0   0.00000       0.00000    
     49681 TIP3     4695     SWM4     OM       LPDW     -1.11466       0.00000          -1   0.00000       0.00000    
     49682 TIP3     4695     SWM4     H1       HDW      0.557330       1.00800           0   0.00000       0.00000    
     49683 TIP3     4695     SWM4     H2       HDW      0.557330       1.00800           0   0.00000       0.00000    
     49684 TIP3     4696     SWM4     OH2      ODW       1.71640       15.5994           0 -0.978253       1.30000    
     49685 TIP3     4696     SWM4     DOH2     DOH2     -1.71640      0.400000           0   0.00000       0.00000    
     49686 TIP3     4696     SWM4     OM       LPDW     -1.11466       0.00000          -1   0.00000       0.00000    
     49687 TIP3     4696     SWM4     H1       HDW      0.557330       1.00800           0   0.00000       0.00000    
     49688 TIP3     4696     SWM4     H2       HDW      0.557330       1.00800           0   0.00000       0.00000    
     49689 TIP3     4697     SWM4     OH2      ODW       1.71640       15.5994           0 -0.978253       1.30000    
     49690 TIP3     4697     SWM4     DOH2     DOH2     -1.71640      0.400000           0   0.00000       0.00000    
     49691 TIP3     4697     SWM4     OM       LPDW     -1.11466       0.00000          -1   0.00000       0.00000    
     49692 TIP3     4697     SWM4     H1       HDW      0.557330       1.00800           0   0.00000       0.00000    
     49693 TIP3     4697     SWM4     H2       HDW      0.557330       1.00800           0   0.00000       0.00000    
     49694 TIP3     4698     SWM4     OH2      ODW       1.71640       15.5994           0 -0.978253       1.30000    
     49695 TIP3     4698     SWM4     DOH2     DOH2     -1.71640      0.400000           0   0.00000       0.00000    
     49696 TIP3     4698     SWM4     OM       LPDW     -1.11466       0.00000          -1   0.00000       0.00000    
     49697 TIP3     4698     SWM4     H1       HDW      0.557330       1.00800           0   0.00000       0.00000    
     49698 TIP3     4698     SWM4     H2       HDW      0.557330       1.00800           0   0.00000       0.00000    
     49699 TIP3     4699     SWM4     OH2      ODW       1.71640       15.5994           0 -0.978253       1.30000    
     49700 TIP3     4699     SWM4     DOH2     DOH2     -1.71640      0.400000           0   0.00000       0.00000    
     49701 TIP3     4699     SWM4     OM       LPDW     -1.11466       0.00000          -1   0.00000       0.00000    
     49702 TIP3     4699     SWM4     H1       HDW      0.557330       1.00800           0   0.00000       0.00000    
     49703 TIP3     4699     SWM4     H2       HDW      0.557330       1.00800           0   0.00000       0.00000    
     49704 TIP3     4700     SWM4     OH2      ODW       1.71640       15.5994           0 -0.978253       1.30000    
     49705 TIP3     4700     SWM4     DOH2     DOH2     -1.71640      0.400000           0   0.00000       0.00000    
     49706 TIP3     4700     SWM4     OM       LPDW     -1.11466       0.00000          -1   0.00000       0.00000    
     49707 TIP3     4700     SWM4     H1       HDW      0.557330       1.00800           0   0.00000       0.00000    
     49708 TIP3     4700     SWM4     H2       HDW      0.557330       1.00800           0   0.00000       0.00000    
     49709 TIP3     4701     SWM4     OH2      ODW       1.71640       15.5994           0 -0.978253       1.30000    
     49710 TIP3     4701     SWM4     DOH2     DOH2     -1.71640      0.400000           0   0.00000       0.00000    
     49711 TIP3     4701     SWM4     OM       LPDW     -1.11466       0.00000          -1   0.00000       0.00000    
     49712 TIP3     4701     SWM4     H1       HDW      0.557330       1.00800           0   0.00000       0.00000    
     49713 TIP3     4701     SWM4     H2       HDW      0.557330       1.00800           0   0.00000       0.00000    
     49714 TIP3     4702     SWM4     OH2      ODW       1.71640       15.5994           0 -0.978253       1.30000    
     49715 TIP3     4702     SWM4     DOH2     DOH2     -1.71640      0.400000           0   0.00000       0.00000    
     49716 TIP3     4702     SWM4     OM       LPDW     -1.11466       0.00000          -1   0.00000       0.00000    
     49717 TIP3     4702     SWM4     H1       HDW      0.557330       1.00800           0   0.00000       0.00000    
     49718 TIP3     4702     SWM4     H2       HDW      0.557330       1.00800           0   0.00000       0.00000    
     49719 TIP3     4703     SWM4     OH2      ODW       1.71640       15.5994           0 -0.978253       1.30000    
     49720 TIP3     4703     SWM4     DOH2     DOH2     -1.71640      0.400000           0   0.00000       0.00000    
     49721 TIP3     4703     SWM4     OM       LPDW     -1.11466       0.00000          -1   0.00000       0.00000    
     49722 TIP3     4703     SWM4     H1       HDW      0.557330       1.00800           0   0.00000       0.00000    
     49723 TIP3     4703     SWM4     H2       HDW      0.557330       1.00800           0   0.00000       0.00000    
     49724 TIP3     4704     SWM4     OH2      ODW       1.71640       15.5994           0 -0.978253       1.30000    
     49725 TIP3     4704     SWM4     DOH2     DOH2     -1.71640      0.400000           0   0.00000       0.00000    
     49726 TIP3     4704     SWM4     OM       LPDW     -1.11466       0.00000          -1   0.00000       0.00000    
     49727 TIP3     4704     SWM4     H1       HDW      0.557330       1.00800           0   0.00000       0.00000    
     49728 TIP3     4704     SWM4     H2       HDW      0.557330       1.00800           0   0.00000       0.00000    
     49729 TIP3     4705     SWM4     OH2      ODW       1.71640       15.5994           0 -0.978253       1.30000    
     49730 TIP3     4705     SWM4     DOH2     DOH2     -1.71640      0.400000           0   0.00000       0.00000    
     49731 TIP3     4705     SWM4     OM       LPDW     -1.11466       0.00000          -1   0.00000       0.00000    
     49732 TIP3     4705     SWM4     H1       HDW      0.557330       1.00800           0   0.00000       0.00000    
     49733 TIP3     4705     SWM4     H2       HDW      0.557330       1.00800           0   0.00000       0.00000    
     49734 TIP3     4706     SWM4     OH2      ODW       1.71640       15.5994           0 -0.978253       1.30000    
     49735 TIP3     4706     SWM4     DOH2     DOH2     -1.71640      0.400000           0   0.00000       0.00000    
     49736 TIP3     4706     SWM4     OM       LPDW     -1.11466       0.00000          -1   0.00000       0.00000    
     49737 TIP3     4706     SWM4     H1       HDW      0.557330       1.00800           0   0.00000       0.00000    
     49738 TIP3     4706     SWM4     H2       HDW      0.557330       1.00800           0   0.00000       0.00000    
     49739 TIP3     4707     SWM4     OH2      ODW       1.71640       15.5994           0 -0.978253       1.30000    
     49740 TIP3     4707     SWM4     DOH2     DOH2     -1.71640      0.400000           0   0.00000       0.00000    
     49741 TIP3     4707     SWM4     OM       LPDW     -1.11466       0.00000          -1   0.00000       0.00000    
     49742 TIP3     4707     SWM4     H1       HDW      0.557330       1.00800           0   0.00000       0.00000    
     49743 TIP3     4707     SWM4     H2       HDW      0.557330       1.00800           0   0.00000       0.00000    
     49744 TIP3     4708     SWM4     OH2      ODW       1.71640       15.5994           0 -0.978253       1.30000    
     49745 TIP3     4708     SWM4     DOH2     DOH2     -1.71640      0.400000           0   0.00000       0.00000    
     49746 TIP3     4708     SWM4     OM       LPDW     -1.11466       0.00000          -1   0.00000       0.00000    
     49747 TIP3     4708     SWM4     H1       HDW      0.557330       1.00800           0   0.00000       0.00000    
     49748 TIP3     4708     SWM4     H2       HDW      0.557330       1.00800           0   0.00000       0.00000    
     49749 TIP3     4709     SWM4     OH2      ODW       1.71640       15.5994           0 -0.978253       1.30000    
     49750 TIP3     4709     SWM4     DOH2     DOH2     -1.71640      0.400000           0   0.00000       0.00000    
     49751 TIP3     4709     SWM4     OM       LPDW     -1.11466       0.00000          -1   0.00000       0.00000    
     49752 TIP3     4709     SWM4     H1       HDW      0.557330       1.00800           0   0.00000       0.00000    
     49753 TIP3     4709     SWM4     H2       HDW      0.557330       1.00800           0   0.00000       0.00000    
     49754 TIP3     4710     SWM4     OH2      ODW       1.71640       15.5994           0 -0.978253       1.30000    
     49755 TIP3     4710     SWM4     DOH2     DOH2     -1.71640      0.400000           0   0.00000       0.00000    
     49756 TIP3     4710     SWM4     OM       LPDW     -1.11466       0.00000          -1   0.00000       0.00000    
     49757 TIP3     4710     SWM4     H1       HDW      0.557330       1.00800           0   0.00000       0.00000    
     49758 TIP3     4710     SWM4     H2       HDW      0.557330       1.00800           0   0.00000       0.00000    
     49759 TIP3     4711     SWM4     OH2      ODW       1.71640       15.5994           0 -0.978253       1.30000    
     49760 TIP3     4711     SWM4     DOH2     DOH2     -1.71640      0.400000           0   0.00000       0.00000    
     49761 TIP3     4711     SWM4     OM       LPDW     -1.11466       0.00000          -1   0.00000       0.00000    
     49762 TIP3     4711     SWM4     H1       HDW      0.557330       1.00800           0   0.00000       0.00000    
     49763 TIP3     4711     SWM4     H2       HDW      0.557330       1.00800           0   0.00000       0.00000    
     49764 TIP3     4712     SWM4     OH2      ODW       1.71640       15.5994           0 -0.978253       1.30000    
     49765 TIP3     4712     SWM4     DOH2     DOH2     -1.71640      0.400000           0   0.00000       0.00000    
     49766 TIP3     4712     SWM4     OM       LPDW     -1.11466       0.00000          -1   0.00000       0.00000    
     49767 TIP3     4712     SWM4     H1       HDW      0.557330       1.00800           0   0.00000       0.00000    
     49768 TIP3     4712     SWM4     H2       HDW      0.557330       1.00800           0   0.00000       0.00000    
     49769 TIP3     4713     SWM4     OH2      ODW       1.71640       15.5994           0 -0.978253       1.30000    
     49770 TIP3     4713     SWM4     DOH2     DOH2     -1.71640      0.400000           0   0.00000       0.00000    
     49771 TIP3     4713     SWM4     OM       LPDW     -1.11466       0.00000          -1   0.00000       0.00000    
     49772 TIP3     4713     SWM4     H1       HDW      0.557330       1.00800           0   0.00000       0.00000    
     49773 TIP3     4713     SWM4     H2       HDW      0.557330       1.00800           0   0.00000       0.00000    
     49774 TIP3     4714     SWM4     OH2      ODW       1.71640       15.5994           0 -0.978253       1.30000    
     49775 TIP3     4714     SWM4     DOH2     DOH2     -1.71640      0.400000           0   0.00000       0.00000    
     49776 TIP3     4714     SWM4     OM       LPDW     -1.11466       0.00000          -1   0.00000       0.00000    
     49777 TIP3     4714     SWM4     H1       HDW      0.557330       1.00800           0   0.00000       0.00000    
     49778 TIP3     4714     SWM4     H2       HDW      0.557330       1.00800           0   0.00000       0.00000    
     49779 TIP3     4715     SWM4     OH2      ODW       1.71640       15.5994           0 -0.978253       1.30000    
     49780 TIP3     4715     SWM4     DOH2     DOH2     -1.71640      0.400000           0   0.00000       0.00000    
     49781 TIP3     4715     SWM4     OM       LPDW     -1.11466       0.00000          -1   0.00000       0.00000    
     49782 TIP3     4715     SWM4     H1       HDW      0.557330       1.00800           0   0.00000       0.00000    
     49783 TIP3     4715     SWM4     H2       HDW      0.557330       1.00800           0   0.00000       0.00000    
     49784 TIP3     4716     SWM4     OH2      ODW       1.71640       15.5994           0 -0.978253       1.30000    
     49785 TIP3     4716     SWM4     DOH2     DOH2     -1.71640      0.400000           0   0.00000       0.00000    
     49786 TIP3     4716     SWM4     OM       LPDW     -1.11466       0.00000          -1   0.00000       0.00000    
     49787 TIP3     4716     SWM4     H1       HDW      0.557330       1.00800           0   0.00000       0.00000    
     49788 TIP3     4716     SWM4     H2       HDW      0.557330       1.00800           0   0.00000       0.00000    
     49789 TIP3     4717     SWM4     OH2      ODW       1.71640       15.5994           0 -0.978253       1.30000    
     49790 TIP3     4717     SWM4     DOH2     DOH2     -1.71640      0.400000           0   0.00000       0.00000    
     49791 TIP3     4717     SWM4     OM       LPDW     -1.11466       0.00000          -1   0.00000       0.00000    
     49792 TIP3     4717     SWM4     H1       HDW      0.557330       1.00800           0   0.00000       0.00000    
     49793 TIP3     4717     SWM4     H2       HDW      0.557330       1.00800           0   0.00000       0.00000    
     49794 TIP3     4718     SWM4     OH2      ODW       1.71640       15.5994           0 -0.978253       1.30000    
     49795 TIP3     4718     SWM4     DOH2     DOH2     -1.71640      0.400000           0   0.00000       0.00000    
     49796 TIP3     4718     SWM4     OM       LPDW     -1.11466       0.00000          -1   0.00000       0.00000    
     49797 TIP3     4718     SWM4     H1       HDW      0.557330       1.00800           0   0.00000       0.00000    
     49798 TIP3     4718     SWM4     H2       HDW      0.557330       1.00800           0   0.00000       0.00000    
     49799 TIP3     4719     SWM4     OH2      ODW       1.71640       15.5994           0 -0.978253       1.30000    
     49800 TIP3     4719     SWM4     DOH2     DOH2     -1.71640      0.400000           0   0.00000       0.00000    
     49801 TIP3     4719     SWM4     OM       LPDW     -1.11466       0.00000          -1   0.00000       0.00000    
     49802 TIP3     4719     SWM4     H1       HDW      0.557330       1.00800           0   0.00000       0.00000    
     49803 TIP3     4719     SWM4     H2       HDW      0.557330       1.00800           0   0.00000       0.00000    
     49804 TIP3     4720     SWM4     OH2      ODW       1.71640       15.5994           0 -0.978253       1.30000    
     49805 TIP3     4720     SWM4     DOH2     DOH2     -1.71640      0.400000           0   0.00000       0.00000    
     49806 TIP3     4720     SWM4     OM       LPDW     -1.11466       0.00000          -1   0.00000       0.00000    
     49807 TIP3     4720     SWM4     H1       HDW      0.557330       1.00800           0   0.00000       0.00000    
     49808 TIP3     4720     SWM4     H2       HDW      0.557330       1.00800           0   0.00000       0.00000    
     49809 TIP3     4721     SWM4     OH2      ODW       1.71640       15.5994           0 -0.978253       1.30000    
     49810 TIP3     4721     SWM4     DOH2     DOH2     -1.71640      0.400000           0   0.00000       0.00000    
     49811 TIP3     4721     SWM4     OM       LPDW     -1.11466       0.00000          -1   0.00000       0.00000    
     49812 TIP3     4721     SWM4     H1       HDW      0.557330       1.00800           0   0.00000       0.00000    
     49813 TIP3     4721     SWM4     H2       HDW      0.557330       1.00800           0   0.00000       0.00000    
     49814 TIP3     4722     SWM4     OH2      ODW       1.71640       15.5994           0 -0.978253       1.30000    
     49815 TIP3     4722     SWM4     DOH2     DOH2     -1.71640      0.400000           0   0.00000       0.00000    
     49816 TIP3     4722     SWM4     OM       LPDW     -1.11466       0.00000          -1   0.00000       0.00000    
     49817 TIP3     4722     SWM4     H1       HDW      0.557330       1.00800           0   0.00000       0.00000    
     49818 TIP3     4722     SWM4     H2       HDW      0.557330       1.00800           0   0.00000       0.00000    
     49819 TIP3     4723     SWM4     OH2      ODW       1.71640       15.5994           0 -0.978253       1.30000    
     49820 TIP3     4723     SWM4     DOH2     DOH2     -1.71640      0.400000           0   0.00000       0.00000    
     49821 TIP3     4723     SWM4     OM       LPDW     -1.11466       0.00000          -1   0.00000       0.00000    
     49822 TIP3     4723     SWM4     H1       HDW      0.557330       1.00800           0   0.00000       0.00000    
     49823 TIP3     4723     SWM4     H2       HDW      0.557330       1.00800           0   0.00000       0.00000    
     49824 TIP3     4724     SWM4     OH2      ODW       1.71640       15.5994           0 -0.978253       1.30000    
     49825 TIP3     4724     SWM4     DOH2     DOH2     -1.71640      0.400000           0   0.00000       0.00000    
     49826 TIP3     4724     SWM4     OM       LPDW     -1.11466       0.00000          -1   0.00000       0.00000    
     49827 TIP3     4724     SWM4     H1       HDW      0.557330       1.00800           0   0.00000       0.00000    
     49828 TIP3     4724     SWM4     H2       HDW      0.557330       1.00800           0   0.00000       0.00000    
     49829 TIP3     4725     SWM4     OH2      ODW       1.71640       15.5994           0 -0.978253       1.30000    
     49830 TIP3     4725     SWM4     DOH2     DOH2     -1.71640      0.400000           0   0.00000       0.00000    
     49831 TIP3     4725     SWM4     OM       LPDW     -1.11466       0.00000          -1   0.00000       0.00000    
     49832 TIP3     4725     SWM4     H1       HDW      0.557330       1.00800           0   0.00000       0.00000    
     49833 TIP3     4725     SWM4     H2       HDW      0.557330       1.00800           0   0.00000       0.00000    
     49834 TIP3     4726     SWM4     OH2      ODW       1.71640       15.5994           0 -0.978253       1.30000    
     49835 TIP3     4726     SWM4     DOH2     DOH2     -1.71640      0.400000           0   0.00000       0.00000    
     49836 TIP3     4726     SWM4     OM       LPDW     -1.11466       0.00000          -1   0.00000       0.00000    
     49837 TIP3     4726     SWM4     H1       HDW      0.557330       1.00800           0   0.00000       0.00000    
     49838 TIP3     4726     SWM4     H2       HDW      0.557330       1.00800           0   0.00000       0.00000    
     49839 TIP3     4727     SWM4     OH2      ODW       1.71640       15.5994           0 -0.978253       1.30000    
     49840 TIP3     4727     SWM4     DOH2     DOH2     -1.71640      0.400000           0   0.00000       0.00000    
     49841 TIP3     4727     SWM4     OM       LPDW     -1.11466       0.00000          -1   0.00000       0.00000    
     49842 TIP3     4727     SWM4     H1       HDW      0.557330       1.00800           0   0.00000       0.00000    
     49843 TIP3     4727     SWM4     H2       HDW      0.557330       1.00800           0   0.00000       0.00000    
     49844 TIP3     4728     SWM4     OH2      ODW       1.71640       15.5994           0 -0.978253       1.30000    
     49845 TIP3     4728     SWM4     DOH2     DOH2     -1.71640      0.400000           0   0.00000       0.00000    
     49846 TIP3     4728     SWM4     OM       LPDW     -1.11466       0.00000          -1   0.00000       0.00000    
     49847 TIP3     4728     SWM4     H1       HDW      0.557330       1.00800           0   0.00000       0.00000    
     49848 TIP3     4728     SWM4     H2       HDW      0.557330       1.00800           0   0.00000       0.00000    
     49849 TIP3     4729     SWM4     OH2      ODW       1.71640       15.5994           0 -0.978253       1.30000    
     49850 TIP3     4729     SWM4     DOH2     DOH2     -1.71640      0.400000           0   0.00000       0.00000    
     49851 TIP3     4729     SWM4     OM       LPDW     -1.11466       0.00000          -1   0.00000       0.00000    
     49852 TIP3     4729     SWM4     H1       HDW      0.557330       1.00800           0   0.00000       0.00000    
     49853 TIP3     4729     SWM4     H2       HDW      0.557330       1.00800           0   0.00000       0.00000    
     49854 TIP3     4730     SWM4     OH2      ODW       1.71640       15.5994           0 -0.978253       1.30000    
     49855 TIP3     4730     SWM4     DOH2     DOH2     -1.71640      0.400000           0   0.00000       0.00000    
     49856 TIP3     4730     SWM4     OM       LPDW     -1.11466       0.00000          -1   0.00000       0.00000    
     49857 TIP3     4730     SWM4     H1       HDW      0.557330       1.00800           0   0.00000       0.00000    
     49858 TIP3     4730     SWM4     H2       HDW      0.557330       1.00800           0   0.00000       0.00000    
     49859 TIP3     4731     SWM4     OH2      ODW       1.71640       15.5994           0 -0.978253       1.30000    
     49860 TIP3     4731     SWM4     DOH2     DOH2     -1.71640      0.400000           0   0.00000       0.00000    
     49861 TIP3     4731     SWM4     OM       LPDW     -1.11466       0.00000          -1   0.00000       0.00000    
     49862 TIP3     4731     SWM4     H1       HDW      0.557330       1.00800           0   0.00000       0.00000    
     49863 TIP3     4731     SWM4     H2       HDW      0.557330       1.00800           0   0.00000       0.00000    
     49864 TIP3     4732     SWM4     OH2      ODW       1.71640       15.5994           0 -0.978253       1.30000    
     49865 TIP3     4732     SWM4     DOH2     DOH2     -1.71640      0.400000           0   0.00000       0.00000    
     49866 TIP3     4732     SWM4     OM       LPDW     -1.11466       0.00000          -1   0.00000       0.00000    
     49867 TIP3     4732     SWM4     H1       HDW      0.557330       1.00800           0   0.00000       0.00000    
     49868 TIP3     4732     SWM4     H2       HDW      0.557330       1.00800           0   0.00000       0.00000    
     49869 TIP3     4733     SWM4     OH2      ODW       1.71640       15.5994           0 -0.978253       1.30000    
     49870 TIP3     4733     SWM4     DOH2     DOH2     -1.71640      0.400000           0   0.00000       0.00000    
     49871 TIP3     4733     SWM4     OM       LPDW     -1.11466       0.00000          -1   0.00000       0.00000    
     49872 TIP3     4733     SWM4     H1       HDW      0.557330       1.00800           0   0.00000       0.00000    
     49873 TIP3     4733     SWM4     H2       HDW      0.557330       1.00800           0   0.00000       0.00000    
     49874 TIP3     4734     SWM4     OH2      ODW       1.71640       15.5994           0 -0.978253       1.30000    
     49875 TIP3     4734     SWM4     DOH2     DOH2     -1.71640      0.400000           0   0.00000       0.00000    
     49876 TIP3     4734     SWM4     OM       LPDW     -1.11466       0.00000          -1   0.00000       0.00000    
     49877 TIP3     4734     SWM4     H1       HDW      0.557330       1.00800           0   0.00000       0.00000    
     49878 TIP3     4734     SWM4     H2       HDW      0.557330       1.00800           0   0.00000       0.00000    
     49879 TIP3     4735     SWM4     OH2      ODW       1.71640       15.5994           0 -0.978253       1.30000    
     49880 TIP3     4735     SWM4     DOH2     DOH2     -1.71640      0.400000           0   0.00000       0.00000    
     49881 TIP3     4735     SWM4     OM       LPDW     -1.11466       0.00000          -1   0.00000       0.00000    
     49882 TIP3     4735     SWM4     H1       HDW      0.557330       1.00800           0   0.00000       0.00000    
     49883 TIP3     4735     SWM4     H2       HDW      0.557330       1.00800           0   0.00000       0.00000    
     49884 TIP3     4736     SWM4     OH2      ODW       1.71640       15.5994           0 -0.978253       1.30000    
     49885 TIP3     4736     SWM4     DOH2     DOH2     -1.71640      0.400000           0   0.00000       0.00000    
     49886 TIP3     4736     SWM4     OM       LPDW     -1.11466       0.00000          -1   0.00000       0.00000    
     49887 TIP3     4736     SWM4     H1       HDW      0.557330       1.00800           0   0.00000       0.00000    
     49888 TIP3     4736     SWM4     H2       HDW      0.557330       1.00800           0   0.00000       0.00000    
     49889 TIP3     4737     SWM4     OH2      ODW       1.71640       15.5994           0 -0.978253       1.30000    
     49890 TIP3     4737     SWM4     DOH2     DOH2     -1.71640      0.400000           0   0.00000       0.00000    
     49891 TIP3     4737     SWM4     OM       LPDW     -1.11466       0.00000          -1   0.00000       0.00000    
     49892 TIP3     4737     SWM4     H1       HDW      0.557330       1.00800           0   0.00000       0.00000    
     49893 TIP3     4737     SWM4     H2       HDW      0.557330       1.00800           0   0.00000       0.00000    
     49894 TIP3     4738     SWM4     OH2      ODW       1.71640       15.5994           0 -0.978253       1.30000    
     49895 TIP3     4738     SWM4     DOH2     DOH2     -1.71640      0.400000           0   0.00000       0.00000    
     49896 TIP3     4738     SWM4     OM       LPDW     -1.11466       0.00000          -1   0.00000       0.00000    
     49897 TIP3     4738     SWM4     H1       HDW      0.557330       1.00800           0   0.00000       0.00000    
     49898 TIP3     4738     SWM4     H2       HDW      0.557330       1.00800           0   0.00000       0.00000    
     49899 TIP3     4739     SWM4     OH2      ODW       1.71640       15.5994           0 -0.978253       1.30000    
     49900 TIP3     4739     SWM4     DOH2     DOH2     -1.71640      0.400000           0   0.00000       0.00000    
     49901 TIP3     4739     SWM4     OM       LPDW     -1.11466       0.00000          -1   0.00000       0.00000    
     49902 TIP3     4739     SWM4     H1       HDW      0.557330       1.00800           0   0.00000       0.00000    
     49903 TIP3     4739     SWM4     H2       HDW      0.557330       1.00800           0   0.00000       0.00000    
     49904 TIP3     4740     SWM4     OH2      ODW       1.71640       15.5994           0 -0.978253       1.30000    
     49905 TIP3     4740     SWM4     DOH2     DOH2     -1.71640      0.400000           0   0.00000       0.00000    
     49906 TIP3     4740     SWM4     OM       LPDW     -1.11466       0.00000          -1   0.00000       0.00000    
     49907 TIP3     4740     SWM4     H1       HDW      0.557330       1.00800           0   0.00000       0.00000    
     49908 TIP3     4740     SWM4     H2       HDW      0.557330       1.00800           0   0.00000       0.00000    
     49909 TIP3     4741     SWM4     OH2      ODW       1.71640       15.5994           0 -0.978253       1.30000    
     49910 TIP3     4741     SWM4     DOH2     DOH2     -1.71640      0.400000           0   0.00000       0.00000    
     49911 TIP3     4741     SWM4     OM       LPDW     -1.11466       0.00000          -1   0.00000       0.00000    
     49912 TIP3     4741     SWM4     H1       HDW      0.557330       1.00800           0   0.00000       0.00000    
     49913 TIP3     4741     SWM4     H2       HDW      0.557330       1.00800           0   0.00000       0.00000    
     49914 TIP3     4742     SWM4     OH2      ODW       1.71640       15.5994           0 -0.978253       1.30000    
     49915 TIP3     4742     SWM4     DOH2     DOH2     -1.71640      0.400000           0   0.00000       0.00000    
     49916 TIP3     4742     SWM4     OM       LPDW     -1.11466       0.00000          -1   0.00000       0.00000    
     49917 TIP3     4742     SWM4     H1       HDW      0.557330       1.00800           0   0.00000       0.00000    
     49918 TIP3     4742     SWM4     H2       HDW      0.557330       1.00800           0   0.00000       0.00000    
     49919 TIP3     4743     SWM4     OH2      ODW       1.71640       15.5994           0 -0.978253       1.30000    
     49920 TIP3     4743     SWM4     DOH2     DOH2     -1.71640      0.400000           0   0.00000       0.00000    
     49921 TIP3     4743     SWM4     OM       LPDW     -1.11466       0.00000          -1   0.00000       0.00000    
     49922 TIP3     4743     SWM4     H1       HDW      0.557330       1.00800           0   0.00000       0.00000    
     49923 TIP3     4743     SWM4     H2       HDW      0.557330       1.00800           0   0.00000       0.00000    
     49924 TIP3     4744     SWM4     OH2      ODW       1.71640       15.5994           0 -0.978253       1.30000    
     49925 TIP3     4744     SWM4     DOH2     DOH2     -1.71640      0.400000           0   0.00000       0.00000    
     49926 TIP3     4744     SWM4     OM       LPDW     -1.11466       0.00000          -1   0.00000       0.00000    
     49927 TIP3     4744     SWM4     H1       HDW      0.557330       1.00800           0   0.00000       0.00000    
     49928 TIP3     4744     SWM4     H2       HDW      0.557330       1.00800           0   0.00000       0.00000    
     49929 TIP3     4745     SWM4     OH2      ODW       1.71640       15.5994           0 -0.978253       1.30000    
     49930 TIP3     4745     SWM4     DOH2     DOH2     -1.71640      0.400000           0   0.00000       0.00000    
     49931 TIP3     4745     SWM4     OM       LPDW     -1.11466       0.00000          -1   0.00000       0.00000    
     49932 TIP3     4745     SWM4     H1       HDW      0.557330       1.00800           0   0.00000       0.00000    
     49933 TIP3     4745     SWM4     H2       HDW      0.557330       1.00800           0   0.00000       0.00000    
     49934 TIP3     4746     SWM4     OH2      ODW       1.71640       15.5994           0 -0.978253       1.30000    
     49935 TIP3     4746     SWM4     DOH2     DOH2     -1.71640      0.400000           0   0.00000       0.00000    
     49936 TIP3     4746     SWM4     OM       LPDW     -1.11466       0.00000          -1   0.00000       0.00000    
     49937 TIP3     4746     SWM4     H1       HDW      0.557330       1.00800           0   0.00000       0.00000    
     49938 TIP3     4746     SWM4     H2       HDW      0.557330       1.00800           0   0.00000       0.00000    
     49939 TIP3     4747     SWM4     OH2      ODW       1.71640       15.5994           0 -0.978253       1.30000    
     49940 TIP3     4747     SWM4     DOH2     DOH2     -1.71640      0.400000           0   0.00000       0.00000    
     49941 TIP3     4747     SWM4     OM       LPDW     -1.11466       0.00000          -1   0.00000       0.00000    
     49942 TIP3     4747     SWM4     H1       HDW      0.557330       1.00800           0   0.00000       0.00000    
     49943 TIP3     4747     SWM4     H2       HDW      0.557330       1.00800           0   0.00000       0.00000    
     49944 TIP3     4748     SWM4     OH2      ODW       1.71640       15.5994           0 -0.978253       1.30000    
     49945 TIP3     4748     SWM4     DOH2     DOH2     -1.71640      0.400000           0   0.00000       0.00000    
     49946 TIP3     4748     SWM4     OM       LPDW     -1.11466       0.00000          -1   0.00000       0.00000    
     49947 TIP3     4748     SWM4     H1       HDW      0.557330       1.00800           0   0.00000       0.00000    
     49948 TIP3     4748     SWM4     H2       HDW      0.557330       1.00800           0   0.00000       0.00000    
     49949 TIP3     4749     SWM4     OH2      ODW       1.71640       15.5994           0 -0.978253       1.30000    
     49950 TIP3     4749     SWM4     DOH2     DOH2     -1.71640      0.400000           0   0.00000       0.00000    
     49951 TIP3     4749     SWM4     OM       LPDW     -1.11466       0.00000          -1   0.00000       0.00000    
     49952 TIP3     4749     SWM4     H1       HDW      0.557330       1.00800           0   0.00000       0.00000    
     49953 TIP3     4749     SWM4     H2       HDW      0.557330       1.00800           0   0.00000       0.00000    
     49954 TIP3     4750     SWM4     OH2      ODW       1.71640       15.5994           0 -0.978253       1.30000    
     49955 TIP3     4750     SWM4     DOH2     DOH2     -1.71640      0.400000           0   0.00000       0.00000    
     49956 TIP3     4750     SWM4     OM       LPDW     -1.11466       0.00000          -1   0.00000       0.00000    
     49957 TIP3     4750     SWM4     H1       HDW      0.557330       1.00800           0   0.00000       0.00000    
     49958 TIP3     4750     SWM4     H2       HDW      0.557330       1.00800           0   0.00000       0.00000    
     49959 TIP3     4751     SWM4     OH2      ODW       1.71640       15.5994           0 -0.978253       1.30000    
     49960 TIP3     4751     SWM4     DOH2     DOH2     -1.71640      0.400000           0   0.00000       0.00000    
     49961 TIP3     4751     SWM4     OM       LPDW     -1.11466       0.00000          -1   0.00000       0.00000    
     49962 TIP3     4751     SWM4     H1       HDW      0.557330       1.00800           0   0.00000       0.00000    
     49963 TIP3     4751     SWM4     H2       HDW      0.557330       1.00800           0   0.00000       0.00000    
     49964 TIP3     4752     SWM4     OH2      ODW       1.71640       15.5994           0 -0.978253       1.30000    
     49965 TIP3     4752     SWM4     DOH2     DOH2     -1.71640      0.400000           0   0.00000       0.00000    
     49966 TIP3     4752     SWM4     OM       LPDW     -1.11466       0.00000          -1   0.00000       0.00000    
     49967 TIP3     4752     SWM4     H1       HDW      0.557330       1.00800           0   0.00000       0.00000    
     49968 TIP3     4752     SWM4     H2       HDW      0.557330       1.00800           0   0.00000       0.00000    
     49969 TIP3     4753     SWM4     OH2      ODW       1.71640       15.5994           0 -0.978253       1.30000    
     49970 TIP3     4753     SWM4     DOH2     DOH2     -1.71640      0.400000           0   0.00000       0.00000    
     49971 TIP3     4753     SWM4     OM       LPDW     -1.11466       0.00000          -1   0.00000       0.00000    
     49972 TIP3     4753     SWM4     H1       HDW      0.557330       1.00800           0   0.00000       0.00000    
     49973 TIP3     4753     SWM4     H2       HDW      0.557330       1.00800           0   0.00000       0.00000    
     49974 TIP3     4754     SWM4     OH2      ODW       1.71640       15.5994           0 -0.978253       1.30000    
     49975 TIP3     4754     SWM4     DOH2     DOH2     -1.71640      0.400000           0   0.00000       0.00000    
     49976 TIP3     4754     SWM4     OM       LPDW     -1.11466       0.00000          -1   0.00000       0.00000    
     49977 TIP3     4754     SWM4     H1       HDW      0.557330       1.00800           0   0.00000       0.00000    
     49978 TIP3     4754     SWM4     H2       HDW      0.557330       1.00800           0   0.00000       0.00000    
     49979 TIP3     4755     SWM4     OH2      ODW       1.71640       15.5994           0 -0.978253       1.30000    
     49980 TIP3     4755     SWM4     DOH2     DOH2     -1.71640      0.400000           0   0.00000       0.00000    
     49981 TIP3     4755     SWM4     OM       LPDW     -1.11466       0.00000          -1   0.00000       0.00000    
     49982 TIP3     4755     SWM4     H1       HDW      0.557330       1.00800           0   0.00000       0.00000    
     49983 TIP3     4755     SWM4     H2       HDW      0.557330       1.00800           0   0.00000       0.00000    
     49984 TIP3     4756     SWM4     OH2      ODW       1.71640       15.5994           0 -0.978253       1.30000    
     49985 TIP3     4756     SWM4     DOH2     DOH2     -1.71640      0.400000           0   0.00000       0.00000    
     49986 TIP3     4756     SWM4     OM       LPDW     -1.11466       0.00000          -1   0.00000       0.00000    
     49987 TIP3     4756     SWM4     H1       HDW      0.557330       1.00800           0   0.00000       0.00000    
     49988 TIP3     4756     SWM4     H2       HDW      0.557330       1.00800           0   0.00000       0.00000    
     49989 TIP3     4757     SWM4     OH2      ODW       1.71640       15.5994           0 -0.978253       1.30000    
     49990 TIP3     4757     SWM4     DOH2     DOH2     -1.71640      0.400000           0   0.00000       0.00000    
     49991 TIP3     4757     SWM4     OM       LPDW     -1.11466       0.00000          -1   0.00000       0.00000    
     49992 TIP3     4757     SWM4     H1       HDW      0.557330       1.00800           0   0.00000       0.00000    
     49993 TIP3     4757     SWM4     H2       HDW      0.557330       1.00800           0   0.00000       0.00000    
     49994 TIP3     4758     SWM4     OH2      ODW       1.71640       15.5994           0 -0.978253       1.30000    
     49995 TIP3     4758     SWM4     DOH2     DOH2     -1.71640      0.400000           0   0.00000       0.00000    
     49996 TIP3     4758     SWM4     OM       LPDW     -1.11466       0.00000          -1   0.00000       0.00000    
     49997 TIP3     4758     SWM4     H1       HDW      0.557330       1.00800           0   0.00000       0.00000    
     49998 TIP3     4758     SWM4     H2       HDW      0.557330       1.00800           0   0.00000       0.00000    
     49999 TIP3     4759     SWM4     OH2      ODW       1.71640       15.5994           0 -0.978253       1.30000    
     50000 TIP3     4759     SWM4     DOH2     DOH2     -1.71640      0.400000           0   0.00000       0.00000    
     50001 TIP3     4759     SWM4     OM       LPDW     -1.11466       0.00000          -1   0.00000       0.00000    
     50002 TIP3     4759     SWM4     H1       HDW      0.557330       1.00800           0   0.00000       0.00000    
     50003 TIP3     4759     SWM4     H2       HDW      0.557330       1.00800           0   0.00000       0.00000    
     50004 TIP3     4760     SWM4     OH2      ODW       1.71640       15.5994           0 -0.978253       1.30000    
     50005 TIP3     4760     SWM4     DOH2     DOH2     -1.71640      0.400000           0   0.00000       0.00000    
     50006 TIP3     4760     SWM4     OM       LPDW     -1.11466       0.00000          -1   0.00000       0.00000    
     50007 TIP3     4760     SWM4     H1       HDW      0.557330       1.00800           0   0.00000       0.00000    
     50008 TIP3     4760     SWM4     H2       HDW      0.557330       1.00800           0   0.00000       0.00000    
     50009 TIP3     4761     SWM4     OH2      ODW       1.71640       15.5994           0 -0.978253       1.30000    
     50010 TIP3     4761     SWM4     DOH2     DOH2     -1.71640      0.400000           0   0.00000       0.00000    
     50011 TIP3     4761     SWM4     OM       LPDW     -1.11466       0.00000          -1   0.00000       0.00000    
     50012 TIP3     4761     SWM4     H1       HDW      0.557330       1.00800           0   0.00000       0.00000    
     50013 TIP3     4761     SWM4     H2       HDW      0.557330       1.00800           0   0.00000       0.00000    
     50014 TIP3     4762     SWM4     OH2      ODW       1.71640       15.5994           0 -0.978253       1.30000    
     50015 TIP3     4762     SWM4     DOH2     DOH2     -1.71640      0.400000           0   0.00000       0.00000    
     50016 TIP3     4762     SWM4     OM       LPDW     -1.11466       0.00000          -1   0.00000       0.00000    
     50017 TIP3     4762     SWM4     H1       HDW      0.557330       1.00800           0   0.00000       0.00000    
     50018 TIP3     4762     SWM4     H2       HDW      0.557330       1.00800           0   0.00000       0.00000    
     50019 TIP3     4763     SWM4     OH2      ODW       1.71640       15.5994           0 -0.978253       1.30000    
     50020 TIP3     4763     SWM4     DOH2     DOH2     -1.71640      0.400000           0   0.00000       0.00000    
     50021 TIP3     4763     SWM4     OM       LPDW     -1.11466       0.00000          -1   0.00000       0.00000    
     50022 TIP3     4763     SWM4     H1       HDW      0.557330       1.00800           0   0.00000       0.00000    
     50023 TIP3     4763     SWM4     H2       HDW      0.557330       1.00800           0   0.00000       0.00000    
     50024 TIP3     4764     SWM4     OH2      ODW       1.71640       15.5994           0 -0.978253       1.30000    
     50025 TIP3     4764     SWM4     DOH2     DOH2     -1.71640      0.400000           0   0.00000       0.00000    
     50026 TIP3     4764     SWM4     OM       LPDW     -1.11466       0.00000          -1   0.00000       0.00000    
     50027 TIP3     4764     SWM4     H1       HDW      0.557330       1.00800           0   0.00000       0.00000    
     50028 TIP3     4764     SWM4     H2       HDW      0.557330       1.00800           0   0.00000       0.00000    
     50029 TIP3     4765     SWM4     OH2      ODW       1.71640       15.5994           0 -0.978253       1.30000    
     50030 TIP3     4765     SWM4     DOH2     DOH2     -1.71640      0.400000           0   0.00000       0.00000    
     50031 TIP3     4765     SWM4     OM       LPDW     -1.11466       0.00000          -1   0.00000       0.00000    
     50032 TIP3     4765     SWM4     H1       HDW      0.557330       1.00800           0   0.00000       0.00000    
     50033 TIP3     4765     SWM4     H2       HDW      0.557330       1.00800           0   0.00000       0.00000    
     50034 TIP3     4766     SWM4     OH2      ODW       1.71640       15.5994           0 -0.978253       1.30000    
     50035 TIP3     4766     SWM4     DOH2     DOH2     -1.71640      0.400000           0   0.00000       0.00000    
     50036 TIP3     4766     SWM4     OM       LPDW     -1.11466       0.00000          -1   0.00000       0.00000    
     50037 TIP3     4766     SWM4     H1       HDW      0.557330       1.00800           0   0.00000       0.00000    
     50038 TIP3     4766     SWM4     H2       HDW      0.557330       1.00800           0   0.00000       0.00000    
     50039 TIP3     4767     SWM4     OH2      ODW       1.71640       15.5994           0 -0.978253       1.30000    
     50040 TIP3     4767     SWM4     DOH2     DOH2     -1.71640      0.400000           0   0.00000       0.00000    
     50041 TIP3     4767     SWM4     OM       LPDW     -1.11466       0.00000          -1   0.00000       0.00000    
     50042 TIP3     4767     SWM4     H1       HDW      0.557330       1.00800           0   0.00000       0.00000    
     50043 TIP3     4767     SWM4     H2       HDW      0.557330       1.00800           0   0.00000       0.00000    
     50044 TIP3     4768     SWM4     OH2      ODW       1.71640       15.5994           0 -0.978253       1.30000    
     50045 TIP3     4768     SWM4     DOH2     DOH2     -1.71640      0.400000           0   0.00000       0.00000    
     50046 TIP3     4768     SWM4     OM       LPDW     -1.11466       0.00000          -1   0.00000       0.00000    
     50047 TIP3     4768     SWM4     H1       HDW      0.557330       1.00800           0   0.00000       0.00000    
     50048 TIP3     4768     SWM4     H2       HDW      0.557330       1.00800           0   0.00000       0.00000    
     50049 TIP3     4769     SWM4     OH2      ODW       1.71640       15.5994           0 -0.978253       1.30000    
     50050 TIP3     4769     SWM4     DOH2     DOH2     -1.71640      0.400000           0   0.00000       0.00000    
     50051 TIP3     4769     SWM4     OM       LPDW     -1.11466       0.00000          -1   0.00000       0.00000    
     50052 TIP3     4769     SWM4     H1       HDW      0.557330       1.00800           0   0.00000       0.00000    
     50053 TIP3     4769     SWM4     H2       HDW      0.557330       1.00800           0   0.00000       0.00000    
     50054 TIP3     4770     SWM4     OH2      ODW       1.71640       15.5994           0 -0.978253       1.30000    
     50055 TIP3     4770     SWM4     DOH2     DOH2     -1.71640      0.400000           0   0.00000       0.00000    
     50056 TIP3     4770     SWM4     OM       LPDW     -1.11466       0.00000          -1   0.00000       0.00000    
     50057 TIP3     4770     SWM4     H1       HDW      0.557330       1.00800           0   0.00000       0.00000    
     50058 TIP3     4770     SWM4     H2       HDW      0.557330       1.00800           0   0.00000       0.00000    
     50059 TIP3     4771     SWM4     OH2      ODW       1.71640       15.5994           0 -0.978253       1.30000    
     50060 TIP3     4771     SWM4     DOH2     DOH2     -1.71640      0.400000           0   0.00000       0.00000    
     50061 TIP3     4771     SWM4     OM       LPDW     -1.11466       0.00000          -1   0.00000       0.00000    
     50062 TIP3     4771     SWM4     H1       HDW      0.557330       1.00800           0   0.00000       0.00000    
     50063 TIP3     4771     SWM4     H2       HDW      0.557330       1.00800           0   0.00000       0.00000    
     50064 TIP3     4772     SWM4     OH2      ODW       1.71640       15.5994           0 -0.978253       1.30000    
     50065 TIP3     4772     SWM4     DOH2     DOH2     -1.71640      0.400000           0   0.00000       0.00000    
     50066 TIP3     4772     SWM4     OM       LPDW     -1.11466       0.00000          -1   0.00000       0.00000    
     50067 TIP3     4772     SWM4     H1       HDW      0.557330       1.00800           0   0.00000       0.00000    
     50068 TIP3     4772     SWM4     H2       HDW      0.557330       1.00800           0   0.00000       0.00000    
     50069 TIP3     4773     SWM4     OH2      ODW       1.71640       15.5994           0 -0.978253       1.30000    
     50070 TIP3     4773     SWM4     DOH2     DOH2     -1.71640      0.400000           0   0.00000       0.00000    
     50071 TIP3     4773     SWM4     OM       LPDW     -1.11466       0.00000          -1   0.00000       0.00000    
     50072 TIP3     4773     SWM4     H1       HDW      0.557330       1.00800           0   0.00000       0.00000    
     50073 TIP3     4773     SWM4     H2       HDW      0.557330       1.00800           0   0.00000       0.00000    
     50074 TIP3     4774     SWM4     OH2      ODW       1.71640       15.5994           0 -0.978253       1.30000    
     50075 TIP3     4774     SWM4     DOH2     DOH2     -1.71640      0.400000           0   0.00000       0.00000    
     50076 TIP3     4774     SWM4     OM       LPDW     -1.11466       0.00000          -1   0.00000       0.00000    
     50077 TIP3     4774     SWM4     H1       HDW      0.557330       1.00800           0   0.00000       0.00000    
     50078 TIP3     4774     SWM4     H2       HDW      0.557330       1.00800           0   0.00000       0.00000    
     50079 TIP3     4775     SWM4     OH2      ODW       1.71640       15.5994           0 -0.978253       1.30000    
     50080 TIP3     4775     SWM4     DOH2     DOH2     -1.71640      0.400000           0   0.00000       0.00000    
     50081 TIP3     4775     SWM4     OM       LPDW     -1.11466       0.00000          -1   0.00000       0.00000    
     50082 TIP3     4775     SWM4     H1       HDW      0.557330       1.00800           0   0.00000       0.00000    
     50083 TIP3     4775     SWM4     H2       HDW      0.557330       1.00800           0   0.00000       0.00000    
     50084 TIP3     4776     SWM4     OH2      ODW       1.71640       15.5994           0 -0.978253       1.30000    
     50085 TIP3     4776     SWM4     DOH2     DOH2     -1.71640      0.400000           0   0.00000       0.00000    
     50086 TIP3     4776     SWM4     OM       LPDW     -1.11466       0.00000          -1   0.00000       0.00000    
     50087 TIP3     4776     SWM4     H1       HDW      0.557330       1.00800           0   0.00000       0.00000    
     50088 TIP3     4776     SWM4     H2       HDW      0.557330       1.00800           0   0.00000       0.00000    
     50089 TIP3     4777     SWM4     OH2      ODW       1.71640       15.5994           0 -0.978253       1.30000    
     50090 TIP3     4777     SWM4     DOH2     DOH2     -1.71640      0.400000           0   0.00000       0.00000    
     50091 TIP3     4777     SWM4     OM       LPDW     -1.11466       0.00000          -1   0.00000       0.00000    
     50092 TIP3     4777     SWM4     H1       HDW      0.557330       1.00800           0   0.00000       0.00000    
     50093 TIP3     4777     SWM4     H2       HDW      0.557330       1.00800           0   0.00000       0.00000    
     50094 TIP3     4778     SWM4     OH2      ODW       1.71640       15.5994           0 -0.978253       1.30000    
     50095 TIP3     4778     SWM4     DOH2     DOH2     -1.71640      0.400000           0   0.00000       0.00000    
     50096 TIP3     4778     SWM4     OM       LPDW     -1.11466       0.00000          -1   0.00000       0.00000    
     50097 TIP3     4778     SWM4     H1       HDW      0.557330       1.00800           0   0.00000       0.00000    
     50098 TIP3     4778     SWM4     H2       HDW      0.557330       1.00800           0   0.00000       0.00000    
     50099 TIP3     4779     SWM4     OH2      ODW       1.71640       15.5994           0 -0.978253       1.30000    
     50100 TIP3     4779     SWM4     DOH2     DOH2     -1.71640      0.400000           0   0.00000       0.00000    
     50101 TIP3     4779     SWM4     OM       LPDW     -1.11466       0.00000          -1   0.00000       0.00000    
     50102 TIP3     4779     SWM4     H1       HDW      0.557330       1.00800           0   0.00000       0.00000    
     50103 TIP3     4779     SWM4     H2       HDW      0.557330       1.00800           0   0.00000       0.00000    
     50104 TIP3     4780     SWM4     OH2      ODW       1.71640       15.5994           0 -0.978253       1.30000    
     50105 TIP3     4780     SWM4     DOH2     DOH2     -1.71640      0.400000           0   0.00000       0.00000    
     50106 TIP3     4780     SWM4     OM       LPDW     -1.11466       0.00000          -1   0.00000       0.00000    
     50107 TIP3     4780     SWM4     H1       HDW      0.557330       1.00800           0   0.00000       0.00000    
     50108 TIP3     4780     SWM4     H2       HDW      0.557330       1.00800           0   0.00000       0.00000    
     50109 TIP3     4781     SWM4     OH2      ODW       1.71640       15.5994           0 -0.978253       1.30000    
     50110 TIP3     4781     SWM4     DOH2     DOH2     -1.71640      0.400000           0   0.00000       0.00000    
     50111 TIP3     4781     SWM4     OM       LPDW     -1.11466       0.00000          -1   0.00000       0.00000    
     50112 TIP3     4781     SWM4     H1       HDW      0.557330       1.00800           0   0.00000       0.00000    
     50113 TIP3     4781     SWM4     H2       HDW      0.557330       1.00800           0   0.00000       0.00000    
     50114 TIP3     4782     SWM4     OH2      ODW       1.71640       15.5994           0 -0.978253       1.30000    
     50115 TIP3     4782     SWM4     DOH2     DOH2     -1.71640      0.400000           0   0.00000       0.00000    
     50116 TIP3     4782     SWM4     OM       LPDW     -1.11466       0.00000          -1   0.00000       0.00000    
     50117 TIP3     4782     SWM4     H1       HDW      0.557330       1.00800           0   0.00000       0.00000    
     50118 TIP3     4782     SWM4     H2       HDW      0.557330       1.00800           0   0.00000       0.00000    
     50119 TIP3     4783     SWM4     OH2      ODW       1.71640       15.5994           0 -0.978253       1.30000    
     50120 TIP3     4783     SWM4     DOH2     DOH2     -1.71640      0.400000           0   0.00000       0.00000    
     50121 TIP3     4783     SWM4     OM       LPDW     -1.11466       0.00000          -1   0.00000       0.00000    
     50122 TIP3     4783     SWM4     H1       HDW      0.557330       1.00800           0   0.00000       0.00000    
     50123 TIP3     4783     SWM4     H2       HDW      0.557330       1.00800           0   0.00000       0.00000    
     50124 TIP3     4784     SWM4     OH2      ODW       1.71640       15.5994           0 -0.978253       1.30000    
     50125 TIP3     4784     SWM4     DOH2     DOH2     -1.71640      0.400000           0   0.00000       0.00000    
     50126 TIP3     4784     SWM4     OM       LPDW     -1.11466       0.00000          -1   0.00000       0.00000    
     50127 TIP3     4784     SWM4     H1       HDW      0.557330       1.00800           0   0.00000       0.00000    
     50128 TIP3     4784     SWM4     H2       HDW      0.557330       1.00800           0   0.00000       0.00000    
     50129 TIP3     4785     SWM4     OH2      ODW       1.71640       15.5994           0 -0.978253       1.30000    
     50130 TIP3     4785     SWM4     DOH2     DOH2     -1.71640      0.400000           0   0.00000       0.00000    
     50131 TIP3     4785     SWM4     OM       LPDW     -1.11466       0.00000          -1   0.00000       0.00000    
     50132 TIP3     4785     SWM4     H1       HDW      0.557330       1.00800           0   0.00000       0.00000    
     50133 TIP3     4785     SWM4     H2       HDW      0.557330       1.00800           0   0.00000       0.00000    
     50134 TIP3     4786     SWM4     OH2      ODW       1.71640       15.5994           0 -0.978253       1.30000    
     50135 TIP3     4786     SWM4     DOH2     DOH2     -1.71640      0.400000           0   0.00000       0.00000    
     50136 TIP3     4786     SWM4     OM       LPDW     -1.11466       0.00000          -1   0.00000       0.00000    
     50137 TIP3     4786     SWM4     H1       HDW      0.557330       1.00800           0   0.00000       0.00000    
     50138 TIP3     4786     SWM4     H2       HDW      0.557330       1.00800           0   0.00000       0.00000    
     50139 TIP3     4787     SWM4     OH2      ODW       1.71640       15.5994           0 -0.978253       1.30000    
     50140 TIP3     4787     SWM4     DOH2     DOH2     -1.71640      0.400000           0   0.00000       0.00000    
     50141 TIP3     4787     SWM4     OM       LPDW     -1.11466       0.00000          -1   0.00000       0.00000    
     50142 TIP3     4787     SWM4     H1       HDW      0.557330       1.00800           0   0.00000       0.00000    
     50143 TIP3     4787     SWM4     H2       HDW      0.557330       1.00800           0   0.00000       0.00000    
     50144 TIP3     4788     SWM4     OH2      ODW       1.71640       15.5994           0 -0.978253       1.30000    
     50145 TIP3     4788     SWM4     DOH2     DOH2     -1.71640      0.400000           0   0.00000       0.00000    
     50146 TIP3     4788     SWM4     OM       LPDW     -1.11466       0.00000          -1   0.00000       0.00000    
     50147 TIP3     4788     SWM4     H1       HDW      0.557330       1.00800           0   0.00000       0.00000    
     50148 TIP3     4788     SWM4     H2       HDW      0.557330       1.00800           0   0.00000       0.00000    
     50149 TIP3     4789     SWM4     OH2      ODW       1.71640       15.5994           0 -0.978253       1.30000    
     50150 TIP3     4789     SWM4     DOH2     DOH2     -1.71640      0.400000           0   0.00000       0.00000    
     50151 TIP3     4789     SWM4     OM       LPDW     -1.11466       0.00000          -1   0.00000       0.00000    
     50152 TIP3     4789     SWM4     H1       HDW      0.557330       1.00800           0   0.00000       0.00000    
     50153 TIP3     4789     SWM4     H2       HDW      0.557330       1.00800           0   0.00000       0.00000    
     50154 TIP3     4790     SWM4     OH2      ODW       1.71640       15.5994           0 -0.978253       1.30000    
     50155 TIP3     4790     SWM4     DOH2     DOH2     -1.71640      0.400000           0   0.00000       0.00000    
     50156 TIP3     4790     SWM4     OM       LPDW     -1.11466       0.00000          -1   0.00000       0.00000    
     50157 TIP3     4790     SWM4     H1       HDW      0.557330       1.00800           0   0.00000       0.00000    
     50158 TIP3     4790     SWM4     H2       HDW      0.557330       1.00800           0   0.00000       0.00000    
     50159 TIP3     4791     SWM4     OH2      ODW       1.71640       15.5994           0 -0.978253       1.30000    
     50160 TIP3     4791     SWM4     DOH2     DOH2     -1.71640      0.400000           0   0.00000       0.00000    
     50161 TIP3     4791     SWM4     OM       LPDW     -1.11466       0.00000          -1   0.00000       0.00000    
     50162 TIP3     4791     SWM4     H1       HDW      0.557330       1.00800           0   0.00000       0.00000    
     50163 TIP3     4791     SWM4     H2       HDW      0.557330       1.00800           0   0.00000       0.00000    
     50164 TIP3     4792     SWM4     OH2      ODW       1.71640       15.5994           0 -0.978253       1.30000    
     50165 TIP3     4792     SWM4     DOH2     DOH2     -1.71640      0.400000           0   0.00000       0.00000    
     50166 TIP3     4792     SWM4     OM       LPDW     -1.11466       0.00000          -1   0.00000       0.00000    
     50167 TIP3     4792     SWM4     H1       HDW      0.557330       1.00800           0   0.00000       0.00000    
     50168 TIP3     4792     SWM4     H2       HDW      0.557330       1.00800           0   0.00000       0.00000    
     50169 TIP3     4793     SWM4     OH2      ODW       1.71640       15.5994           0 -0.978253       1.30000    
     50170 TIP3     4793     SWM4     DOH2     DOH2     -1.71640      0.400000           0   0.00000       0.00000    
     50171 TIP3     4793     SWM4     OM       LPDW     -1.11466       0.00000          -1   0.00000       0.00000    
     50172 TIP3     4793     SWM4     H1       HDW      0.557330       1.00800           0   0.00000       0.00000    
     50173 TIP3     4793     SWM4     H2       HDW      0.557330       1.00800           0   0.00000       0.00000    
     50174 TIP3     4794     SWM4     OH2      ODW       1.71640       15.5994           0 -0.978253       1.30000    
     50175 TIP3     4794     SWM4     DOH2     DOH2     -1.71640      0.400000           0   0.00000       0.00000    
     50176 TIP3     4794     SWM4     OM       LPDW     -1.11466       0.00000          -1   0.00000       0.00000    
     50177 TIP3     4794     SWM4     H1       HDW      0.557330       1.00800           0   0.00000       0.00000    
     50178 TIP3     4794     SWM4     H2       HDW      0.557330       1.00800           0   0.00000       0.00000    
     50179 TIP3     4795     SWM4     OH2      ODW       1.71640       15.5994           0 -0.978253       1.30000    
     50180 TIP3     4795     SWM4     DOH2     DOH2     -1.71640      0.400000           0   0.00000       0.00000    
     50181 TIP3     4795     SWM4     OM       LPDW     -1.11466       0.00000          -1   0.00000       0.00000    
     50182 TIP3     4795     SWM4     H1       HDW      0.557330       1.00800           0   0.00000       0.00000    
     50183 TIP3     4795     SWM4     H2       HDW      0.557330       1.00800           0   0.00000       0.00000    
     50184 TIP3     4796     SWM4     OH2      ODW       1.71640       15.5994           0 -0.978253       1.30000    
     50185 TIP3     4796     SWM4     DOH2     DOH2     -1.71640      0.400000           0   0.00000       0.00000    
     50186 TIP3     4796     SWM4     OM       LPDW     -1.11466       0.00000          -1   0.00000       0.00000    
     50187 TIP3     4796     SWM4     H1       HDW      0.557330       1.00800           0   0.00000       0.00000    
     50188 TIP3     4796     SWM4     H2       HDW      0.557330       1.00800           0   0.00000       0.00000    
     50189 TIP3     4797     SWM4     OH2      ODW       1.71640       15.5994           0 -0.978253       1.30000    
     50190 TIP3     4797     SWM4     DOH2     DOH2     -1.71640      0.400000           0   0.00000       0.00000    
     50191 TIP3     4797     SWM4     OM       LPDW     -1.11466       0.00000          -1   0.00000       0.00000    
     50192 TIP3     4797     SWM4     H1       HDW      0.557330       1.00800           0   0.00000       0.00000    
     50193 TIP3     4797     SWM4     H2       HDW      0.557330       1.00800           0   0.00000       0.00000    
     50194 TIP3     4798     SWM4     OH2      ODW       1.71640       15.5994           0 -0.978253       1.30000    
     50195 TIP3     4798     SWM4     DOH2     DOH2     -1.71640      0.400000           0   0.00000       0.00000    
     50196 TIP3     4798     SWM4     OM       LPDW     -1.11466       0.00000          -1   0.00000       0.00000    
     50197 TIP3     4798     SWM4     H1       HDW      0.557330       1.00800           0   0.00000       0.00000    
     50198 TIP3     4798     SWM4     H2       HDW      0.557330       1.00800           0   0.00000       0.00000    
     50199 TIP3     4799     SWM4     OH2      ODW       1.71640       15.5994           0 -0.978253       1.30000    
     50200 TIP3     4799     SWM4     DOH2     DOH2     -1.71640      0.400000           0   0.00000       0.00000    
     50201 TIP3     4799     SWM4     OM       LPDW     -1.11466       0.00000          -1   0.00000       0.00000    
     50202 TIP3     4799     SWM4     H1       HDW      0.557330       1.00800           0   0.00000       0.00000    
     50203 TIP3     4799     SWM4     H2       HDW      0.557330       1.00800           0   0.00000       0.00000    
     50204 TIP3     4800     SWM4     OH2      ODW       1.71640       15.5994           0 -0.978253       1.30000    
     50205 TIP3     4800     SWM4     DOH2     DOH2     -1.71640      0.400000           0   0.00000       0.00000    
     50206 TIP3     4800     SWM4     OM       LPDW     -1.11466       0.00000          -1   0.00000       0.00000    
     50207 TIP3     4800     SWM4     H1       HDW      0.557330       1.00800           0   0.00000       0.00000    
     50208 TIP3     4800     SWM4     H2       HDW      0.557330       1.00800           0   0.00000       0.00000    
     50209 TIP3     4801     SWM4     OH2      ODW       1.71640       15.5994           0 -0.978253       1.30000    
     50210 TIP3     4801     SWM4     DOH2     DOH2     -1.71640      0.400000           0   0.00000       0.00000    
     50211 TIP3     4801     SWM4     OM       LPDW     -1.11466       0.00000          -1   0.00000       0.00000    
     50212 TIP3     4801     SWM4     H1       HDW      0.557330       1.00800           0   0.00000       0.00000    
     50213 TIP3     4801     SWM4     H2       HDW      0.557330       1.00800           0   0.00000       0.00000    
     50214 TIP3     4802     SWM4     OH2      ODW       1.71640       15.5994           0 -0.978253       1.30000    
     50215 TIP3     4802     SWM4     DOH2     DOH2     -1.71640      0.400000           0   0.00000       0.00000    
     50216 TIP3     4802     SWM4     OM       LPDW     -1.11466       0.00000          -1   0.00000       0.00000    
     50217 TIP3     4802     SWM4     H1       HDW      0.557330       1.00800           0   0.00000       0.00000    
     50218 TIP3     4802     SWM4     H2       HDW      0.557330       1.00800           0   0.00000       0.00000    
     50219 TIP3     4803     SWM4     OH2      ODW       1.71640       15.5994           0 -0.978253       1.30000    
     50220 TIP3     4803     SWM4     DOH2     DOH2     -1.71640      0.400000           0   0.00000       0.00000    
     50221 TIP3     4803     SWM4     OM       LPDW     -1.11466       0.00000          -1   0.00000       0.00000    
     50222 TIP3     4803     SWM4     H1       HDW      0.557330       1.00800           0   0.00000       0.00000    
     50223 TIP3     4803     SWM4     H2       HDW      0.557330       1.00800           0   0.00000       0.00000    
     50224 TIP3     4804     SWM4     OH2      ODW       1.71640       15.5994           0 -0.978253       1.30000    
     50225 TIP3     4804     SWM4     DOH2     DOH2     -1.71640      0.400000           0   0.00000       0.00000    
     50226 TIP3     4804     SWM4     OM       LPDW     -1.11466       0.00000          -1   0.00000       0.00000    
     50227 TIP3     4804     SWM4     H1       HDW      0.557330       1.00800           0   0.00000       0.00000    
     50228 TIP3     4804     SWM4     H2       HDW      0.557330       1.00800           0   0.00000       0.00000    
     50229 TIP3     4805     SWM4     OH2      ODW       1.71640       15.5994           0 -0.978253       1.30000    
     50230 TIP3     4805     SWM4     DOH2     DOH2     -1.71640      0.400000           0   0.00000       0.00000    
     50231 TIP3     4805     SWM4     OM       LPDW     -1.11466       0.00000          -1   0.00000       0.00000    
     50232 TIP3     4805     SWM4     H1       HDW      0.557330       1.00800           0   0.00000       0.00000    
     50233 TIP3     4805     SWM4     H2       HDW      0.557330       1.00800           0   0.00000       0.00000    
     50234 TIP3     4806     SWM4     OH2      ODW       1.71640       15.5994           0 -0.978253       1.30000    
     50235 TIP3     4806     SWM4     DOH2     DOH2     -1.71640      0.400000           0   0.00000       0.00000    
     50236 TIP3     4806     SWM4     OM       LPDW     -1.11466       0.00000          -1   0.00000       0.00000    
     50237 TIP3     4806     SWM4     H1       HDW      0.557330       1.00800           0   0.00000       0.00000    
     50238 TIP3     4806     SWM4     H2       HDW      0.557330       1.00800           0   0.00000       0.00000    
     50239 TIP3     4807     SWM4     OH2      ODW       1.71640       15.5994           0 -0.978253       1.30000    
     50240 TIP3     4807     SWM4     DOH2     DOH2     -1.71640      0.400000           0   0.00000       0.00000    
     50241 TIP3     4807     SWM4     OM       LPDW     -1.11466       0.00000          -1   0.00000       0.00000    
     50242 TIP3     4807     SWM4     H1       HDW      0.557330       1.00800           0   0.00000       0.00000    
     50243 TIP3     4807     SWM4     H2       HDW      0.557330       1.00800           0   0.00000       0.00000    
     50244 TIP3     4808     SWM4     OH2      ODW       1.71640       15.5994           0 -0.978253       1.30000    
     50245 TIP3     4808     SWM4     DOH2     DOH2     -1.71640      0.400000           0   0.00000       0.00000    
     50246 TIP3     4808     SWM4     OM       LPDW     -1.11466       0.00000          -1   0.00000       0.00000    
     50247 TIP3     4808     SWM4     H1       HDW      0.557330       1.00800           0   0.00000       0.00000    
     50248 TIP3     4808     SWM4     H2       HDW      0.557330       1.00800           0   0.00000       0.00000    
     50249 TIP3     4809     SWM4     OH2      ODW       1.71640       15.5994           0 -0.978253       1.30000    
     50250 TIP3     4809     SWM4     DOH2     DOH2     -1.71640      0.400000           0   0.00000       0.00000    
     50251 TIP3     4809     SWM4     OM       LPDW     -1.11466       0.00000          -1   0.00000       0.00000    
     50252 TIP3     4809     SWM4     H1       HDW      0.557330       1.00800           0   0.00000       0.00000    
     50253 TIP3     4809     SWM4     H2       HDW      0.557330       1.00800           0   0.00000       0.00000    
     50254 TIP3     4810     SWM4     OH2      ODW       1.71640       15.5994           0 -0.978253       1.30000    
     50255 TIP3     4810     SWM4     DOH2     DOH2     -1.71640      0.400000           0   0.00000       0.00000    
     50256 TIP3     4810     SWM4     OM       LPDW     -1.11466       0.00000          -1   0.00000       0.00000    
     50257 TIP3     4810     SWM4     H1       HDW      0.557330       1.00800           0   0.00000       0.00000    
     50258 TIP3     4810     SWM4     H2       HDW      0.557330       1.00800           0   0.00000       0.00000    
     50259 TIP3     4811     SWM4     OH2      ODW       1.71640       15.5994           0 -0.978253       1.30000    
     50260 TIP3     4811     SWM4     DOH2     DOH2     -1.71640      0.400000           0   0.00000       0.00000    
     50261 TIP3     4811     SWM4     OM       LPDW     -1.11466       0.00000          -1   0.00000       0.00000    
     50262 TIP3     4811     SWM4     H1       HDW      0.557330       1.00800           0   0.00000       0.00000    
     50263 TIP3     4811     SWM4     H2       HDW      0.557330       1.00800           0   0.00000       0.00000    
     50264 TIP3     4812     SWM4     OH2      ODW       1.71640       15.5994           0 -0.978253       1.30000    
     50265 TIP3     4812     SWM4     DOH2     DOH2     -1.71640      0.400000           0   0.00000       0.00000    
     50266 TIP3     4812     SWM4     OM       LPDW     -1.11466       0.00000          -1   0.00000       0.00000    
     50267 TIP3     4812     SWM4     H1       HDW      0.557330       1.00800           0   0.00000       0.00000    
     50268 TIP3     4812     SWM4     H2       HDW      0.557330       1.00800           0   0.00000       0.00000    
     50269 TIP3     4813     SWM4     OH2      ODW       1.71640       15.5994           0 -0.978253       1.30000    
     50270 TIP3     4813     SWM4     DOH2     DOH2     -1.71640      0.400000           0   0.00000       0.00000    
     50271 TIP3     4813     SWM4     OM       LPDW     -1.11466       0.00000          -1   0.00000       0.00000    
     50272 TIP3     4813     SWM4     H1       HDW      0.557330       1.00800           0   0.00000       0.00000    
     50273 TIP3     4813     SWM4     H2       HDW      0.557330       1.00800           0   0.00000       0.00000    
     50274 TIP3     4814     SWM4     OH2      ODW       1.71640       15.5994           0 -0.978253       1.30000    
     50275 TIP3     4814     SWM4     DOH2     DOH2     -1.71640      0.400000           0   0.00000       0.00000    
     50276 TIP3     4814     SWM4     OM       LPDW     -1.11466       0.00000          -1   0.00000       0.00000    
     50277 TIP3     4814     SWM4     H1       HDW      0.557330       1.00800           0   0.00000       0.00000    
     50278 TIP3     4814     SWM4     H2       HDW      0.557330       1.00800           0   0.00000       0.00000    
     50279 TIP3     4815     SWM4     OH2      ODW       1.71640       15.5994           0 -0.978253       1.30000    
     50280 TIP3     4815     SWM4     DOH2     DOH2     -1.71640      0.400000           0   0.00000       0.00000    
     50281 TIP3     4815     SWM4     OM       LPDW     -1.11466       0.00000          -1   0.00000       0.00000    
     50282 TIP3     4815     SWM4     H1       HDW      0.557330       1.00800           0   0.00000       0.00000    
     50283 TIP3     4815     SWM4     H2       HDW      0.557330       1.00800           0   0.00000       0.00000    
     50284 TIP3     4816     SWM4     OH2      ODW       1.71640       15.5994           0 -0.978253       1.30000    
     50285 TIP3     4816     SWM4     DOH2     DOH2     -1.71640      0.400000           0   0.00000       0.00000    
     50286 TIP3     4816     SWM4     OM       LPDW     -1.11466       0.00000          -1   0.00000       0.00000    
     50287 TIP3     4816     SWM4     H1       HDW      0.557330       1.00800           0   0.00000       0.00000    
     50288 TIP3     4816     SWM4     H2       HDW      0.557330       1.00800           0   0.00000       0.00000    
     50289 TIP3     4817     SWM4     OH2      ODW       1.71640       15.5994           0 -0.978253       1.30000    
     50290 TIP3     4817     SWM4     DOH2     DOH2     -1.71640      0.400000           0   0.00000       0.00000    
     50291 TIP3     4817     SWM4     OM       LPDW     -1.11466       0.00000          -1   0.00000       0.00000    
     50292 TIP3     4817     SWM4     H1       HDW      0.557330       1.00800           0   0.00000       0.00000    
     50293 TIP3     4817     SWM4     H2       HDW      0.557330       1.00800           0   0.00000       0.00000    
     50294 TIP3     4818     SWM4     OH2      ODW       1.71640       15.5994           0 -0.978253       1.30000    
     50295 TIP3     4818     SWM4     DOH2     DOH2     -1.71640      0.400000           0   0.00000       0.00000    
     50296 TIP3     4818     SWM4     OM       LPDW     -1.11466       0.00000          -1   0.00000       0.00000    
     50297 TIP3     4818     SWM4     H1       HDW      0.557330       1.00800           0   0.00000       0.00000    
     50298 TIP3     4818     SWM4     H2       HDW      0.557330       1.00800           0   0.00000       0.00000    
     50299 TIP3     4819     SWM4     OH2      ODW       1.71640       15.5994           0 -0.978253       1.30000    
     50300 TIP3     4819     SWM4     DOH2     DOH2     -1.71640      0.400000           0   0.00000       0.00000    
     50301 TIP3     4819     SWM4     OM       LPDW     -1.11466       0.00000          -1   0.00000       0.00000    
     50302 TIP3     4819     SWM4     H1       HDW      0.557330       1.00800           0   0.00000       0.00000    
     50303 TIP3     4819     SWM4     H2       HDW      0.557330       1.00800           0   0.00000       0.00000    
     50304 TIP3     4820     SWM4     OH2      ODW       1.71640       15.5994           0 -0.978253       1.30000    
     50305 TIP3     4820     SWM4     DOH2     DOH2     -1.71640      0.400000           0   0.00000       0.00000    
     50306 TIP3     4820     SWM4     OM       LPDW     -1.11466       0.00000          -1   0.00000       0.00000    
     50307 TIP3     4820     SWM4     H1       HDW      0.557330       1.00800           0   0.00000       0.00000    
     50308 TIP3     4820     SWM4     H2       HDW      0.557330       1.00800           0   0.00000       0.00000    
     50309 TIP3     4821     SWM4     OH2      ODW       1.71640       15.5994           0 -0.978253       1.30000    
     50310 TIP3     4821     SWM4     DOH2     DOH2     -1.71640      0.400000           0   0.00000       0.00000    
     50311 TIP3     4821     SWM4     OM       LPDW     -1.11466       0.00000          -1   0.00000       0.00000    
     50312 TIP3     4821     SWM4     H1       HDW      0.557330       1.00800           0   0.00000       0.00000    
     50313 TIP3     4821     SWM4     H2       HDW      0.557330       1.00800           0   0.00000       0.00000    
     50314 TIP3     4822     SWM4     OH2      ODW       1.71640       15.5994           0 -0.978253       1.30000    
     50315 TIP3     4822     SWM4     DOH2     DOH2     -1.71640      0.400000           0   0.00000       0.00000    
     50316 TIP3     4822     SWM4     OM       LPDW     -1.11466       0.00000          -1   0.00000       0.00000    
     50317 TIP3     4822     SWM4     H1       HDW      0.557330       1.00800           0   0.00000       0.00000    
     50318 TIP3     4822     SWM4     H2       HDW      0.557330       1.00800           0   0.00000       0.00000    
     50319 TIP3     4823     SWM4     OH2      ODW       1.71640       15.5994           0 -0.978253       1.30000    
     50320 TIP3     4823     SWM4     DOH2     DOH2     -1.71640      0.400000           0   0.00000       0.00000    
     50321 TIP3     4823     SWM4     OM       LPDW     -1.11466       0.00000          -1   0.00000       0.00000    
     50322 TIP3     4823     SWM4     H1       HDW      0.557330       1.00800           0   0.00000       0.00000    
     50323 TIP3     4823     SWM4     H2       HDW      0.557330       1.00800           0   0.00000       0.00000    
     50324 TIP3     4824     SWM4     OH2      ODW       1.71640       15.5994           0 -0.978253       1.30000    
     50325 TIP3     4824     SWM4     DOH2     DOH2     -1.71640      0.400000           0   0.00000       0.00000    
     50326 TIP3     4824     SWM4     OM       LPDW     -1.11466       0.00000          -1   0.00000       0.00000    
     50327 TIP3     4824     SWM4     H1       HDW      0.557330       1.00800           0   0.00000       0.00000    
     50328 TIP3     4824     SWM4     H2       HDW      0.557330       1.00800           0   0.00000       0.00000    
     50329 TIP3     4825     SWM4     OH2      ODW       1.71640       15.5994           0 -0.978253       1.30000    
     50330 TIP3     4825     SWM4     DOH2     DOH2     -1.71640      0.400000           0   0.00000       0.00000    
     50331 TIP3     4825     SWM4     OM       LPDW     -1.11466       0.00000          -1   0.00000       0.00000    
     50332 TIP3     4825     SWM4     H1       HDW      0.557330       1.00800           0   0.00000       0.00000    
     50333 TIP3     4825     SWM4     H2       HDW      0.557330       1.00800           0   0.00000       0.00000    
     50334 TIP3     4826     SWM4     OH2      ODW       1.71640       15.5994           0 -0.978253       1.30000    
     50335 TIP3     4826     SWM4     DOH2     DOH2     -1.71640      0.400000           0   0.00000       0.00000    
     50336 TIP3     4826     SWM4     OM       LPDW     -1.11466       0.00000          -1   0.00000       0.00000    
     50337 TIP3     4826     SWM4     H1       HDW      0.557330       1.00800           0   0.00000       0.00000    
     50338 TIP3     4826     SWM4     H2       HDW      0.557330       1.00800           0   0.00000       0.00000    
     50339 TIP3     4827     SWM4     OH2      ODW       1.71640       15.5994           0 -0.978253       1.30000    
     50340 TIP3     4827     SWM4     DOH2     DOH2     -1.71640      0.400000           0   0.00000       0.00000    
     50341 TIP3     4827     SWM4     OM       LPDW     -1.11466       0.00000          -1   0.00000       0.00000    
     50342 TIP3     4827     SWM4     H1       HDW      0.557330       1.00800           0   0.00000       0.00000    
     50343 TIP3     4827     SWM4     H2       HDW      0.557330       1.00800           0   0.00000       0.00000    
     50344 TIP3     4828     SWM4     OH2      ODW       1.71640       15.5994           0 -0.978253       1.30000    
     50345 TIP3     4828     SWM4     DOH2     DOH2     -1.71640      0.400000           0   0.00000       0.00000    
     50346 TIP3     4828     SWM4     OM       LPDW     -1.11466       0.00000          -1   0.00000       0.00000    
     50347 TIP3     4828     SWM4     H1       HDW      0.557330       1.00800           0   0.00000       0.00000    
     50348 TIP3     4828     SWM4     H2       HDW      0.557330       1.00800           0   0.00000       0.00000    
     50349 TIP3     4829     SWM4     OH2      ODW       1.71640       15.5994           0 -0.978253       1.30000    
     50350 TIP3     4829     SWM4     DOH2     DOH2     -1.71640      0.400000           0   0.00000       0.00000    
     50351 TIP3     4829     SWM4     OM       LPDW     -1.11466       0.00000          -1   0.00000       0.00000    
     50352 TIP3     4829     SWM4     H1       HDW      0.557330       1.00800           0   0.00000       0.00000    
     50353 TIP3     4829     SWM4     H2       HDW      0.557330       1.00800           0   0.00000       0.00000    
     50354 TIP3     4830     SWM4     OH2      ODW       1.71640       15.5994           0 -0.978253       1.30000    
     50355 TIP3     4830     SWM4     DOH2     DOH2     -1.71640      0.400000           0   0.00000       0.00000    
     50356 TIP3     4830     SWM4     OM       LPDW     -1.11466       0.00000          -1   0.00000       0.00000    
     50357 TIP3     4830     SWM4     H1       HDW      0.557330       1.00800           0   0.00000       0.00000    
     50358 TIP3     4830     SWM4     H2       HDW      0.557330       1.00800           0   0.00000       0.00000    
     50359 TIP3     4831     SWM4     OH2      ODW       1.71640       15.5994           0 -0.978253       1.30000    
     50360 TIP3     4831     SWM4     DOH2     DOH2     -1.71640      0.400000           0   0.00000       0.00000    
     50361 TIP3     4831     SWM4     OM       LPDW     -1.11466       0.00000          -1   0.00000       0.00000    
     50362 TIP3     4831     SWM4     H1       HDW      0.557330       1.00800           0   0.00000       0.00000    
     50363 TIP3     4831     SWM4     H2       HDW      0.557330       1.00800           0   0.00000       0.00000    
     50364 TIP3     4832     SWM4     OH2      ODW       1.71640       15.5994           0 -0.978253       1.30000    
     50365 TIP3     4832     SWM4     DOH2     DOH2     -1.71640      0.400000           0   0.00000       0.00000    
     50366 TIP3     4832     SWM4     OM       LPDW     -1.11466       0.00000          -1   0.00000       0.00000    
     50367 TIP3     4832     SWM4     H1       HDW      0.557330       1.00800           0   0.00000       0.00000    
     50368 TIP3     4832     SWM4     H2       HDW      0.557330       1.00800           0   0.00000       0.00000    
     50369 TIP3     4833     SWM4     OH2      ODW       1.71640       15.5994           0 -0.978253       1.30000    
     50370 TIP3     4833     SWM4     DOH2     DOH2     -1.71640      0.400000           0   0.00000       0.00000    
     50371 TIP3     4833     SWM4     OM       LPDW     -1.11466       0.00000          -1   0.00000       0.00000    
     50372 TIP3     4833     SWM4     H1       HDW      0.557330       1.00800           0   0.00000       0.00000    
     50373 TIP3     4833     SWM4     H2       HDW      0.557330       1.00800           0   0.00000       0.00000    
     50374 TIP3     4834     SWM4     OH2      ODW       1.71640       15.5994           0 -0.978253       1.30000    
     50375 TIP3     4834     SWM4     DOH2     DOH2     -1.71640      0.400000           0   0.00000       0.00000    
     50376 TIP3     4834     SWM4     OM       LPDW     -1.11466       0.00000          -1   0.00000       0.00000    
     50377 TIP3     4834     SWM4     H1       HDW      0.557330       1.00800           0   0.00000       0.00000    
     50378 TIP3     4834     SWM4     H2       HDW      0.557330       1.00800           0   0.00000       0.00000    
     50379 TIP3     4835     SWM4     OH2      ODW       1.71640       15.5994           0 -0.978253       1.30000    
     50380 TIP3     4835     SWM4     DOH2     DOH2     -1.71640      0.400000           0   0.00000       0.00000    
     50381 TIP3     4835     SWM4     OM       LPDW     -1.11466       0.00000          -1   0.00000       0.00000    
     50382 TIP3     4835     SWM4     H1       HDW      0.557330       1.00800           0   0.00000       0.00000    
     50383 TIP3     4835     SWM4     H2       HDW      0.557330       1.00800           0   0.00000       0.00000    
     50384 TIP3     4836     SWM4     OH2      ODW       1.71640       15.5994           0 -0.978253       1.30000    
     50385 TIP3     4836     SWM4     DOH2     DOH2     -1.71640      0.400000           0   0.00000       0.00000    
     50386 TIP3     4836     SWM4     OM       LPDW     -1.11466       0.00000          -1   0.00000       0.00000    
     50387 TIP3     4836     SWM4     H1       HDW      0.557330       1.00800           0   0.00000       0.00000    
     50388 TIP3     4836     SWM4     H2       HDW      0.557330       1.00800           0   0.00000       0.00000    
     50389 TIP3     4837     SWM4     OH2      ODW       1.71640       15.5994           0 -0.978253       1.30000    
     50390 TIP3     4837     SWM4     DOH2     DOH2     -1.71640      0.400000           0   0.00000       0.00000    
     50391 TIP3     4837     SWM4     OM       LPDW     -1.11466       0.00000          -1   0.00000       0.00000    
     50392 TIP3     4837     SWM4     H1       HDW      0.557330       1.00800           0   0.00000       0.00000    
     50393 TIP3     4837     SWM4     H2       HDW      0.557330       1.00800           0   0.00000       0.00000    
     50394 TIP3     4838     SWM4     OH2      ODW       1.71640       15.5994           0 -0.978253       1.30000    
     50395 TIP3     4838     SWM4     DOH2     DOH2     -1.71640      0.400000           0   0.00000       0.00000    
     50396 TIP3     4838     SWM4     OM       LPDW     -1.11466       0.00000          -1   0.00000       0.00000    
     50397 TIP3     4838     SWM4     H1       HDW      0.557330       1.00800           0   0.00000       0.00000    
     50398 TIP3     4838     SWM4     H2       HDW      0.557330       1.00800           0   0.00000       0.00000    
     50399 TIP3     4839     SWM4     OH2      ODW       1.71640       15.5994           0 -0.978253       1.30000    
     50400 TIP3     4839     SWM4     DOH2     DOH2     -1.71640      0.400000           0   0.00000       0.00000    
     50401 TIP3     4839     SWM4     OM       LPDW     -1.11466       0.00000          -1   0.00000       0.00000    
     50402 TIP3     4839     SWM4     H1       HDW      0.557330       1.00800           0   0.00000       0.00000    
     50403 TIP3     4839     SWM4     H2       HDW      0.557330       1.00800           0   0.00000       0.00000    
     50404 TIP3     4840     SWM4     OH2      ODW       1.71640       15.5994           0 -0.978253       1.30000    
     50405 TIP3     4840     SWM4     DOH2     DOH2     -1.71640      0.400000           0   0.00000       0.00000    
     50406 TIP3     4840     SWM4     OM       LPDW     -1.11466       0.00000          -1   0.00000       0.00000    
     50407 TIP3     4840     SWM4     H1       HDW      0.557330       1.00800           0   0.00000       0.00000    
     50408 TIP3     4840     SWM4     H2       HDW      0.557330       1.00800           0   0.00000       0.00000    
     50409 TIP3     4841     SWM4     OH2      ODW       1.71640       15.5994           0 -0.978253       1.30000    
     50410 TIP3     4841     SWM4     DOH2     DOH2     -1.71640      0.400000           0   0.00000       0.00000    
     50411 TIP3     4841     SWM4     OM       LPDW     -1.11466       0.00000          -1   0.00000       0.00000    
     50412 TIP3     4841     SWM4     H1       HDW      0.557330       1.00800           0   0.00000       0.00000    
     50413 TIP3     4841     SWM4     H2       HDW      0.557330       1.00800           0   0.00000       0.00000    
     50414 TIP3     4842     SWM4     OH2      ODW       1.71640       15.5994           0 -0.978253       1.30000    
     50415 TIP3     4842     SWM4     DOH2     DOH2     -1.71640      0.400000           0   0.00000       0.00000    
     50416 TIP3     4842     SWM4     OM       LPDW     -1.11466       0.00000          -1   0.00000       0.00000    
     50417 TIP3     4842     SWM4     H1       HDW      0.557330       1.00800           0   0.00000       0.00000    
     50418 TIP3     4842     SWM4     H2       HDW      0.557330       1.00800           0   0.00000       0.00000    
     50419 TIP3     4843     SWM4     OH2      ODW       1.71640       15.5994           0 -0.978253       1.30000    
     50420 TIP3     4843     SWM4     DOH2     DOH2     -1.71640      0.400000           0   0.00000       0.00000    
     50421 TIP3     4843     SWM4     OM       LPDW     -1.11466       0.00000          -1   0.00000       0.00000    
     50422 TIP3     4843     SWM4     H1       HDW      0.557330       1.00800           0   0.00000       0.00000    
     50423 TIP3     4843     SWM4     H2       HDW      0.557330       1.00800           0   0.00000       0.00000    
     50424 TIP3     4844     SWM4     OH2      ODW       1.71640       15.5994           0 -0.978253       1.30000    
     50425 TIP3     4844     SWM4     DOH2     DOH2     -1.71640      0.400000           0   0.00000       0.00000    
     50426 TIP3     4844     SWM4     OM       LPDW     -1.11466       0.00000          -1   0.00000       0.00000    
     50427 TIP3     4844     SWM4     H1       HDW      0.557330       1.00800           0   0.00000       0.00000    
     50428 TIP3     4844     SWM4     H2       HDW      0.557330       1.00800           0   0.00000       0.00000    
     50429 TIP3     4845     SWM4     OH2      ODW       1.71640       15.5994           0 -0.978253       1.30000    
     50430 TIP3     4845     SWM4     DOH2     DOH2     -1.71640      0.400000           0   0.00000       0.00000    
     50431 TIP3     4845     SWM4     OM       LPDW     -1.11466       0.00000          -1   0.00000       0.00000    
     50432 TIP3     4845     SWM4     H1       HDW      0.557330       1.00800           0   0.00000       0.00000    
     50433 TIP3     4845     SWM4     H2       HDW      0.557330       1.00800           0   0.00000       0.00000    
     50434 TIP3     4846     SWM4     OH2      ODW       1.71640       15.5994           0 -0.978253       1.30000    
     50435 TIP3     4846     SWM4     DOH2     DOH2     -1.71640      0.400000           0   0.00000       0.00000    
     50436 TIP3     4846     SWM4     OM       LPDW     -1.11466       0.00000          -1   0.00000       0.00000    
     50437 TIP3     4846     SWM4     H1       HDW      0.557330       1.00800           0   0.00000       0.00000    
     50438 TIP3     4846     SWM4     H2       HDW      0.557330       1.00800           0   0.00000       0.00000    
     50439 TIP3     4847     SWM4     OH2      ODW       1.71640       15.5994           0 -0.978253       1.30000    
     50440 TIP3     4847     SWM4     DOH2     DOH2     -1.71640      0.400000           0   0.00000       0.00000    
     50441 TIP3     4847     SWM4     OM       LPDW     -1.11466       0.00000          -1   0.00000       0.00000    
     50442 TIP3     4847     SWM4     H1       HDW      0.557330       1.00800           0   0.00000       0.00000    
     50443 TIP3     4847     SWM4     H2       HDW      0.557330       1.00800           0   0.00000       0.00000    
     50444 TIP3     4848     SWM4     OH2      ODW       1.71640       15.5994           0 -0.978253       1.30000    
     50445 TIP3     4848     SWM4     DOH2     DOH2     -1.71640      0.400000           0   0.00000       0.00000    
     50446 TIP3     4848     SWM4     OM       LPDW     -1.11466       0.00000          -1   0.00000       0.00000    
     50447 TIP3     4848     SWM4     H1       HDW      0.557330       1.00800           0   0.00000       0.00000    
     50448 TIP3     4848     SWM4     H2       HDW      0.557330       1.00800           0   0.00000       0.00000    
     50449 TIP3     4849     SWM4     OH2      ODW       1.71640       15.5994           0 -0.978253       1.30000    
     50450 TIP3     4849     SWM4     DOH2     DOH2     -1.71640      0.400000           0   0.00000       0.00000    
     50451 TIP3     4849     SWM4     OM       LPDW     -1.11466       0.00000          -1   0.00000       0.00000    
     50452 TIP3     4849     SWM4     H1       HDW      0.557330       1.00800           0   0.00000       0.00000    
     50453 TIP3     4849     SWM4     H2       HDW      0.557330       1.00800           0   0.00000       0.00000    
     50454 TIP3     4850     SWM4     OH2      ODW       1.71640       15.5994           0 -0.978253       1.30000    
     50455 TIP3     4850     SWM4     DOH2     DOH2     -1.71640      0.400000           0   0.00000       0.00000    
     50456 TIP3     4850     SWM4     OM       LPDW     -1.11466       0.00000          -1   0.00000       0.00000    
     50457 TIP3     4850     SWM4     H1       HDW      0.557330       1.00800           0   0.00000       0.00000    
     50458 TIP3     4850     SWM4     H2       HDW      0.557330       1.00800           0   0.00000       0.00000    
     50459 TIP3     4851     SWM4     OH2      ODW       1.71640       15.5994           0 -0.978253       1.30000    
     50460 TIP3     4851     SWM4     DOH2     DOH2     -1.71640      0.400000           0   0.00000       0.00000    
     50461 TIP3     4851     SWM4     OM       LPDW     -1.11466       0.00000          -1   0.00000       0.00000    
     50462 TIP3     4851     SWM4     H1       HDW      0.557330       1.00800           0   0.00000       0.00000    
     50463 TIP3     4851     SWM4     H2       HDW      0.557330       1.00800           0   0.00000       0.00000    
     50464 TIP3     4852     SWM4     OH2      ODW       1.71640       15.5994           0 -0.978253       1.30000    
     50465 TIP3     4852     SWM4     DOH2     DOH2     -1.71640      0.400000           0   0.00000       0.00000    
     50466 TIP3     4852     SWM4     OM       LPDW     -1.11466       0.00000          -1   0.00000       0.00000    
     50467 TIP3     4852     SWM4     H1       HDW      0.557330       1.00800           0   0.00000       0.00000    
     50468 TIP3     4852     SWM4     H2       HDW      0.557330       1.00800           0   0.00000       0.00000    
     50469 TIP3     4853     SWM4     OH2      ODW       1.71640       15.5994           0 -0.978253       1.30000    
     50470 TIP3     4853     SWM4     DOH2     DOH2     -1.71640      0.400000           0   0.00000       0.00000    
     50471 TIP3     4853     SWM4     OM       LPDW     -1.11466       0.00000          -1   0.00000       0.00000    
     50472 TIP3     4853     SWM4     H1       HDW      0.557330       1.00800           0   0.00000       0.00000    
     50473 TIP3     4853     SWM4     H2       HDW      0.557330       1.00800           0   0.00000       0.00000    
     50474 TIP3     4854     SWM4     OH2      ODW       1.71640       15.5994           0 -0.978253       1.30000    
     50475 TIP3     4854     SWM4     DOH2     DOH2     -1.71640      0.400000           0   0.00000       0.00000    
     50476 TIP3     4854     SWM4     OM       LPDW     -1.11466       0.00000          -1   0.00000       0.00000    
     50477 TIP3     4854     SWM4     H1       HDW      0.557330       1.00800           0   0.00000       0.00000    
     50478 TIP3     4854     SWM4     H2       HDW      0.557330       1.00800           0   0.00000       0.00000    
     50479 TIP3     4855     SWM4     OH2      ODW       1.71640       15.5994           0 -0.978253       1.30000    
     50480 TIP3     4855     SWM4     DOH2     DOH2     -1.71640      0.400000           0   0.00000       0.00000    
     50481 TIP3     4855     SWM4     OM       LPDW     -1.11466       0.00000          -1   0.00000       0.00000    
     50482 TIP3     4855     SWM4     H1       HDW      0.557330       1.00800           0   0.00000       0.00000    
     50483 TIP3     4855     SWM4     H2       HDW      0.557330       1.00800           0   0.00000       0.00000    
     50484 TIP3     4856     SWM4     OH2      ODW       1.71640       15.5994           0 -0.978253       1.30000    
     50485 TIP3     4856     SWM4     DOH2     DOH2     -1.71640      0.400000           0   0.00000       0.00000    
     50486 TIP3     4856     SWM4     OM       LPDW     -1.11466       0.00000          -1   0.00000       0.00000    
     50487 TIP3     4856     SWM4     H1       HDW      0.557330       1.00800           0   0.00000       0.00000    
     50488 TIP3     4856     SWM4     H2       HDW      0.557330       1.00800           0   0.00000       0.00000    
     50489 TIP3     4857     SWM4     OH2      ODW       1.71640       15.5994           0 -0.978253       1.30000    
     50490 TIP3     4857     SWM4     DOH2     DOH2     -1.71640      0.400000           0   0.00000       0.00000    
     50491 TIP3     4857     SWM4     OM       LPDW     -1.11466       0.00000          -1   0.00000       0.00000    
     50492 TIP3     4857     SWM4     H1       HDW      0.557330       1.00800           0   0.00000       0.00000    
     50493 TIP3     4857     SWM4     H2       HDW      0.557330       1.00800           0   0.00000       0.00000    
     50494 TIP3     4858     SWM4     OH2      ODW       1.71640       15.5994           0 -0.978253       1.30000    
     50495 TIP3     4858     SWM4     DOH2     DOH2     -1.71640      0.400000           0   0.00000       0.00000    
     50496 TIP3     4858     SWM4     OM       LPDW     -1.11466       0.00000          -1   0.00000       0.00000    
     50497 TIP3     4858     SWM4     H1       HDW      0.557330       1.00800           0   0.00000       0.00000    
     50498 TIP3     4858     SWM4     H2       HDW      0.557330       1.00800           0   0.00000       0.00000    
     50499 TIP3     4859     SWM4     OH2      ODW       1.71640       15.5994           0 -0.978253       1.30000    
     50500 TIP3     4859     SWM4     DOH2     DOH2     -1.71640      0.400000           0   0.00000       0.00000    
     50501 TIP3     4859     SWM4     OM       LPDW     -1.11466       0.00000          -1   0.00000       0.00000    
     50502 TIP3     4859     SWM4     H1       HDW      0.557330       1.00800           0   0.00000       0.00000    
     50503 TIP3     4859     SWM4     H2       HDW      0.557330       1.00800           0   0.00000       0.00000    
     50504 TIP3     4860     SWM4     OH2      ODW       1.71640       15.5994           0 -0.978253       1.30000    
     50505 TIP3     4860     SWM4     DOH2     DOH2     -1.71640      0.400000           0   0.00000       0.00000    
     50506 TIP3     4860     SWM4     OM       LPDW     -1.11466       0.00000          -1   0.00000       0.00000    
     50507 TIP3     4860     SWM4     H1       HDW      0.557330       1.00800           0   0.00000       0.00000    
     50508 TIP3     4860     SWM4     H2       HDW      0.557330       1.00800           0   0.00000       0.00000    
     50509 TIP3     4861     SWM4     OH2      ODW       1.71640       15.5994           0 -0.978253       1.30000    
     50510 TIP3     4861     SWM4     DOH2     DOH2     -1.71640      0.400000           0   0.00000       0.00000    
     50511 TIP3     4861     SWM4     OM       LPDW     -1.11466       0.00000          -1   0.00000       0.00000    
     50512 TIP3     4861     SWM4     H1       HDW      0.557330       1.00800           0   0.00000       0.00000    
     50513 TIP3     4861     SWM4     H2       HDW      0.557330       1.00800           0   0.00000       0.00000    
     50514 TIP3     4862     SWM4     OH2      ODW       1.71640       15.5994           0 -0.978253       1.30000    
     50515 TIP3     4862     SWM4     DOH2     DOH2     -1.71640      0.400000           0   0.00000       0.00000    
     50516 TIP3     4862     SWM4     OM       LPDW     -1.11466       0.00000          -1   0.00000       0.00000    
     50517 TIP3     4862     SWM4     H1       HDW      0.557330       1.00800           0   0.00000       0.00000    
     50518 TIP3     4862     SWM4     H2       HDW      0.557330       1.00800           0   0.00000       0.00000    
     50519 TIP3     4863     SWM4     OH2      ODW       1.71640       15.5994           0 -0.978253       1.30000    
     50520 TIP3     4863     SWM4     DOH2     DOH2     -1.71640      0.400000           0   0.00000       0.00000    
     50521 TIP3     4863     SWM4     OM       LPDW     -1.11466       0.00000          -1   0.00000       0.00000    
     50522 TIP3     4863     SWM4     H1       HDW      0.557330       1.00800           0   0.00000       0.00000    
     50523 TIP3     4863     SWM4     H2       HDW      0.557330       1.00800           0   0.00000       0.00000    
     50524 TIP3     4864     SWM4     OH2      ODW       1.71640       15.5994           0 -0.978253       1.30000    
     50525 TIP3     4864     SWM4     DOH2     DOH2     -1.71640      0.400000           0   0.00000       0.00000    
     50526 TIP3     4864     SWM4     OM       LPDW     -1.11466       0.00000          -1   0.00000       0.00000    
     50527 TIP3     4864     SWM4     H1       HDW      0.557330       1.00800           0   0.00000       0.00000    
     50528 TIP3     4864     SWM4     H2       HDW      0.557330       1.00800           0   0.00000       0.00000    
     50529 TIP3     4865     SWM4     OH2      ODW       1.71640       15.5994           0 -0.978253       1.30000    
     50530 TIP3     4865     SWM4     DOH2     DOH2     -1.71640      0.400000           0   0.00000       0.00000    
     50531 TIP3     4865     SWM4     OM       LPDW     -1.11466       0.00000          -1   0.00000       0.00000    
     50532 TIP3     4865     SWM4     H1       HDW      0.557330       1.00800           0   0.00000       0.00000    
     50533 TIP3     4865     SWM4     H2       HDW      0.557330       1.00800           0   0.00000       0.00000    
     50534 TIP3     4866     SWM4     OH2      ODW       1.71640       15.5994           0 -0.978253       1.30000    
     50535 TIP3     4866     SWM4     DOH2     DOH2     -1.71640      0.400000           0   0.00000       0.00000    
     50536 TIP3     4866     SWM4     OM       LPDW     -1.11466       0.00000          -1   0.00000       0.00000    
     50537 TIP3     4866     SWM4     H1       HDW      0.557330       1.00800           0   0.00000       0.00000    
     50538 TIP3     4866     SWM4     H2       HDW      0.557330       1.00800           0   0.00000       0.00000    
     50539 TIP3     4867     SWM4     OH2      ODW       1.71640       15.5994           0 -0.978253       1.30000    
     50540 TIP3     4867     SWM4     DOH2     DOH2     -1.71640      0.400000           0   0.00000       0.00000    
     50541 TIP3     4867     SWM4     OM       LPDW     -1.11466       0.00000          -1   0.00000       0.00000    
     50542 TIP3     4867     SWM4     H1       HDW      0.557330       1.00800           0   0.00000       0.00000    
     50543 TIP3     4867     SWM4     H2       HDW      0.557330       1.00800           0   0.00000       0.00000    
     50544 TIP3     4868     SWM4     OH2      ODW       1.71640       15.5994           0 -0.978253       1.30000    
     50545 TIP3     4868     SWM4     DOH2     DOH2     -1.71640      0.400000           0   0.00000       0.00000    
     50546 TIP3     4868     SWM4     OM       LPDW     -1.11466       0.00000          -1   0.00000       0.00000    
     50547 TIP3     4868     SWM4     H1       HDW      0.557330       1.00800           0   0.00000       0.00000    
     50548 TIP3     4868     SWM4     H2       HDW      0.557330       1.00800           0   0.00000       0.00000    
     50549 TIP3     4869     SWM4     OH2      ODW       1.71640       15.5994           0 -0.978253       1.30000    
     50550 TIP3     4869     SWM4     DOH2     DOH2     -1.71640      0.400000           0   0.00000       0.00000    
     50551 TIP3     4869     SWM4     OM       LPDW     -1.11466       0.00000          -1   0.00000       0.00000    
     50552 TIP3     4869     SWM4     H1       HDW      0.557330       1.00800           0   0.00000       0.00000    
     50553 TIP3     4869     SWM4     H2       HDW      0.557330       1.00800           0   0.00000       0.00000    
     50554 TIP3     4870     SWM4     OH2      ODW       1.71640       15.5994           0 -0.978253       1.30000    
     50555 TIP3     4870     SWM4     DOH2     DOH2     -1.71640      0.400000           0   0.00000       0.00000    
     50556 TIP3     4870     SWM4     OM       LPDW     -1.11466       0.00000          -1   0.00000       0.00000    
     50557 TIP3     4870     SWM4     H1       HDW      0.557330       1.00800           0   0.00000       0.00000    
     50558 TIP3     4870     SWM4     H2       HDW      0.557330       1.00800           0   0.00000       0.00000    
     50559 TIP3     4871     SWM4     OH2      ODW       1.71640       15.5994           0 -0.978253       1.30000    
     50560 TIP3     4871     SWM4     DOH2     DOH2     -1.71640      0.400000           0   0.00000       0.00000    
     50561 TIP3     4871     SWM4     OM       LPDW     -1.11466       0.00000          -1   0.00000       0.00000    
     50562 TIP3     4871     SWM4     H1       HDW      0.557330       1.00800           0   0.00000       0.00000    
     50563 TIP3     4871     SWM4     H2       HDW      0.557330       1.00800           0   0.00000       0.00000    
     50564 TIP3     4872     SWM4     OH2      ODW       1.71640       15.5994           0 -0.978253       1.30000    
     50565 TIP3     4872     SWM4     DOH2     DOH2     -1.71640      0.400000           0   0.00000       0.00000    
     50566 TIP3     4872     SWM4     OM       LPDW     -1.11466       0.00000          -1   0.00000       0.00000    
     50567 TIP3     4872     SWM4     H1       HDW      0.557330       1.00800           0   0.00000       0.00000    
     50568 TIP3     4872     SWM4     H2       HDW      0.557330       1.00800           0   0.00000       0.00000    
     50569 TIP3     4873     SWM4     OH2      ODW       1.71640       15.5994           0 -0.978253       1.30000    
     50570 TIP3     4873     SWM4     DOH2     DOH2     -1.71640      0.400000           0   0.00000       0.00000    
     50571 TIP3     4873     SWM4     OM       LPDW     -1.11466       0.00000          -1   0.00000       0.00000    
     50572 TIP3     4873     SWM4     H1       HDW      0.557330       1.00800           0   0.00000       0.00000    
     50573 TIP3     4873     SWM4     H2       HDW      0.557330       1.00800           0   0.00000       0.00000    
     50574 TIP3     4874     SWM4     OH2      ODW       1.71640       15.5994           0 -0.978253       1.30000    
     50575 TIP3     4874     SWM4     DOH2     DOH2     -1.71640      0.400000           0   0.00000       0.00000    
     50576 TIP3     4874     SWM4     OM       LPDW     -1.11466       0.00000          -1   0.00000       0.00000    
     50577 TIP3     4874     SWM4     H1       HDW      0.557330       1.00800           0   0.00000       0.00000    
     50578 TIP3     4874     SWM4     H2       HDW      0.557330       1.00800           0   0.00000       0.00000    
     50579 TIP3     4875     SWM4     OH2      ODW       1.71640       15.5994           0 -0.978253       1.30000    
     50580 TIP3     4875     SWM4     DOH2     DOH2     -1.71640      0.400000           0   0.00000       0.00000    
     50581 TIP3     4875     SWM4     OM       LPDW     -1.11466       0.00000          -1   0.00000       0.00000    
     50582 TIP3     4875     SWM4     H1       HDW      0.557330       1.00800           0   0.00000       0.00000    
     50583 TIP3     4875     SWM4     H2       HDW      0.557330       1.00800           0   0.00000       0.00000    
     50584 TIP3     4876     SWM4     OH2      ODW       1.71640       15.5994           0 -0.978253       1.30000    
     50585 TIP3     4876     SWM4     DOH2     DOH2     -1.71640      0.400000           0   0.00000       0.00000    
     50586 TIP3     4876     SWM4     OM       LPDW     -1.11466       0.00000          -1   0.00000       0.00000    
     50587 TIP3     4876     SWM4     H1       HDW      0.557330       1.00800           0   0.00000       0.00000    
     50588 TIP3     4876     SWM4     H2       HDW      0.557330       1.00800           0   0.00000       0.00000    
     50589 TIP3     4877     SWM4     OH2      ODW       1.71640       15.5994           0 -0.978253       1.30000    
     50590 TIP3     4877     SWM4     DOH2     DOH2     -1.71640      0.400000           0   0.00000       0.00000    
     50591 TIP3     4877     SWM4     OM       LPDW     -1.11466       0.00000          -1   0.00000       0.00000    
     50592 TIP3     4877     SWM4     H1       HDW      0.557330       1.00800           0   0.00000       0.00000    
     50593 TIP3     4877     SWM4     H2       HDW      0.557330       1.00800           0   0.00000       0.00000    
     50594 TIP3     4878     SWM4     OH2      ODW       1.71640       15.5994           0 -0.978253       1.30000    
     50595 TIP3     4878     SWM4     DOH2     DOH2     -1.71640      0.400000           0   0.00000       0.00000    
     50596 TIP3     4878     SWM4     OM       LPDW     -1.11466       0.00000          -1   0.00000       0.00000    
     50597 TIP3     4878     SWM4     H1       HDW      0.557330       1.00800           0   0.00000       0.00000    
     50598 TIP3     4878     SWM4     H2       HDW      0.557330       1.00800           0   0.00000       0.00000    
     50599 TIP3     4879     SWM4     OH2      ODW       1.71640       15.5994           0 -0.978253       1.30000    
     50600 TIP3     4879     SWM4     DOH2     DOH2     -1.71640      0.400000           0   0.00000       0.00000    
     50601 TIP3     4879     SWM4     OM       LPDW     -1.11466       0.00000          -1   0.00000       0.00000    
     50602 TIP3     4879     SWM4     H1       HDW      0.557330       1.00800           0   0.00000       0.00000    
     50603 TIP3     4879     SWM4     H2       HDW      0.557330       1.00800           0   0.00000       0.00000    
     50604 TIP3     4880     SWM4     OH2      ODW       1.71640       15.5994           0 -0.978253       1.30000    
     50605 TIP3     4880     SWM4     DOH2     DOH2     -1.71640      0.400000           0   0.00000       0.00000    
     50606 TIP3     4880     SWM4     OM       LPDW     -1.11466       0.00000          -1   0.00000       0.00000    
     50607 TIP3     4880     SWM4     H1       HDW      0.557330       1.00800           0   0.00000       0.00000    
     50608 TIP3     4880     SWM4     H2       HDW      0.557330       1.00800           0   0.00000       0.00000    
     50609 TIP3     4881     SWM4     OH2      ODW       1.71640       15.5994           0 -0.978253       1.30000    
     50610 TIP3     4881     SWM4     DOH2     DOH2     -1.71640      0.400000           0   0.00000       0.00000    
     50611 TIP3     4881     SWM4     OM       LPDW     -1.11466       0.00000          -1   0.00000       0.00000    
     50612 TIP3     4881     SWM4     H1       HDW      0.557330       1.00800           0   0.00000       0.00000    
     50613 TIP3     4881     SWM4     H2       HDW      0.557330       1.00800           0   0.00000       0.00000    
     50614 TIP3     4882     SWM4     OH2      ODW       1.71640       15.5994           0 -0.978253       1.30000    
     50615 TIP3     4882     SWM4     DOH2     DOH2     -1.71640      0.400000           0   0.00000       0.00000    
     50616 TIP3     4882     SWM4     OM       LPDW     -1.11466       0.00000          -1   0.00000       0.00000    
     50617 TIP3     4882     SWM4     H1       HDW      0.557330       1.00800           0   0.00000       0.00000    
     50618 TIP3     4882     SWM4     H2       HDW      0.557330       1.00800           0   0.00000       0.00000    
     50619 TIP3     4883     SWM4     OH2      ODW       1.71640       15.5994           0 -0.978253       1.30000    
     50620 TIP3     4883     SWM4     DOH2     DOH2     -1.71640      0.400000           0   0.00000       0.00000    
     50621 TIP3     4883     SWM4     OM       LPDW     -1.11466       0.00000          -1   0.00000       0.00000    
     50622 TIP3     4883     SWM4     H1       HDW      0.557330       1.00800           0   0.00000       0.00000    
     50623 TIP3     4883     SWM4     H2       HDW      0.557330       1.00800           0   0.00000       0.00000    
     50624 TIP3     4884     SWM4     OH2      ODW       1.71640       15.5994           0 -0.978253       1.30000    
     50625 TIP3     4884     SWM4     DOH2     DOH2     -1.71640      0.400000           0   0.00000       0.00000    
     50626 TIP3     4884     SWM4     OM       LPDW     -1.11466       0.00000          -1   0.00000       0.00000    
     50627 TIP3     4884     SWM4     H1       HDW      0.557330       1.00800           0   0.00000       0.00000    
     50628 TIP3     4884     SWM4     H2       HDW      0.557330       1.00800           0   0.00000       0.00000    
     50629 TIP3     4885     SWM4     OH2      ODW       1.71640       15.5994           0 -0.978253       1.30000    
     50630 TIP3     4885     SWM4     DOH2     DOH2     -1.71640      0.400000           0   0.00000       0.00000    
     50631 TIP3     4885     SWM4     OM       LPDW     -1.11466       0.00000          -1   0.00000       0.00000    
     50632 TIP3     4885     SWM4     H1       HDW      0.557330       1.00800           0   0.00000       0.00000    
     50633 TIP3     4885     SWM4     H2       HDW      0.557330       1.00800           0   0.00000       0.00000    
     50634 TIP3     4886     SWM4     OH2      ODW       1.71640       15.5994           0 -0.978253       1.30000    
     50635 TIP3     4886     SWM4     DOH2     DOH2     -1.71640      0.400000           0   0.00000       0.00000    
     50636 TIP3     4886     SWM4     OM       LPDW     -1.11466       0.00000          -1   0.00000       0.00000    
     50637 TIP3     4886     SWM4     H1       HDW      0.557330       1.00800           0   0.00000       0.00000    
     50638 TIP3     4886     SWM4     H2       HDW      0.557330       1.00800           0   0.00000       0.00000    
     50639 TIP3     4887     SWM4     OH2      ODW       1.71640       15.5994           0 -0.978253       1.30000    
     50640 TIP3     4887     SWM4     DOH2     DOH2     -1.71640      0.400000           0   0.00000       0.00000    
     50641 TIP3     4887     SWM4     OM       LPDW     -1.11466       0.00000          -1   0.00000       0.00000    
     50642 TIP3     4887     SWM4     H1       HDW      0.557330       1.00800           0   0.00000       0.00000    
     50643 TIP3     4887     SWM4     H2       HDW      0.557330       1.00800           0   0.00000       0.00000    
     50644 TIP3     4888     SWM4     OH2      ODW       1.71640       15.5994           0 -0.978253       1.30000    
     50645 TIP3     4888     SWM4     DOH2     DOH2     -1.71640      0.400000           0   0.00000       0.00000    
     50646 TIP3     4888     SWM4     OM       LPDW     -1.11466       0.00000          -1   0.00000       0.00000    
     50647 TIP3     4888     SWM4     H1       HDW      0.557330       1.00800           0   0.00000       0.00000    
     50648 TIP3     4888     SWM4     H2       HDW      0.557330       1.00800           0   0.00000       0.00000    
     50649 TIP3     4889     SWM4     OH2      ODW       1.71640       15.5994           0 -0.978253       1.30000    
     50650 TIP3     4889     SWM4     DOH2     DOH2     -1.71640      0.400000           0   0.00000       0.00000    
     50651 TIP3     4889     SWM4     OM       LPDW     -1.11466       0.00000          -1   0.00000       0.00000    
     50652 TIP3     4889     SWM4     H1       HDW      0.557330       1.00800           0   0.00000       0.00000    
     50653 TIP3     4889     SWM4     H2       HDW      0.557330       1.00800           0   0.00000       0.00000    
     50654 TIP3     4890     SWM4     OH2      ODW       1.71640       15.5994           0 -0.978253       1.30000    
     50655 TIP3     4890     SWM4     DOH2     DOH2     -1.71640      0.400000           0   0.00000       0.00000    
     50656 TIP3     4890     SWM4     OM       LPDW     -1.11466       0.00000          -1   0.00000       0.00000    
     50657 TIP3     4890     SWM4     H1       HDW      0.557330       1.00800           0   0.00000       0.00000    
     50658 TIP3     4890     SWM4     H2       HDW      0.557330       1.00800           0   0.00000       0.00000    
     50659 TIP3     4891     SWM4     OH2      ODW       1.71640       15.5994           0 -0.978253       1.30000    
     50660 TIP3     4891     SWM4     DOH2     DOH2     -1.71640      0.400000           0   0.00000       0.00000    
     50661 TIP3     4891     SWM4     OM       LPDW     -1.11466       0.00000          -1   0.00000       0.00000    
     50662 TIP3     4891     SWM4     H1       HDW      0.557330       1.00800           0   0.00000       0.00000    
     50663 TIP3     4891     SWM4     H2       HDW      0.557330       1.00800           0   0.00000       0.00000    
     50664 TIP3     4892     SWM4     OH2      ODW       1.71640       15.5994           0 -0.978253       1.30000    
     50665 TIP3     4892     SWM4     DOH2     DOH2     -1.71640      0.400000           0   0.00000       0.00000    
     50666 TIP3     4892     SWM4     OM       LPDW     -1.11466       0.00000          -1   0.00000       0.00000    
     50667 TIP3     4892     SWM4     H1       HDW      0.557330       1.00800           0   0.00000       0.00000    
     50668 TIP3     4892     SWM4     H2       HDW      0.557330       1.00800           0   0.00000       0.00000    
     50669 TIP3     4893     SWM4     OH2      ODW       1.71640       15.5994           0 -0.978253       1.30000    
     50670 TIP3     4893     SWM4     DOH2     DOH2     -1.71640      0.400000           0   0.00000       0.00000    
     50671 TIP3     4893     SWM4     OM       LPDW     -1.11466       0.00000          -1   0.00000       0.00000    
     50672 TIP3     4893     SWM4     H1       HDW      0.557330       1.00800           0   0.00000       0.00000    
     50673 TIP3     4893     SWM4     H2       HDW      0.557330       1.00800           0   0.00000       0.00000    
     50674 TIP3     4894     SWM4     OH2      ODW       1.71640       15.5994           0 -0.978253       1.30000    
     50675 TIP3     4894     SWM4     DOH2     DOH2     -1.71640      0.400000           0   0.00000       0.00000    
     50676 TIP3     4894     SWM4     OM       LPDW     -1.11466       0.00000          -1   0.00000       0.00000    
     50677 TIP3     4894     SWM4     H1       HDW      0.557330       1.00800           0   0.00000       0.00000    
     50678 TIP3     4894     SWM4     H2       HDW      0.557330       1.00800           0   0.00000       0.00000    
     50679 TIP3     4895     SWM4     OH2      ODW       1.71640       15.5994           0 -0.978253       1.30000    
     50680 TIP3     4895     SWM4     DOH2     DOH2     -1.71640      0.400000           0   0.00000       0.00000    
     50681 TIP3     4895     SWM4     OM       LPDW     -1.11466       0.00000          -1   0.00000       0.00000    
     50682 TIP3     4895     SWM4     H1       HDW      0.557330       1.00800           0   0.00000       0.00000    
     50683 TIP3     4895     SWM4     H2       HDW      0.557330       1.00800           0   0.00000       0.00000    
     50684 TIP3     4896     SWM4     OH2      ODW       1.71640       15.5994           0 -0.978253       1.30000    
     50685 TIP3     4896     SWM4     DOH2     DOH2     -1.71640      0.400000           0   0.00000       0.00000    
     50686 TIP3     4896     SWM4     OM       LPDW     -1.11466       0.00000          -1   0.00000       0.00000    
     50687 TIP3     4896     SWM4     H1       HDW      0.557330       1.00800           0   0.00000       0.00000    
     50688 TIP3     4896     SWM4     H2       HDW      0.557330       1.00800           0   0.00000       0.00000    
     50689 TIP3     4897     SWM4     OH2      ODW       1.71640       15.5994           0 -0.978253       1.30000    
     50690 TIP3     4897     SWM4     DOH2     DOH2     -1.71640      0.400000           0   0.00000       0.00000    
     50691 TIP3     4897     SWM4     OM       LPDW     -1.11466       0.00000          -1   0.00000       0.00000    
     50692 TIP3     4897     SWM4     H1       HDW      0.557330       1.00800           0   0.00000       0.00000    
     50693 TIP3     4897     SWM4     H2       HDW      0.557330       1.00800           0   0.00000       0.00000    
     50694 TIP3     4898     SWM4     OH2      ODW       1.71640       15.5994           0 -0.978253       1.30000    
     50695 TIP3     4898     SWM4     DOH2     DOH2     -1.71640      0.400000           0   0.00000       0.00000    
     50696 TIP3     4898     SWM4     OM       LPDW     -1.11466       0.00000          -1   0.00000       0.00000    
     50697 TIP3     4898     SWM4     H1       HDW      0.557330       1.00800           0   0.00000       0.00000    
     50698 TIP3     4898     SWM4     H2       HDW      0.557330       1.00800           0   0.00000       0.00000    
     50699 TIP3     4899     SWM4     OH2      ODW       1.71640       15.5994           0 -0.978253       1.30000    
     50700 TIP3     4899     SWM4     DOH2     DOH2     -1.71640      0.400000           0   0.00000       0.00000    
     50701 TIP3     4899     SWM4     OM       LPDW     -1.11466       0.00000          -1   0.00000       0.00000    
     50702 TIP3     4899     SWM4     H1       HDW      0.557330       1.00800           0   0.00000       0.00000    
     50703 TIP3     4899     SWM4     H2       HDW      0.557330       1.00800           0   0.00000       0.00000    
     50704 TIP3     4900     SWM4     OH2      ODW       1.71640       15.5994           0 -0.978253       1.30000    
     50705 TIP3     4900     SWM4     DOH2     DOH2     -1.71640      0.400000           0   0.00000       0.00000    
     50706 TIP3     4900     SWM4     OM       LPDW     -1.11466       0.00000          -1   0.00000       0.00000    
     50707 TIP3     4900     SWM4     H1       HDW      0.557330       1.00800           0   0.00000       0.00000    
     50708 TIP3     4900     SWM4     H2       HDW      0.557330       1.00800           0   0.00000       0.00000    
     50709 TIP3     4901     SWM4     OH2      ODW       1.71640       15.5994           0 -0.978253       1.30000    
     50710 TIP3     4901     SWM4     DOH2     DOH2     -1.71640      0.400000           0   0.00000       0.00000    
     50711 TIP3     4901     SWM4     OM       LPDW     -1.11466       0.00000          -1   0.00000       0.00000    
     50712 TIP3     4901     SWM4     H1       HDW      0.557330       1.00800           0   0.00000       0.00000    
     50713 TIP3     4901     SWM4     H2       HDW      0.557330       1.00800           0   0.00000       0.00000    
     50714 TIP3     4902     SWM4     OH2      ODW       1.71640       15.5994           0 -0.978253       1.30000    
     50715 TIP3     4902     SWM4     DOH2     DOH2     -1.71640      0.400000           0   0.00000       0.00000    
     50716 TIP3     4902     SWM4     OM       LPDW     -1.11466       0.00000          -1   0.00000       0.00000    
     50717 TIP3     4902     SWM4     H1       HDW      0.557330       1.00800           0   0.00000       0.00000    
     50718 TIP3     4902     SWM4     H2       HDW      0.557330       1.00800           0   0.00000       0.00000    
     50719 TIP3     4903     SWM4     OH2      ODW       1.71640       15.5994           0 -0.978253       1.30000    
     50720 TIP3     4903     SWM4     DOH2     DOH2     -1.71640      0.400000           0   0.00000       0.00000    
     50721 TIP3     4903     SWM4     OM       LPDW     -1.11466       0.00000          -1   0.00000       0.00000    
     50722 TIP3     4903     SWM4     H1       HDW      0.557330       1.00800           0   0.00000       0.00000    
     50723 TIP3     4903     SWM4     H2       HDW      0.557330       1.00800           0   0.00000       0.00000    
     50724 TIP3     4904     SWM4     OH2      ODW       1.71640       15.5994           0 -0.978253       1.30000    
     50725 TIP3     4904     SWM4     DOH2     DOH2     -1.71640      0.400000           0   0.00000       0.00000    
     50726 TIP3     4904     SWM4     OM       LPDW     -1.11466       0.00000          -1   0.00000       0.00000    
     50727 TIP3     4904     SWM4     H1       HDW      0.557330       1.00800           0   0.00000       0.00000    
     50728 TIP3     4904     SWM4     H2       HDW      0.557330       1.00800           0   0.00000       0.00000    
     50729 TIP3     4905     SWM4     OH2      ODW       1.71640       15.5994           0 -0.978253       1.30000    
     50730 TIP3     4905     SWM4     DOH2     DOH2     -1.71640      0.400000           0   0.00000       0.00000    
     50731 TIP3     4905     SWM4     OM       LPDW     -1.11466       0.00000          -1   0.00000       0.00000    
     50732 TIP3     4905     SWM4     H1       HDW      0.557330       1.00800           0   0.00000       0.00000    
     50733 TIP3     4905     SWM4     H2       HDW      0.557330       1.00800           0   0.00000       0.00000    
     50734 TIP3     4906     SWM4     OH2      ODW       1.71640       15.5994           0 -0.978253       1.30000    
     50735 TIP3     4906     SWM4     DOH2     DOH2     -1.71640      0.400000           0   0.00000       0.00000    
     50736 TIP3     4906     SWM4     OM       LPDW     -1.11466       0.00000          -1   0.00000       0.00000    
     50737 TIP3     4906     SWM4     H1       HDW      0.557330       1.00800           0   0.00000       0.00000    
     50738 TIP3     4906     SWM4     H2       HDW      0.557330       1.00800           0   0.00000       0.00000    
     50739 TIP3     4907     SWM4     OH2      ODW       1.71640       15.5994           0 -0.978253       1.30000    
     50740 TIP3     4907     SWM4     DOH2     DOH2     -1.71640      0.400000           0   0.00000       0.00000    
     50741 TIP3     4907     SWM4     OM       LPDW     -1.11466       0.00000          -1   0.00000       0.00000    
     50742 TIP3     4907     SWM4     H1       HDW      0.557330       1.00800           0   0.00000       0.00000    
     50743 TIP3     4907     SWM4     H2       HDW      0.557330       1.00800           0   0.00000       0.00000    
     50744 TIP3     4908     SWM4     OH2      ODW       1.71640       15.5994           0 -0.978253       1.30000    
     50745 TIP3     4908     SWM4     DOH2     DOH2     -1.71640      0.400000           0   0.00000       0.00000    
     50746 TIP3     4908     SWM4     OM       LPDW     -1.11466       0.00000          -1   0.00000       0.00000    
     50747 TIP3     4908     SWM4     H1       HDW      0.557330       1.00800           0   0.00000       0.00000    
     50748 TIP3     4908     SWM4     H2       HDW      0.557330       1.00800           0   0.00000       0.00000    
     50749 TIP3     4909     SWM4     OH2      ODW       1.71640       15.5994           0 -0.978253       1.30000    
     50750 TIP3     4909     SWM4     DOH2     DOH2     -1.71640      0.400000           0   0.00000       0.00000    
     50751 TIP3     4909     SWM4     OM       LPDW     -1.11466       0.00000          -1   0.00000       0.00000    
     50752 TIP3     4909     SWM4     H1       HDW      0.557330       1.00800           0   0.00000       0.00000    
     50753 TIP3     4909     SWM4     H2       HDW      0.557330       1.00800           0   0.00000       0.00000    
     50754 TIP3     4910     SWM4     OH2      ODW       1.71640       15.5994           0 -0.978253       1.30000    
     50755 TIP3     4910     SWM4     DOH2     DOH2     -1.71640      0.400000           0   0.00000       0.00000    
     50756 TIP3     4910     SWM4     OM       LPDW     -1.11466       0.00000          -1   0.00000       0.00000    
     50757 TIP3     4910     SWM4     H1       HDW      0.557330       1.00800           0   0.00000       0.00000    
     50758 TIP3     4910     SWM4     H2       HDW      0.557330       1.00800           0   0.00000       0.00000    
     50759 TIP3     4911     SWM4     OH2      ODW       1.71640       15.5994           0 -0.978253       1.30000    
     50760 TIP3     4911     SWM4     DOH2     DOH2     -1.71640      0.400000           0   0.00000       0.00000    
     50761 TIP3     4911     SWM4     OM       LPDW     -1.11466       0.00000          -1   0.00000       0.00000    
     50762 TIP3     4911     SWM4     H1       HDW      0.557330       1.00800           0   0.00000       0.00000    
     50763 TIP3     4911     SWM4     H2       HDW      0.557330       1.00800           0   0.00000       0.00000    
     50764 TIP3     4912     SWM4     OH2      ODW       1.71640       15.5994           0 -0.978253       1.30000    
     50765 TIP3     4912     SWM4     DOH2     DOH2     -1.71640      0.400000           0   0.00000       0.00000    
     50766 TIP3     4912     SWM4     OM       LPDW     -1.11466       0.00000          -1   0.00000       0.00000    
     50767 TIP3     4912     SWM4     H1       HDW      0.557330       1.00800           0   0.00000       0.00000    
     50768 TIP3     4912     SWM4     H2       HDW      0.557330       1.00800           0   0.00000       0.00000    
     50769 TIP3     4913     SWM4     OH2      ODW       1.71640       15.5994           0 -0.978253       1.30000    
     50770 TIP3     4913     SWM4     DOH2     DOH2     -1.71640      0.400000           0   0.00000       0.00000    
     50771 TIP3     4913     SWM4     OM       LPDW     -1.11466       0.00000          -1   0.00000       0.00000    
     50772 TIP3     4913     SWM4     H1       HDW      0.557330       1.00800           0   0.00000       0.00000    
     50773 TIP3     4913     SWM4     H2       HDW      0.557330       1.00800           0   0.00000       0.00000    
     50774 TIP3     4914     SWM4     OH2      ODW       1.71640       15.5994           0 -0.978253       1.30000    
     50775 TIP3     4914     SWM4     DOH2     DOH2     -1.71640      0.400000           0   0.00000       0.00000    
     50776 TIP3     4914     SWM4     OM       LPDW     -1.11466       0.00000          -1   0.00000       0.00000    
     50777 TIP3     4914     SWM4     H1       HDW      0.557330       1.00800           0   0.00000       0.00000    
     50778 TIP3     4914     SWM4     H2       HDW      0.557330       1.00800           0   0.00000       0.00000    
     50779 TIP3     4915     SWM4     OH2      ODW       1.71640       15.5994           0 -0.978253       1.30000    
     50780 TIP3     4915     SWM4     DOH2     DOH2     -1.71640      0.400000           0   0.00000       0.00000    
     50781 TIP3     4915     SWM4     OM       LPDW     -1.11466       0.00000          -1   0.00000       0.00000    
     50782 TIP3     4915     SWM4     H1       HDW      0.557330       1.00800           0   0.00000       0.00000    
     50783 TIP3     4915     SWM4     H2       HDW      0.557330       1.00800           0   0.00000       0.00000    
     50784 TIP3     4916     SWM4     OH2      ODW       1.71640       15.5994           0 -0.978253       1.30000    
     50785 TIP3     4916     SWM4     DOH2     DOH2     -1.71640      0.400000           0   0.00000       0.00000    
     50786 TIP3     4916     SWM4     OM       LPDW     -1.11466       0.00000          -1   0.00000       0.00000    
     50787 TIP3     4916     SWM4     H1       HDW      0.557330       1.00800           0   0.00000       0.00000    
     50788 TIP3     4916     SWM4     H2       HDW      0.557330       1.00800           0   0.00000       0.00000    
     50789 TIP3     4917     SWM4     OH2      ODW       1.71640       15.5994           0 -0.978253       1.30000    
     50790 TIP3     4917     SWM4     DOH2     DOH2     -1.71640      0.400000           0   0.00000       0.00000    
     50791 TIP3     4917     SWM4     OM       LPDW     -1.11466       0.00000          -1   0.00000       0.00000    
     50792 TIP3     4917     SWM4     H1       HDW      0.557330       1.00800           0   0.00000       0.00000    
     50793 TIP3     4917     SWM4     H2       HDW      0.557330       1.00800           0   0.00000       0.00000    
     50794 TIP3     4918     SWM4     OH2      ODW       1.71640       15.5994           0 -0.978253       1.30000    
     50795 TIP3     4918     SWM4     DOH2     DOH2     -1.71640      0.400000           0   0.00000       0.00000    
     50796 TIP3     4918     SWM4     OM       LPDW     -1.11466       0.00000          -1   0.00000       0.00000    
     50797 TIP3     4918     SWM4     H1       HDW      0.557330       1.00800           0   0.00000       0.00000    
     50798 TIP3     4918     SWM4     H2       HDW      0.557330       1.00800           0   0.00000       0.00000    
     50799 TIP3     4919     SWM4     OH2      ODW       1.71640       15.5994           0 -0.978253       1.30000    
     50800 TIP3     4919     SWM4     DOH2     DOH2     -1.71640      0.400000           0   0.00000       0.00000    
     50801 TIP3     4919     SWM4     OM       LPDW     -1.11466       0.00000          -1   0.00000       0.00000    
     50802 TIP3     4919     SWM4     H1       HDW      0.557330       1.00800           0   0.00000       0.00000    
     50803 TIP3     4919     SWM4     H2       HDW      0.557330       1.00800           0   0.00000       0.00000    
     50804 TIP3     4920     SWM4     OH2      ODW       1.71640       15.5994           0 -0.978253       1.30000    
     50805 TIP3     4920     SWM4     DOH2     DOH2     -1.71640      0.400000           0   0.00000       0.00000    
     50806 TIP3     4920     SWM4     OM       LPDW     -1.11466       0.00000          -1   0.00000       0.00000    
     50807 TIP3     4920     SWM4     H1       HDW      0.557330       1.00800           0   0.00000       0.00000    
     50808 TIP3     4920     SWM4     H2       HDW      0.557330       1.00800           0   0.00000       0.00000    
     50809 TIP3     4921     SWM4     OH2      ODW       1.71640       15.5994           0 -0.978253       1.30000    
     50810 TIP3     4921     SWM4     DOH2     DOH2     -1.71640      0.400000           0   0.00000       0.00000    
     50811 TIP3     4921     SWM4     OM       LPDW     -1.11466       0.00000          -1   0.00000       0.00000    
     50812 TIP3     4921     SWM4     H1       HDW      0.557330       1.00800           0   0.00000       0.00000    
     50813 TIP3     4921     SWM4     H2       HDW      0.557330       1.00800           0   0.00000       0.00000    
     50814 TIP3     4922     SWM4     OH2      ODW       1.71640       15.5994           0 -0.978253       1.30000    
     50815 TIP3     4922     SWM4     DOH2     DOH2     -1.71640      0.400000           0   0.00000       0.00000    
     50816 TIP3     4922     SWM4     OM       LPDW     -1.11466       0.00000          -1   0.00000       0.00000    
     50817 TIP3     4922     SWM4     H1       HDW      0.557330       1.00800           0   0.00000       0.00000    
     50818 TIP3     4922     SWM4     H2       HDW      0.557330       1.00800           0   0.00000       0.00000    
     50819 TIP3     4923     SWM4     OH2      ODW       1.71640       15.5994           0 -0.978253       1.30000    
     50820 TIP3     4923     SWM4     DOH2     DOH2     -1.71640      0.400000           0   0.00000       0.00000    
     50821 TIP3     4923     SWM4     OM       LPDW     -1.11466       0.00000          -1   0.00000       0.00000    
     50822 TIP3     4923     SWM4     H1       HDW      0.557330       1.00800           0   0.00000       0.00000    
     50823 TIP3     4923     SWM4     H2       HDW      0.557330       1.00800           0   0.00000       0.00000    
     50824 TIP3     4924     SWM4     OH2      ODW       1.71640       15.5994           0 -0.978253       1.30000    
     50825 TIP3     4924     SWM4     DOH2     DOH2     -1.71640      0.400000           0   0.00000       0.00000    
     50826 TIP3     4924     SWM4     OM       LPDW     -1.11466       0.00000          -1   0.00000       0.00000    
     50827 TIP3     4924     SWM4     H1       HDW      0.557330       1.00800           0   0.00000       0.00000    
     50828 TIP3     4924     SWM4     H2       HDW      0.557330       1.00800           0   0.00000       0.00000    
     50829 TIP3     4925     SWM4     OH2      ODW       1.71640       15.5994           0 -0.978253       1.30000    
     50830 TIP3     4925     SWM4     DOH2     DOH2     -1.71640      0.400000           0   0.00000       0.00000    
     50831 TIP3     4925     SWM4     OM       LPDW     -1.11466       0.00000          -1   0.00000       0.00000    
     50832 TIP3     4925     SWM4     H1       HDW      0.557330       1.00800           0   0.00000       0.00000    
     50833 TIP3     4925     SWM4     H2       HDW      0.557330       1.00800           0   0.00000       0.00000    
     50834 TIP3     4926     SWM4     OH2      ODW       1.71640       15.5994           0 -0.978253       1.30000    
     50835 TIP3     4926     SWM4     DOH2     DOH2     -1.71640      0.400000           0   0.00000       0.00000    
     50836 TIP3     4926     SWM4     OM       LPDW     -1.11466       0.00000          -1   0.00000       0.00000    
     50837 TIP3     4926     SWM4     H1       HDW      0.557330       1.00800           0   0.00000       0.00000    
     50838 TIP3     4926     SWM4     H2       HDW      0.557330       1.00800           0   0.00000       0.00000    
     50839 TIP3     4927     SWM4     OH2      ODW       1.71640       15.5994           0 -0.978253       1.30000    
     50840 TIP3     4927     SWM4     DOH2     DOH2     -1.71640      0.400000           0   0.00000       0.00000    
     50841 TIP3     4927     SWM4     OM       LPDW     -1.11466       0.00000          -1   0.00000       0.00000    
     50842 TIP3     4927     SWM4     H1       HDW      0.557330       1.00800           0   0.00000       0.00000    
     50843 TIP3     4927     SWM4     H2       HDW      0.557330       1.00800           0   0.00000       0.00000    
     50844 TIP3     4928     SWM4     OH2      ODW       1.71640       15.5994           0 -0.978253       1.30000    
     50845 TIP3     4928     SWM4     DOH2     DOH2     -1.71640      0.400000           0   0.00000       0.00000    
     50846 TIP3     4928     SWM4     OM       LPDW     -1.11466       0.00000          -1   0.00000       0.00000    
     50847 TIP3     4928     SWM4     H1       HDW      0.557330       1.00800           0   0.00000       0.00000    
     50848 TIP3     4928     SWM4     H2       HDW      0.557330       1.00800           0   0.00000       0.00000    
     50849 TIP3     4929     SWM4     OH2      ODW       1.71640       15.5994           0 -0.978253       1.30000    
     50850 TIP3     4929     SWM4     DOH2     DOH2     -1.71640      0.400000           0   0.00000       0.00000    
     50851 TIP3     4929     SWM4     OM       LPDW     -1.11466       0.00000          -1   0.00000       0.00000    
     50852 TIP3     4929     SWM4     H1       HDW      0.557330       1.00800           0   0.00000       0.00000    
     50853 TIP3     4929     SWM4     H2       HDW      0.557330       1.00800           0   0.00000       0.00000    
     50854 TIP3     4930     SWM4     OH2      ODW       1.71640       15.5994           0 -0.978253       1.30000    
     50855 TIP3     4930     SWM4     DOH2     DOH2     -1.71640      0.400000           0   0.00000       0.00000    
     50856 TIP3     4930     SWM4     OM       LPDW     -1.11466       0.00000          -1   0.00000       0.00000    
     50857 TIP3     4930     SWM4     H1       HDW      0.557330       1.00800           0   0.00000       0.00000    
     50858 TIP3     4930     SWM4     H2       HDW      0.557330       1.00800           0   0.00000       0.00000    
     50859 TIP3     4931     SWM4     OH2      ODW       1.71640       15.5994           0 -0.978253       1.30000    
     50860 TIP3     4931     SWM4     DOH2     DOH2     -1.71640      0.400000           0   0.00000       0.00000    
     50861 TIP3     4931     SWM4     OM       LPDW     -1.11466       0.00000          -1   0.00000       0.00000    
     50862 TIP3     4931     SWM4     H1       HDW      0.557330       1.00800           0   0.00000       0.00000    
     50863 TIP3     4931     SWM4     H2       HDW      0.557330       1.00800           0   0.00000       0.00000    
     50864 TIP3     4932     SWM4     OH2      ODW       1.71640       15.5994           0 -0.978253       1.30000    
     50865 TIP3     4932     SWM4     DOH2     DOH2     -1.71640      0.400000           0   0.00000       0.00000    
     50866 TIP3     4932     SWM4     OM       LPDW     -1.11466       0.00000          -1   0.00000       0.00000    
     50867 TIP3     4932     SWM4     H1       HDW      0.557330       1.00800           0   0.00000       0.00000    
     50868 TIP3     4932     SWM4     H2       HDW      0.557330       1.00800           0   0.00000       0.00000    
     50869 TIP3     4933     SWM4     OH2      ODW       1.71640       15.5994           0 -0.978253       1.30000    
     50870 TIP3     4933     SWM4     DOH2     DOH2     -1.71640      0.400000           0   0.00000       0.00000    
     50871 TIP3     4933     SWM4     OM       LPDW     -1.11466       0.00000          -1   0.00000       0.00000    
     50872 TIP3     4933     SWM4     H1       HDW      0.557330       1.00800           0   0.00000       0.00000    
     50873 TIP3     4933     SWM4     H2       HDW      0.557330       1.00800           0   0.00000       0.00000    
     50874 TIP3     4934     SWM4     OH2      ODW       1.71640       15.5994           0 -0.978253       1.30000    
     50875 TIP3     4934     SWM4     DOH2     DOH2     -1.71640      0.400000           0   0.00000       0.00000    
     50876 TIP3     4934     SWM4     OM       LPDW     -1.11466       0.00000          -1   0.00000       0.00000    
     50877 TIP3     4934     SWM4     H1       HDW      0.557330       1.00800           0   0.00000       0.00000    
     50878 TIP3     4934     SWM4     H2       HDW      0.557330       1.00800           0   0.00000       0.00000    
     50879 TIP3     4935     SWM4     OH2      ODW       1.71640       15.5994           0 -0.978253       1.30000    
     50880 TIP3     4935     SWM4     DOH2     DOH2     -1.71640      0.400000           0   0.00000       0.00000    
     50881 TIP3     4935     SWM4     OM       LPDW     -1.11466       0.00000          -1   0.00000       0.00000    
     50882 TIP3     4935     SWM4     H1       HDW      0.557330       1.00800           0   0.00000       0.00000    
     50883 TIP3     4935     SWM4     H2       HDW      0.557330       1.00800           0   0.00000       0.00000    
     50884 TIP3     4936     SWM4     OH2      ODW       1.71640       15.5994           0 -0.978253       1.30000    
     50885 TIP3     4936     SWM4     DOH2     DOH2     -1.71640      0.400000           0   0.00000       0.00000    
     50886 TIP3     4936     SWM4     OM       LPDW     -1.11466       0.00000          -1   0.00000       0.00000    
     50887 TIP3     4936     SWM4     H1       HDW      0.557330       1.00800           0   0.00000       0.00000    
     50888 TIP3     4936     SWM4     H2       HDW      0.557330       1.00800           0   0.00000       0.00000    
     50889 TIP3     4937     SWM4     OH2      ODW       1.71640       15.5994           0 -0.978253       1.30000    
     50890 TIP3     4937     SWM4     DOH2     DOH2     -1.71640      0.400000           0   0.00000       0.00000    
     50891 TIP3     4937     SWM4     OM       LPDW     -1.11466       0.00000          -1   0.00000       0.00000    
     50892 TIP3     4937     SWM4     H1       HDW      0.557330       1.00800           0   0.00000       0.00000    
     50893 TIP3     4937     SWM4     H2       HDW      0.557330       1.00800           0   0.00000       0.00000    
     50894 TIP3     4938     SWM4     OH2      ODW       1.71640       15.5994           0 -0.978253       1.30000    
     50895 TIP3     4938     SWM4     DOH2     DOH2     -1.71640      0.400000           0   0.00000       0.00000    
     50896 TIP3     4938     SWM4     OM       LPDW     -1.11466       0.00000          -1   0.00000       0.00000    
     50897 TIP3     4938     SWM4     H1       HDW      0.557330       1.00800           0   0.00000       0.00000    
     50898 TIP3     4938     SWM4     H2       HDW      0.557330       1.00800           0   0.00000       0.00000    
     50899 TIP3     4939     SWM4     OH2      ODW       1.71640       15.5994           0 -0.978253       1.30000    
     50900 TIP3     4939     SWM4     DOH2     DOH2     -1.71640      0.400000           0   0.00000       0.00000    
     50901 TIP3     4939     SWM4     OM       LPDW     -1.11466       0.00000          -1   0.00000       0.00000    
     50902 TIP3     4939     SWM4     H1       HDW      0.557330       1.00800           0   0.00000       0.00000    
     50903 TIP3     4939     SWM4     H2       HDW      0.557330       1.00800           0   0.00000       0.00000    
     50904 TIP3     4940     SWM4     OH2      ODW       1.71640       15.5994           0 -0.978253       1.30000    
     50905 TIP3     4940     SWM4     DOH2     DOH2     -1.71640      0.400000           0   0.00000       0.00000    
     50906 TIP3     4940     SWM4     OM       LPDW     -1.11466       0.00000          -1   0.00000       0.00000    
     50907 TIP3     4940     SWM4     H1       HDW      0.557330       1.00800           0   0.00000       0.00000    
     50908 TIP3     4940     SWM4     H2       HDW      0.557330       1.00800           0   0.00000       0.00000    
     50909 TIP3     4941     SWM4     OH2      ODW       1.71640       15.5994           0 -0.978253       1.30000    
     50910 TIP3     4941     SWM4     DOH2     DOH2     -1.71640      0.400000           0   0.00000       0.00000    
     50911 TIP3     4941     SWM4     OM       LPDW     -1.11466       0.00000          -1   0.00000       0.00000    
     50912 TIP3     4941     SWM4     H1       HDW      0.557330       1.00800           0   0.00000       0.00000    
     50913 TIP3     4941     SWM4     H2       HDW      0.557330       1.00800           0   0.00000       0.00000    
     50914 TIP3     4942     SWM4     OH2      ODW       1.71640       15.5994           0 -0.978253       1.30000    
     50915 TIP3     4942     SWM4     DOH2     DOH2     -1.71640      0.400000           0   0.00000       0.00000    
     50916 TIP3     4942     SWM4     OM       LPDW     -1.11466       0.00000          -1   0.00000       0.00000    
     50917 TIP3     4942     SWM4     H1       HDW      0.557330       1.00800           0   0.00000       0.00000    
     50918 TIP3     4942     SWM4     H2       HDW      0.557330       1.00800           0   0.00000       0.00000    
     50919 TIP3     4943     SWM4     OH2      ODW       1.71640       15.5994           0 -0.978253       1.30000    
     50920 TIP3     4943     SWM4     DOH2     DOH2     -1.71640      0.400000           0   0.00000       0.00000    
     50921 TIP3     4943     SWM4     OM       LPDW     -1.11466       0.00000          -1   0.00000       0.00000    
     50922 TIP3     4943     SWM4     H1       HDW      0.557330       1.00800           0   0.00000       0.00000    
     50923 TIP3     4943     SWM4     H2       HDW      0.557330       1.00800           0   0.00000       0.00000    
     50924 TIP3     4944     SWM4     OH2      ODW       1.71640       15.5994           0 -0.978253       1.30000    
     50925 TIP3     4944     SWM4     DOH2     DOH2     -1.71640      0.400000           0   0.00000       0.00000    
     50926 TIP3     4944     SWM4     OM       LPDW     -1.11466       0.00000          -1   0.00000       0.00000    
     50927 TIP3     4944     SWM4     H1       HDW      0.557330       1.00800           0   0.00000       0.00000    
     50928 TIP3     4944     SWM4     H2       HDW      0.557330       1.00800           0   0.00000       0.00000    
     50929 TIP3     4945     SWM4     OH2      ODW       1.71640       15.5994           0 -0.978253       1.30000    
     50930 TIP3     4945     SWM4     DOH2     DOH2     -1.71640      0.400000           0   0.00000       0.00000    
     50931 TIP3     4945     SWM4     OM       LPDW     -1.11466       0.00000          -1   0.00000       0.00000    
     50932 TIP3     4945     SWM4     H1       HDW      0.557330       1.00800           0   0.00000       0.00000    
     50933 TIP3     4945     SWM4     H2       HDW      0.557330       1.00800           0   0.00000       0.00000    
     50934 TIP3     4946     SWM4     OH2      ODW       1.71640       15.5994           0 -0.978253       1.30000    
     50935 TIP3     4946     SWM4     DOH2     DOH2     -1.71640      0.400000           0   0.00000       0.00000    
     50936 TIP3     4946     SWM4     OM       LPDW     -1.11466       0.00000          -1   0.00000       0.00000    
     50937 TIP3     4946     SWM4     H1       HDW      0.557330       1.00800           0   0.00000       0.00000    
     50938 TIP3     4946     SWM4     H2       HDW      0.557330       1.00800           0   0.00000       0.00000    
     50939 TIP3     4947     SWM4     OH2      ODW       1.71640       15.5994           0 -0.978253       1.30000    
     50940 TIP3     4947     SWM4     DOH2     DOH2     -1.71640      0.400000           0   0.00000       0.00000    
     50941 TIP3     4947     SWM4     OM       LPDW     -1.11466       0.00000          -1   0.00000       0.00000    
     50942 TIP3     4947     SWM4     H1       HDW      0.557330       1.00800           0   0.00000       0.00000    
     50943 TIP3     4947     SWM4     H2       HDW      0.557330       1.00800           0   0.00000       0.00000    
     50944 TIP3     4948     SWM4     OH2      ODW       1.71640       15.5994           0 -0.978253       1.30000    
     50945 TIP3     4948     SWM4     DOH2     DOH2     -1.71640      0.400000           0   0.00000       0.00000    
     50946 TIP3     4948     SWM4     OM       LPDW     -1.11466       0.00000          -1   0.00000       0.00000    
     50947 TIP3     4948     SWM4     H1       HDW      0.557330       1.00800           0   0.00000       0.00000    
     50948 TIP3     4948     SWM4     H2       HDW      0.557330       1.00800           0   0.00000       0.00000    
     50949 TIP3     4949     SWM4     OH2      ODW       1.71640       15.5994           0 -0.978253       1.30000    
     50950 TIP3     4949     SWM4     DOH2     DOH2     -1.71640      0.400000           0   0.00000       0.00000    
     50951 TIP3     4949     SWM4     OM       LPDW     -1.11466       0.00000          -1   0.00000       0.00000    
     50952 TIP3     4949     SWM4     H1       HDW      0.557330       1.00800           0   0.00000       0.00000    
     50953 TIP3     4949     SWM4     H2       HDW      0.557330       1.00800           0   0.00000       0.00000    
     50954 TIP3     4950     SWM4     OH2      ODW       1.71640       15.5994           0 -0.978253       1.30000    
     50955 TIP3     4950     SWM4     DOH2     DOH2     -1.71640      0.400000           0   0.00000       0.00000    
     50956 TIP3     4950     SWM4     OM       LPDW     -1.11466       0.00000          -1   0.00000       0.00000    
     50957 TIP3     4950     SWM4     H1       HDW      0.557330       1.00800           0   0.00000       0.00000    
     50958 TIP3     4950     SWM4     H2       HDW      0.557330       1.00800           0   0.00000       0.00000    
     50959 TIP3     4951     SWM4     OH2      ODW       1.71640       15.5994           0 -0.978253       1.30000    
     50960 TIP3     4951     SWM4     DOH2     DOH2     -1.71640      0.400000           0   0.00000       0.00000    
     50961 TIP3     4951     SWM4     OM       LPDW     -1.11466       0.00000          -1   0.00000       0.00000    
     50962 TIP3     4951     SWM4     H1       HDW      0.557330       1.00800           0   0.00000       0.00000    
     50963 TIP3     4951     SWM4     H2       HDW      0.557330       1.00800           0   0.00000       0.00000    
     50964 TIP3     4952     SWM4     OH2      ODW       1.71640       15.5994           0 -0.978253       1.30000    
     50965 TIP3     4952     SWM4     DOH2     DOH2     -1.71640      0.400000           0   0.00000       0.00000    
     50966 TIP3     4952     SWM4     OM       LPDW     -1.11466       0.00000          -1   0.00000       0.00000    
     50967 TIP3     4952     SWM4     H1       HDW      0.557330       1.00800           0   0.00000       0.00000    
     50968 TIP3     4952     SWM4     H2       HDW      0.557330       1.00800           0   0.00000       0.00000    
     50969 TIP3     4953     SWM4     OH2      ODW       1.71640       15.5994           0 -0.978253       1.30000    
     50970 TIP3     4953     SWM4     DOH2     DOH2     -1.71640      0.400000           0   0.00000       0.00000    
     50971 TIP3     4953     SWM4     OM       LPDW     -1.11466       0.00000          -1   0.00000       0.00000    
     50972 TIP3     4953     SWM4     H1       HDW      0.557330       1.00800           0   0.00000       0.00000    
     50973 TIP3     4953     SWM4     H2       HDW      0.557330       1.00800           0   0.00000       0.00000    
     50974 TIP3     4954     SWM4     OH2      ODW       1.71640       15.5994           0 -0.978253       1.30000    
     50975 TIP3     4954     SWM4     DOH2     DOH2     -1.71640      0.400000           0   0.00000       0.00000    
     50976 TIP3     4954     SWM4     OM       LPDW     -1.11466       0.00000          -1   0.00000       0.00000    
     50977 TIP3     4954     SWM4     H1       HDW      0.557330       1.00800           0   0.00000       0.00000    
     50978 TIP3     4954     SWM4     H2       HDW      0.557330       1.00800           0   0.00000       0.00000    
     50979 TIP3     4955     SWM4     OH2      ODW       1.71640       15.5994           0 -0.978253       1.30000    
     50980 TIP3     4955     SWM4     DOH2     DOH2     -1.71640      0.400000           0   0.00000       0.00000    
     50981 TIP3     4955     SWM4     OM       LPDW     -1.11466       0.00000          -1   0.00000       0.00000    
     50982 TIP3     4955     SWM4     H1       HDW      0.557330       1.00800           0   0.00000       0.00000    
     50983 TIP3     4955     SWM4     H2       HDW      0.557330       1.00800           0   0.00000       0.00000    
     50984 TIP3     4956     SWM4     OH2      ODW       1.71640       15.5994           0 -0.978253       1.30000    
     50985 TIP3     4956     SWM4     DOH2     DOH2     -1.71640      0.400000           0   0.00000       0.00000    
     50986 TIP3     4956     SWM4     OM       LPDW     -1.11466       0.00000          -1   0.00000       0.00000    
     50987 TIP3     4956     SWM4     H1       HDW      0.557330       1.00800           0   0.00000       0.00000    
     50988 TIP3     4956     SWM4     H2       HDW      0.557330       1.00800           0   0.00000       0.00000    
     50989 TIP3     4957     SWM4     OH2      ODW       1.71640       15.5994           0 -0.978253       1.30000    
     50990 TIP3     4957     SWM4     DOH2     DOH2     -1.71640      0.400000           0   0.00000       0.00000    
     50991 TIP3     4957     SWM4     OM       LPDW     -1.11466       0.00000          -1   0.00000       0.00000    
     50992 TIP3     4957     SWM4     H1       HDW      0.557330       1.00800           0   0.00000       0.00000    
     50993 TIP3     4957     SWM4     H2       HDW      0.557330       1.00800           0   0.00000       0.00000    
     50994 TIP3     4958     SWM4     OH2      ODW       1.71640       15.5994           0 -0.978253       1.30000    
     50995 TIP3     4958     SWM4     DOH2     DOH2     -1.71640      0.400000           0   0.00000       0.00000    
     50996 TIP3     4958     SWM4     OM       LPDW     -1.11466       0.00000          -1   0.00000       0.00000    
     50997 TIP3     4958     SWM4     H1       HDW      0.557330       1.00800           0   0.00000       0.00000    
     50998 TIP3     4958     SWM4     H2       HDW      0.557330       1.00800           0   0.00000       0.00000    
     50999 TIP3     4959     SWM4     OH2      ODW       1.71640       15.5994           0 -0.978253       1.30000    
     51000 TIP3     4959     SWM4     DOH2     DOH2     -1.71640      0.400000           0   0.00000       0.00000    
     51001 TIP3     4959     SWM4     OM       LPDW     -1.11466       0.00000          -1   0.00000       0.00000    
     51002 TIP3     4959     SWM4     H1       HDW      0.557330       1.00800           0   0.00000       0.00000    
     51003 TIP3     4959     SWM4     H2       HDW      0.557330       1.00800           0   0.00000       0.00000    
     51004 TIP3     4960     SWM4     OH2      ODW       1.71640       15.5994           0 -0.978253       1.30000    
     51005 TIP3     4960     SWM4     DOH2     DOH2     -1.71640      0.400000           0   0.00000       0.00000    
     51006 TIP3     4960     SWM4     OM       LPDW     -1.11466       0.00000          -1   0.00000       0.00000    
     51007 TIP3     4960     SWM4     H1       HDW      0.557330       1.00800           0   0.00000       0.00000    
     51008 TIP3     4960     SWM4     H2       HDW      0.557330       1.00800           0   0.00000       0.00000    
     51009 TIP3     4961     SWM4     OH2      ODW       1.71640       15.5994           0 -0.978253       1.30000    
     51010 TIP3     4961     SWM4     DOH2     DOH2     -1.71640      0.400000           0   0.00000       0.00000    
     51011 TIP3     4961     SWM4     OM       LPDW     -1.11466       0.00000          -1   0.00000       0.00000    
     51012 TIP3     4961     SWM4     H1       HDW      0.557330       1.00800           0   0.00000       0.00000    
     51013 TIP3     4961     SWM4     H2       HDW      0.557330       1.00800           0   0.00000       0.00000    
     51014 TIP3     4962     SWM4     OH2      ODW       1.71640       15.5994           0 -0.978253       1.30000    
     51015 TIP3     4962     SWM4     DOH2     DOH2     -1.71640      0.400000           0   0.00000       0.00000    
     51016 TIP3     4962     SWM4     OM       LPDW     -1.11466       0.00000          -1   0.00000       0.00000    
     51017 TIP3     4962     SWM4     H1       HDW      0.557330       1.00800           0   0.00000       0.00000    
     51018 TIP3     4962     SWM4     H2       HDW      0.557330       1.00800           0   0.00000       0.00000    
     51019 TIP3     4963     SWM4     OH2      ODW       1.71640       15.5994           0 -0.978253       1.30000    
     51020 TIP3     4963     SWM4     DOH2     DOH2     -1.71640      0.400000           0   0.00000       0.00000    
     51021 TIP3     4963     SWM4     OM       LPDW     -1.11466       0.00000          -1   0.00000       0.00000    
     51022 TIP3     4963     SWM4     H1       HDW      0.557330       1.00800           0   0.00000       0.00000    
     51023 TIP3     4963     SWM4     H2       HDW      0.557330       1.00800           0   0.00000       0.00000    
     51024 TIP3     4964     SWM4     OH2      ODW       1.71640       15.5994           0 -0.978253       1.30000    
     51025 TIP3     4964     SWM4     DOH2     DOH2     -1.71640      0.400000           0   0.00000       0.00000    
     51026 TIP3     4964     SWM4     OM       LPDW     -1.11466       0.00000          -1   0.00000       0.00000    
     51027 TIP3     4964     SWM4     H1       HDW      0.557330       1.00800           0   0.00000       0.00000    
     51028 TIP3     4964     SWM4     H2       HDW      0.557330       1.00800           0   0.00000       0.00000    
     51029 TIP3     4965     SWM4     OH2      ODW       1.71640       15.5994           0 -0.978253       1.30000    
     51030 TIP3     4965     SWM4     DOH2     DOH2     -1.71640      0.400000           0   0.00000       0.00000    
     51031 TIP3     4965     SWM4     OM       LPDW     -1.11466       0.00000          -1   0.00000       0.00000    
     51032 TIP3     4965     SWM4     H1       HDW      0.557330       1.00800           0   0.00000       0.00000    
     51033 TIP3     4965     SWM4     H2       HDW      0.557330       1.00800           0   0.00000       0.00000    
     51034 TIP3     4966     SWM4     OH2      ODW       1.71640       15.5994           0 -0.978253       1.30000    
     51035 TIP3     4966     SWM4     DOH2     DOH2     -1.71640      0.400000           0   0.00000       0.00000    
     51036 TIP3     4966     SWM4     OM       LPDW     -1.11466       0.00000          -1   0.00000       0.00000    
     51037 TIP3     4966     SWM4     H1       HDW      0.557330       1.00800           0   0.00000       0.00000    
     51038 TIP3     4966     SWM4     H2       HDW      0.557330       1.00800           0   0.00000       0.00000    
     51039 TIP3     4967     SWM4     OH2      ODW       1.71640       15.5994           0 -0.978253       1.30000    
     51040 TIP3     4967     SWM4     DOH2     DOH2     -1.71640      0.400000           0   0.00000       0.00000    
     51041 TIP3     4967     SWM4     OM       LPDW     -1.11466       0.00000          -1   0.00000       0.00000    
     51042 TIP3     4967     SWM4     H1       HDW      0.557330       1.00800           0   0.00000       0.00000    
     51043 TIP3     4967     SWM4     H2       HDW      0.557330       1.00800           0   0.00000       0.00000    
     51044 TIP3     4968     SWM4     OH2      ODW       1.71640       15.5994           0 -0.978253       1.30000    
     51045 TIP3     4968     SWM4     DOH2     DOH2     -1.71640      0.400000           0   0.00000       0.00000    
     51046 TIP3     4968     SWM4     OM       LPDW     -1.11466       0.00000          -1   0.00000       0.00000    
     51047 TIP3     4968     SWM4     H1       HDW      0.557330       1.00800           0   0.00000       0.00000    
     51048 TIP3     4968     SWM4     H2       HDW      0.557330       1.00800           0   0.00000       0.00000    
     51049 TIP3     4969     SWM4     OH2      ODW       1.71640       15.5994           0 -0.978253       1.30000    
     51050 TIP3     4969     SWM4     DOH2     DOH2     -1.71640      0.400000           0   0.00000       0.00000    
     51051 TIP3     4969     SWM4     OM       LPDW     -1.11466       0.00000          -1   0.00000       0.00000    
     51052 TIP3     4969     SWM4     H1       HDW      0.557330       1.00800           0   0.00000       0.00000    
     51053 TIP3     4969     SWM4     H2       HDW      0.557330       1.00800           0   0.00000       0.00000    
     51054 TIP3     4970     SWM4     OH2      ODW       1.71640       15.5994           0 -0.978253       1.30000    
     51055 TIP3     4970     SWM4     DOH2     DOH2     -1.71640      0.400000           0   0.00000       0.00000    
     51056 TIP3     4970     SWM4     OM       LPDW     -1.11466       0.00000          -1   0.00000       0.00000    
     51057 TIP3     4970     SWM4     H1       HDW      0.557330       1.00800           0   0.00000       0.00000    
     51058 TIP3     4970     SWM4     H2       HDW      0.557330       1.00800           0   0.00000       0.00000    
     51059 TIP3     4971     SWM4     OH2      ODW       1.71640       15.5994           0 -0.978253       1.30000    
     51060 TIP3     4971     SWM4     DOH2     DOH2     -1.71640      0.400000           0   0.00000       0.00000    
     51061 TIP3     4971     SWM4     OM       LPDW     -1.11466       0.00000          -1   0.00000       0.00000    
     51062 TIP3     4971     SWM4     H1       HDW      0.557330       1.00800           0   0.00000       0.00000    
     51063 TIP3     4971     SWM4     H2       HDW      0.557330       1.00800           0   0.00000       0.00000    
     51064 TIP3     4972     SWM4     OH2      ODW       1.71640       15.5994           0 -0.978253       1.30000    
     51065 TIP3     4972     SWM4     DOH2     DOH2     -1.71640      0.400000           0   0.00000       0.00000    
     51066 TIP3     4972     SWM4     OM       LPDW     -1.11466       0.00000          -1   0.00000       0.00000    
     51067 TIP3     4972     SWM4     H1       HDW      0.557330       1.00800           0   0.00000       0.00000    
     51068 TIP3     4972     SWM4     H2       HDW      0.557330       1.00800           0   0.00000       0.00000    
     51069 TIP3     4973     SWM4     OH2      ODW       1.71640       15.5994           0 -0.978253       1.30000    
     51070 TIP3     4973     SWM4     DOH2     DOH2     -1.71640      0.400000           0   0.00000       0.00000    
     51071 TIP3     4973     SWM4     OM       LPDW     -1.11466       0.00000          -1   0.00000       0.00000    
     51072 TIP3     4973     SWM4     H1       HDW      0.557330       1.00800           0   0.00000       0.00000    
     51073 TIP3     4973     SWM4     H2       HDW      0.557330       1.00800           0   0.00000       0.00000    
     51074 TIP3     4974     SWM4     OH2      ODW       1.71640       15.5994           0 -0.978253       1.30000    
     51075 TIP3     4974     SWM4     DOH2     DOH2     -1.71640      0.400000           0   0.00000       0.00000    
     51076 TIP3     4974     SWM4     OM       LPDW     -1.11466       0.00000          -1   0.00000       0.00000    
     51077 TIP3     4974     SWM4     H1       HDW      0.557330       1.00800           0   0.00000       0.00000    
     51078 TIP3     4974     SWM4     H2       HDW      0.557330       1.00800           0   0.00000       0.00000    
     51079 TIP3     4975     SWM4     OH2      ODW       1.71640       15.5994           0 -0.978253       1.30000    
     51080 TIP3     4975     SWM4     DOH2     DOH2     -1.71640      0.400000           0   0.00000       0.00000    
     51081 TIP3     4975     SWM4     OM       LPDW     -1.11466       0.00000          -1   0.00000       0.00000    
     51082 TIP3     4975     SWM4     H1       HDW      0.557330       1.00800           0   0.00000       0.00000    
     51083 TIP3     4975     SWM4     H2       HDW      0.557330       1.00800           0   0.00000       0.00000    
     51084 TIP3     4976     SWM4     OH2      ODW       1.71640       15.5994           0 -0.978253       1.30000    
     51085 TIP3     4976     SWM4     DOH2     DOH2     -1.71640      0.400000           0   0.00000       0.00000    
     51086 TIP3     4976     SWM4     OM       LPDW     -1.11466       0.00000          -1   0.00000       0.00000    
     51087 TIP3     4976     SWM4     H1       HDW      0.557330       1.00800           0   0.00000       0.00000    
     51088 TIP3     4976     SWM4     H2       HDW      0.557330       1.00800           0   0.00000       0.00000    
     51089 TIP3     4977     SWM4     OH2      ODW       1.71640       15.5994           0 -0.978253       1.30000    
     51090 TIP3     4977     SWM4     DOH2     DOH2     -1.71640      0.400000           0   0.00000       0.00000    
     51091 TIP3     4977     SWM4     OM       LPDW     -1.11466       0.00000          -1   0.00000       0.00000    
     51092 TIP3     4977     SWM4     H1       HDW      0.557330       1.00800           0   0.00000       0.00000    
     51093 TIP3     4977     SWM4     H2       HDW      0.557330       1.00800           0   0.00000       0.00000    
     51094 TIP3     4978     SWM4     OH2      ODW       1.71640       15.5994           0 -0.978253       1.30000    
     51095 TIP3     4978     SWM4     DOH2     DOH2     -1.71640      0.400000           0   0.00000       0.00000    
     51096 TIP3     4978     SWM4     OM       LPDW     -1.11466       0.00000          -1   0.00000       0.00000    
     51097 TIP3     4978     SWM4     H1       HDW      0.557330       1.00800           0   0.00000       0.00000    
     51098 TIP3     4978     SWM4     H2       HDW      0.557330       1.00800           0   0.00000       0.00000    
     51099 TIP3     4979     SWM4     OH2      ODW       1.71640       15.5994           0 -0.978253       1.30000    
     51100 TIP3     4979     SWM4     DOH2     DOH2     -1.71640      0.400000           0   0.00000       0.00000    
     51101 TIP3     4979     SWM4     OM       LPDW     -1.11466       0.00000          -1   0.00000       0.00000    
     51102 TIP3     4979     SWM4     H1       HDW      0.557330       1.00800           0   0.00000       0.00000    
     51103 TIP3     4979     SWM4     H2       HDW      0.557330       1.00800           0   0.00000       0.00000    
     51104 TIP3     4980     SWM4     OH2      ODW       1.71640       15.5994           0 -0.978253       1.30000    
     51105 TIP3     4980     SWM4     DOH2     DOH2     -1.71640      0.400000           0   0.00000       0.00000    
     51106 TIP3     4980     SWM4     OM       LPDW     -1.11466       0.00000          -1   0.00000       0.00000    
     51107 TIP3     4980     SWM4     H1       HDW      0.557330       1.00800           0   0.00000       0.00000    
     51108 TIP3     4980     SWM4     H2       HDW      0.557330       1.00800           0   0.00000       0.00000    
     51109 TIP3     4981     SWM4     OH2      ODW       1.71640       15.5994           0 -0.978253       1.30000    
     51110 TIP3     4981     SWM4     DOH2     DOH2     -1.71640      0.400000           0   0.00000       0.00000    
     51111 TIP3     4981     SWM4     OM       LPDW     -1.11466       0.00000          -1   0.00000       0.00000    
     51112 TIP3     4981     SWM4     H1       HDW      0.557330       1.00800           0   0.00000       0.00000    
     51113 TIP3     4981     SWM4     H2       HDW      0.557330       1.00800           0   0.00000       0.00000    
     51114 TIP3     4982     SWM4     OH2      ODW       1.71640       15.5994           0 -0.978253       1.30000    
     51115 TIP3     4982     SWM4     DOH2     DOH2     -1.71640      0.400000           0   0.00000       0.00000    
     51116 TIP3     4982     SWM4     OM       LPDW     -1.11466       0.00000          -1   0.00000       0.00000    
     51117 TIP3     4982     SWM4     H1       HDW      0.557330       1.00800           0   0.00000       0.00000    
     51118 TIP3     4982     SWM4     H2       HDW      0.557330       1.00800           0   0.00000       0.00000    
     51119 TIP3     4983     SWM4     OH2      ODW       1.71640       15.5994           0 -0.978253       1.30000    
     51120 TIP3     4983     SWM4     DOH2     DOH2     -1.71640      0.400000           0   0.00000       0.00000    
     51121 TIP3     4983     SWM4     OM       LPDW     -1.11466       0.00000          -1   0.00000       0.00000    
     51122 TIP3     4983     SWM4     H1       HDW      0.557330       1.00800           0   0.00000       0.00000    
     51123 TIP3     4983     SWM4     H2       HDW      0.557330       1.00800           0   0.00000       0.00000    
     51124 TIP3     4984     SWM4     OH2      ODW       1.71640       15.5994           0 -0.978253       1.30000    
     51125 TIP3     4984     SWM4     DOH2     DOH2     -1.71640      0.400000           0   0.00000       0.00000    
     51126 TIP3     4984     SWM4     OM       LPDW     -1.11466       0.00000          -1   0.00000       0.00000    
     51127 TIP3     4984     SWM4     H1       HDW      0.557330       1.00800           0   0.00000       0.00000    
     51128 TIP3     4984     SWM4     H2       HDW      0.557330       1.00800           0   0.00000       0.00000    
     51129 TIP3     4985     SWM4     OH2      ODW       1.71640       15.5994           0 -0.978253       1.30000    
     51130 TIP3     4985     SWM4     DOH2     DOH2     -1.71640      0.400000           0   0.00000       0.00000    
     51131 TIP3     4985     SWM4     OM       LPDW     -1.11466       0.00000          -1   0.00000       0.00000    
     51132 TIP3     4985     SWM4     H1       HDW      0.557330       1.00800           0   0.00000       0.00000    
     51133 TIP3     4985     SWM4     H2       HDW      0.557330       1.00800           0   0.00000       0.00000    
     51134 TIP3     4986     SWM4     OH2      ODW       1.71640       15.5994           0 -0.978253       1.30000    
     51135 TIP3     4986     SWM4     DOH2     DOH2     -1.71640      0.400000           0   0.00000       0.00000    
     51136 TIP3     4986     SWM4     OM       LPDW     -1.11466       0.00000          -1   0.00000       0.00000    
     51137 TIP3     4986     SWM4     H1       HDW      0.557330       1.00800           0   0.00000       0.00000    
     51138 TIP3     4986     SWM4     H2       HDW      0.557330       1.00800           0   0.00000       0.00000    
     51139 TIP3     4987     SWM4     OH2      ODW       1.71640       15.5994           0 -0.978253       1.30000    
     51140 TIP3     4987     SWM4     DOH2     DOH2     -1.71640      0.400000           0   0.00000       0.00000    
     51141 TIP3     4987     SWM4     OM       LPDW     -1.11466       0.00000          -1   0.00000       0.00000    
     51142 TIP3     4987     SWM4     H1       HDW      0.557330       1.00800           0   0.00000       0.00000    
     51143 TIP3     4987     SWM4     H2       HDW      0.557330       1.00800           0   0.00000       0.00000    
     51144 TIP3     4988     SWM4     OH2      ODW       1.71640       15.5994           0 -0.978253       1.30000    
     51145 TIP3     4988     SWM4     DOH2     DOH2     -1.71640      0.400000           0   0.00000       0.00000    
     51146 TIP3     4988     SWM4     OM       LPDW     -1.11466       0.00000          -1   0.00000       0.00000    
     51147 TIP3     4988     SWM4     H1       HDW      0.557330       1.00800           0   0.00000       0.00000    
     51148 TIP3     4988     SWM4     H2       HDW      0.557330       1.00800           0   0.00000       0.00000    
     51149 TIP3     4989     SWM4     OH2      ODW       1.71640       15.5994           0 -0.978253       1.30000    
     51150 TIP3     4989     SWM4     DOH2     DOH2     -1.71640      0.400000           0   0.00000       0.00000    
     51151 TIP3     4989     SWM4     OM       LPDW     -1.11466       0.00000          -1   0.00000       0.00000    
     51152 TIP3     4989     SWM4     H1       HDW      0.557330       1.00800           0   0.00000       0.00000    
     51153 TIP3     4989     SWM4     H2       HDW      0.557330       1.00800           0   0.00000       0.00000    
     51154 TIP3     4990     SWM4     OH2      ODW       1.71640       15.5994           0 -0.978253       1.30000    
     51155 TIP3     4990     SWM4     DOH2     DOH2     -1.71640      0.400000           0   0.00000       0.00000    
     51156 TIP3     4990     SWM4     OM       LPDW     -1.11466       0.00000          -1   0.00000       0.00000    
     51157 TIP3     4990     SWM4     H1       HDW      0.557330       1.00800           0   0.00000       0.00000    
     51158 TIP3     4990     SWM4     H2       HDW      0.557330       1.00800           0   0.00000       0.00000    
     51159 TIP3     4991     SWM4     OH2      ODW       1.71640       15.5994           0 -0.978253       1.30000    
     51160 TIP3     4991     SWM4     DOH2     DOH2     -1.71640      0.400000           0   0.00000       0.00000    
     51161 TIP3     4991     SWM4     OM       LPDW     -1.11466       0.00000          -1   0.00000       0.00000    
     51162 TIP3     4991     SWM4     H1       HDW      0.557330       1.00800           0   0.00000       0.00000    
     51163 TIP3     4991     SWM4     H2       HDW      0.557330       1.00800           0   0.00000       0.00000    
     51164 TIP3     4992     SWM4     OH2      ODW       1.71640       15.5994           0 -0.978253       1.30000    
     51165 TIP3     4992     SWM4     DOH2     DOH2     -1.71640      0.400000           0   0.00000       0.00000    
     51166 TIP3     4992     SWM4     OM       LPDW     -1.11466       0.00000          -1   0.00000       0.00000    
     51167 TIP3     4992     SWM4     H1       HDW      0.557330       1.00800           0   0.00000       0.00000    
     51168 TIP3     4992     SWM4     H2       HDW      0.557330       1.00800           0   0.00000       0.00000    
     51169 TIP3     4993     SWM4     OH2      ODW       1.71640       15.5994           0 -0.978253       1.30000    
     51170 TIP3     4993     SWM4     DOH2     DOH2     -1.71640      0.400000           0   0.00000       0.00000    
     51171 TIP3     4993     SWM4     OM       LPDW     -1.11466       0.00000          -1   0.00000       0.00000    
     51172 TIP3     4993     SWM4     H1       HDW      0.557330       1.00800           0   0.00000       0.00000    
     51173 TIP3     4993     SWM4     H2       HDW      0.557330       1.00800           0   0.00000       0.00000    
     51174 TIP3     4994     SWM4     OH2      ODW       1.71640       15.5994           0 -0.978253       1.30000    
     51175 TIP3     4994     SWM4     DOH2     DOH2     -1.71640      0.400000           0   0.00000       0.00000    
     51176 TIP3     4994     SWM4     OM       LPDW     -1.11466       0.00000          -1   0.00000       0.00000    
     51177 TIP3     4994     SWM4     H1       HDW      0.557330       1.00800           0   0.00000       0.00000    
     51178 TIP3     4994     SWM4     H2       HDW      0.557330       1.00800           0   0.00000       0.00000    
     51179 TIP3     4995     SWM4     OH2      ODW       1.71640       15.5994           0 -0.978253       1.30000    
     51180 TIP3     4995     SWM4     DOH2     DOH2     -1.71640      0.400000           0   0.00000       0.00000    
     51181 TIP3     4995     SWM4     OM       LPDW     -1.11466       0.00000          -1   0.00000       0.00000    
     51182 TIP3     4995     SWM4     H1       HDW      0.557330       1.00800           0   0.00000       0.00000    
     51183 TIP3     4995     SWM4     H2       HDW      0.557330       1.00800           0   0.00000       0.00000    
     51184 TIP3     4996     SWM4     OH2      ODW       1.71640       15.5994           0 -0.978253       1.30000    
     51185 TIP3     4996     SWM4     DOH2     DOH2     -1.71640      0.400000           0   0.00000       0.00000    
     51186 TIP3     4996     SWM4     OM       LPDW     -1.11466       0.00000          -1   0.00000       0.00000    
     51187 TIP3     4996     SWM4     H1       HDW      0.557330       1.00800           0   0.00000       0.00000    
     51188 TIP3     4996     SWM4     H2       HDW      0.557330       1.00800           0   0.00000       0.00000    
     51189 TIP3     4997     SWM4     OH2      ODW       1.71640       15.5994           0 -0.978253       1.30000    
     51190 TIP3     4997     SWM4     DOH2     DOH2     -1.71640      0.400000           0   0.00000       0.00000    
     51191 TIP3     4997     SWM4     OM       LPDW     -1.11466       0.00000          -1   0.00000       0.00000    
     51192 TIP3     4997     SWM4     H1       HDW      0.557330       1.00800           0   0.00000       0.00000    
     51193 TIP3     4997     SWM4     H2       HDW      0.557330       1.00800           0   0.00000       0.00000    
     51194 TIP3     4998     SWM4     OH2      ODW       1.71640       15.5994           0 -0.978253       1.30000    
     51195 TIP3     4998     SWM4     DOH2     DOH2     -1.71640      0.400000           0   0.00000       0.00000    
     51196 TIP3     4998     SWM4     OM       LPDW     -1.11466       0.00000          -1   0.00000       0.00000    
     51197 TIP3     4998     SWM4     H1       HDW      0.557330       1.00800           0   0.00000       0.00000    
     51198 TIP3     4998     SWM4     H2       HDW      0.557330       1.00800           0   0.00000       0.00000    
     51199 TIP3     4999     SWM4     OH2      ODW       1.71640       15.5994           0 -0.978253       1.30000    
     51200 TIP3     4999     SWM4     DOH2     DOH2     -1.71640      0.400000           0   0.00000       0.00000    
     51201 TIP3     4999     SWM4     OM       LPDW     -1.11466       0.00000          -1   0.00000       0.00000    
     51202 TIP3     4999     SWM4     H1       HDW      0.557330       1.00800           0   0.00000       0.00000    
     51203 TIP3     4999     SWM4     H2       HDW      0.557330       1.00800           0   0.00000       0.00000    
     51204 TIP3     5000     SWM4     OH2      ODW       1.71640       15.5994           0 -0.978253       1.30000    
     51205 TIP3     5000     SWM4     DOH2     DOH2     -1.71640      0.400000           0   0.00000       0.00000    
     51206 TIP3     5000     SWM4     OM       LPDW     -1.11466       0.00000          -1   0.00000       0.00000    
     51207 TIP3     5000     SWM4     H1       HDW      0.557330       1.00800           0   0.00000       0.00000    
     51208 TIP3     5000     SWM4     H2       HDW      0.557330       1.00800           0   0.00000       0.00000    
     51209 TIP3     5001     SWM4     OH2      ODW       1.71640       15.5994           0 -0.978253       1.30000    
     51210 TIP3     5001     SWM4     DOH2     DOH2     -1.71640      0.400000           0   0.00000       0.00000    
     51211 TIP3     5001     SWM4     OM       LPDW     -1.11466       0.00000          -1   0.00000       0.00000    
     51212 TIP3     5001     SWM4     H1       HDW      0.557330       1.00800           0   0.00000       0.00000    
     51213 TIP3     5001     SWM4     H2       HDW      0.557330       1.00800           0   0.00000       0.00000    
     51214 TIP3     5002     SWM4     OH2      ODW       1.71640       15.5994           0 -0.978253       1.30000    
     51215 TIP3     5002     SWM4     DOH2     DOH2     -1.71640      0.400000           0   0.00000       0.00000    
     51216 TIP3     5002     SWM4     OM       LPDW     -1.11466       0.00000          -1   0.00000       0.00000    
     51217 TIP3     5002     SWM4     H1       HDW      0.557330       1.00800           0   0.00000       0.00000    
     51218 TIP3     5002     SWM4     H2       HDW      0.557330       1.00800           0   0.00000       0.00000    
     51219 TIP3     5003     SWM4     OH2      ODW       1.71640       15.5994           0 -0.978253       1.30000    
     51220 TIP3     5003     SWM4     DOH2     DOH2     -1.71640      0.400000           0   0.00000       0.00000    
     51221 TIP3     5003     SWM4     OM       LPDW     -1.11466       0.00000          -1   0.00000       0.00000    
     51222 TIP3     5003     SWM4     H1       HDW      0.557330       1.00800           0   0.00000       0.00000    
     51223 TIP3     5003     SWM4     H2       HDW      0.557330       1.00800           0   0.00000       0.00000    
     51224 TIP3     5004     SWM4     OH2      ODW       1.71640       15.5994           0 -0.978253       1.30000    
     51225 TIP3     5004     SWM4     DOH2     DOH2     -1.71640      0.400000           0   0.00000       0.00000    
     51226 TIP3     5004     SWM4     OM       LPDW     -1.11466       0.00000          -1   0.00000       0.00000    
     51227 TIP3     5004     SWM4     H1       HDW      0.557330       1.00800           0   0.00000       0.00000    
     51228 TIP3     5004     SWM4     H2       HDW      0.557330       1.00800           0   0.00000       0.00000    
     51229 TIP3     5005     SWM4     OH2      ODW       1.71640       15.5994           0 -0.978253       1.30000    
     51230 TIP3     5005     SWM4     DOH2     DOH2     -1.71640      0.400000           0   0.00000       0.00000    
     51231 TIP3     5005     SWM4     OM       LPDW     -1.11466       0.00000          -1   0.00000       0.00000    
     51232 TIP3     5005     SWM4     H1       HDW      0.557330       1.00800           0   0.00000       0.00000    
     51233 TIP3     5005     SWM4     H2       HDW      0.557330       1.00800           0   0.00000       0.00000    
     51234 TIP3     5006     SWM4     OH2      ODW       1.71640       15.5994           0 -0.978253       1.30000    
     51235 TIP3     5006     SWM4     DOH2     DOH2     -1.71640      0.400000           0   0.00000       0.00000    
     51236 TIP3     5006     SWM4     OM       LPDW     -1.11466       0.00000          -1   0.00000       0.00000    
     51237 TIP3     5006     SWM4     H1       HDW      0.557330       1.00800           0   0.00000       0.00000    
     51238 TIP3     5006     SWM4     H2       HDW      0.557330       1.00800           0   0.00000       0.00000    
     51239 TIP3     5007     SWM4     OH2      ODW       1.71640       15.5994           0 -0.978253       1.30000    
     51240 TIP3     5007     SWM4     DOH2     DOH2     -1.71640      0.400000           0   0.00000       0.00000    
     51241 TIP3     5007     SWM4     OM       LPDW     -1.11466       0.00000          -1   0.00000       0.00000    
     51242 TIP3     5007     SWM4     H1       HDW      0.557330       1.00800           0   0.00000       0.00000    
     51243 TIP3     5007     SWM4     H2       HDW      0.557330       1.00800           0   0.00000       0.00000    
     51244 TIP3     5008     SWM4     OH2      ODW       1.71640       15.5994           0 -0.978253       1.30000    
     51245 TIP3     5008     SWM4     DOH2     DOH2     -1.71640      0.400000           0   0.00000       0.00000    
     51246 TIP3     5008     SWM4     OM       LPDW     -1.11466       0.00000          -1   0.00000       0.00000    
     51247 TIP3     5008     SWM4     H1       HDW      0.557330       1.00800           0   0.00000       0.00000    
     51248 TIP3     5008     SWM4     H2       HDW      0.557330       1.00800           0   0.00000       0.00000    
     51249 TIP3     5009     SWM4     OH2      ODW       1.71640       15.5994           0 -0.978253       1.30000    
     51250 TIP3     5009     SWM4     DOH2     DOH2     -1.71640      0.400000           0   0.00000       0.00000    
     51251 TIP3     5009     SWM4     OM       LPDW     -1.11466       0.00000          -1   0.00000       0.00000    
     51252 TIP3     5009     SWM4     H1       HDW      0.557330       1.00800           0   0.00000       0.00000    
     51253 TIP3     5009     SWM4     H2       HDW      0.557330       1.00800           0   0.00000       0.00000    
     51254 TIP3     5010     SWM4     OH2      ODW       1.71640       15.5994           0 -0.978253       1.30000    
     51255 TIP3     5010     SWM4     DOH2     DOH2     -1.71640      0.400000           0   0.00000       0.00000    
     51256 TIP3     5010     SWM4     OM       LPDW     -1.11466       0.00000          -1   0.00000       0.00000    
     51257 TIP3     5010     SWM4     H1       HDW      0.557330       1.00800           0   0.00000       0.00000    
     51258 TIP3     5010     SWM4     H2       HDW      0.557330       1.00800           0   0.00000       0.00000    
     51259 TIP3     5011     SWM4     OH2      ODW       1.71640       15.5994           0 -0.978253       1.30000    
     51260 TIP3     5011     SWM4     DOH2     DOH2     -1.71640      0.400000           0   0.00000       0.00000    
     51261 TIP3     5011     SWM4     OM       LPDW     -1.11466       0.00000          -1   0.00000       0.00000    
     51262 TIP3     5011     SWM4     H1       HDW      0.557330       1.00800           0   0.00000       0.00000    
     51263 TIP3     5011     SWM4     H2       HDW      0.557330       1.00800           0   0.00000       0.00000    
     51264 TIP3     5012     SWM4     OH2      ODW       1.71640       15.5994           0 -0.978253       1.30000    
     51265 TIP3     5012     SWM4     DOH2     DOH2     -1.71640      0.400000           0   0.00000       0.00000    
     51266 TIP3     5012     SWM4     OM       LPDW     -1.11466       0.00000          -1   0.00000       0.00000    
     51267 TIP3     5012     SWM4     H1       HDW      0.557330       1.00800           0   0.00000       0.00000    
     51268 TIP3     5012     SWM4     H2       HDW      0.557330       1.00800           0   0.00000       0.00000    
     51269 TIP3     5013     SWM4     OH2      ODW       1.71640       15.5994           0 -0.978253       1.30000    
     51270 TIP3     5013     SWM4     DOH2     DOH2     -1.71640      0.400000           0   0.00000       0.00000    
     51271 TIP3     5013     SWM4     OM       LPDW     -1.11466       0.00000          -1   0.00000       0.00000    
     51272 TIP3     5013     SWM4     H1       HDW      0.557330       1.00800           0   0.00000       0.00000    
     51273 TIP3     5013     SWM4     H2       HDW      0.557330       1.00800           0   0.00000       0.00000    
     51274 TIP3     5014     SWM4     OH2      ODW       1.71640       15.5994           0 -0.978253       1.30000    
     51275 TIP3     5014     SWM4     DOH2     DOH2     -1.71640      0.400000           0   0.00000       0.00000    
     51276 TIP3     5014     SWM4     OM       LPDW     -1.11466       0.00000          -1   0.00000       0.00000    
     51277 TIP3     5014     SWM4     H1       HDW      0.557330       1.00800           0   0.00000       0.00000    
     51278 TIP3     5014     SWM4     H2       HDW      0.557330       1.00800           0   0.00000       0.00000    
     51279 TIP3     5015     SWM4     OH2      ODW       1.71640       15.5994           0 -0.978253       1.30000    
     51280 TIP3     5015     SWM4     DOH2     DOH2     -1.71640      0.400000           0   0.00000       0.00000    
     51281 TIP3     5015     SWM4     OM       LPDW     -1.11466       0.00000          -1   0.00000       0.00000    
     51282 TIP3     5015     SWM4     H1       HDW      0.557330       1.00800           0   0.00000       0.00000    
     51283 TIP3     5015     SWM4     H2       HDW      0.557330       1.00800           0   0.00000       0.00000    
     51284 TIP3     5016     SWM4     OH2      ODW       1.71640       15.5994           0 -0.978253       1.30000    
     51285 TIP3     5016     SWM4     DOH2     DOH2     -1.71640      0.400000           0   0.00000       0.00000    
     51286 TIP3     5016     SWM4     OM       LPDW     -1.11466       0.00000          -1   0.00000       0.00000    
     51287 TIP3     5016     SWM4     H1       HDW      0.557330       1.00800           0   0.00000       0.00000    
     51288 TIP3     5016     SWM4     H2       HDW      0.557330       1.00800           0   0.00000       0.00000    
     51289 TIP3     5017     SWM4     OH2      ODW       1.71640       15.5994           0 -0.978253       1.30000    
     51290 TIP3     5017     SWM4     DOH2     DOH2     -1.71640      0.400000           0   0.00000       0.00000    
     51291 TIP3     5017     SWM4     OM       LPDW     -1.11466       0.00000          -1   0.00000       0.00000    
     51292 TIP3     5017     SWM4     H1       HDW      0.557330       1.00800           0   0.00000       0.00000    
     51293 TIP3     5017     SWM4     H2       HDW      0.557330       1.00800           0   0.00000       0.00000    
     51294 TIP3     5018     SWM4     OH2      ODW       1.71640       15.5994           0 -0.978253       1.30000    
     51295 TIP3     5018     SWM4     DOH2     DOH2     -1.71640      0.400000           0   0.00000       0.00000    
     51296 TIP3     5018     SWM4     OM       LPDW     -1.11466       0.00000          -1   0.00000       0.00000    
     51297 TIP3     5018     SWM4     H1       HDW      0.557330       1.00800           0   0.00000       0.00000    
     51298 TIP3     5018     SWM4     H2       HDW      0.557330       1.00800           0   0.00000       0.00000    
     51299 TIP3     5019     SWM4     OH2      ODW       1.71640       15.5994           0 -0.978253       1.30000    
     51300 TIP3     5019     SWM4     DOH2     DOH2     -1.71640      0.400000           0   0.00000       0.00000    
     51301 TIP3     5019     SWM4     OM       LPDW     -1.11466       0.00000          -1   0.00000       0.00000    
     51302 TIP3     5019     SWM4     H1       HDW      0.557330       1.00800           0   0.00000       0.00000    
     51303 TIP3     5019     SWM4     H2       HDW      0.557330       1.00800           0   0.00000       0.00000    
     51304 TIP3     5020     SWM4     OH2      ODW       1.71640       15.5994           0 -0.978253       1.30000    
     51305 TIP3     5020     SWM4     DOH2     DOH2     -1.71640      0.400000           0   0.00000       0.00000    
     51306 TIP3     5020     SWM4     OM       LPDW     -1.11466       0.00000          -1   0.00000       0.00000    
     51307 TIP3     5020     SWM4     H1       HDW      0.557330       1.00800           0   0.00000       0.00000    
     51308 TIP3     5020     SWM4     H2       HDW      0.557330       1.00800           0   0.00000       0.00000    
     51309 TIP3     5021     SWM4     OH2      ODW       1.71640       15.5994           0 -0.978253       1.30000    
     51310 TIP3     5021     SWM4     DOH2     DOH2     -1.71640      0.400000           0   0.00000       0.00000    
     51311 TIP3     5021     SWM4     OM       LPDW     -1.11466       0.00000          -1   0.00000       0.00000    
     51312 TIP3     5021     SWM4     H1       HDW      0.557330       1.00800           0   0.00000       0.00000    
     51313 TIP3     5021     SWM4     H2       HDW      0.557330       1.00800           0   0.00000       0.00000    
     51314 TIP3     5022     SWM4     OH2      ODW       1.71640       15.5994           0 -0.978253       1.30000    
     51315 TIP3     5022     SWM4     DOH2     DOH2     -1.71640      0.400000           0   0.00000       0.00000    
     51316 TIP3     5022     SWM4     OM       LPDW     -1.11466       0.00000          -1   0.00000       0.00000    
     51317 TIP3     5022     SWM4     H1       HDW      0.557330       1.00800           0   0.00000       0.00000    
     51318 TIP3     5022     SWM4     H2       HDW      0.557330       1.00800           0   0.00000       0.00000    
     51319 TIP3     5023     SWM4     OH2      ODW       1.71640       15.5994           0 -0.978253       1.30000    
     51320 TIP3     5023     SWM4     DOH2     DOH2     -1.71640      0.400000           0   0.00000       0.00000    
     51321 TIP3     5023     SWM4     OM       LPDW     -1.11466       0.00000          -1   0.00000       0.00000    
     51322 TIP3     5023     SWM4     H1       HDW      0.557330       1.00800           0   0.00000       0.00000    
     51323 TIP3     5023     SWM4     H2       HDW      0.557330       1.00800           0   0.00000       0.00000    
     51324 TIP3     5024     SWM4     OH2      ODW       1.71640       15.5994           0 -0.978253       1.30000    
     51325 TIP3     5024     SWM4     DOH2     DOH2     -1.71640      0.400000           0   0.00000       0.00000    
     51326 TIP3     5024     SWM4     OM       LPDW     -1.11466       0.00000          -1   0.00000       0.00000    
     51327 TIP3     5024     SWM4     H1       HDW      0.557330       1.00800           0   0.00000       0.00000    
     51328 TIP3     5024     SWM4     H2       HDW      0.557330       1.00800           0   0.00000       0.00000    
     51329 TIP3     5025     SWM4     OH2      ODW       1.71640       15.5994           0 -0.978253       1.30000    
     51330 TIP3     5025     SWM4     DOH2     DOH2     -1.71640      0.400000           0   0.00000       0.00000    
     51331 TIP3     5025     SWM4     OM       LPDW     -1.11466       0.00000          -1   0.00000       0.00000    
     51332 TIP3     5025     SWM4     H1       HDW      0.557330       1.00800           0   0.00000       0.00000    
     51333 TIP3     5025     SWM4     H2       HDW      0.557330       1.00800           0   0.00000       0.00000    
     51334 TIP3     5026     SWM4     OH2      ODW       1.71640       15.5994           0 -0.978253       1.30000    
     51335 TIP3     5026     SWM4     DOH2     DOH2     -1.71640      0.400000           0   0.00000       0.00000    
     51336 TIP3     5026     SWM4     OM       LPDW     -1.11466       0.00000          -1   0.00000       0.00000    
     51337 TIP3     5026     SWM4     H1       HDW      0.557330       1.00800           0   0.00000       0.00000    
     51338 TIP3     5026     SWM4     H2       HDW      0.557330       1.00800           0   0.00000       0.00000    
     51339 TIP3     5027     SWM4     OH2      ODW       1.71640       15.5994           0 -0.978253       1.30000    
     51340 TIP3     5027     SWM4     DOH2     DOH2     -1.71640      0.400000           0   0.00000       0.00000    
     51341 TIP3     5027     SWM4     OM       LPDW     -1.11466       0.00000          -1   0.00000       0.00000    
     51342 TIP3     5027     SWM4     H1       HDW      0.557330       1.00800           0   0.00000       0.00000    
     51343 TIP3     5027     SWM4     H2       HDW      0.557330       1.00800           0   0.00000       0.00000    
     51344 TIP3     5028     SWM4     OH2      ODW       1.71640       15.5994           0 -0.978253       1.30000    
     51345 TIP3     5028     SWM4     DOH2     DOH2     -1.71640      0.400000           0   0.00000       0.00000    
     51346 TIP3     5028     SWM4     OM       LPDW     -1.11466       0.00000          -1   0.00000       0.00000    
     51347 TIP3     5028     SWM4     H1       HDW      0.557330       1.00800           0   0.00000       0.00000    
     51348 TIP3     5028     SWM4     H2       HDW      0.557330       1.00800           0   0.00000       0.00000    
     51349 TIP3     5029     SWM4     OH2      ODW       1.71640       15.5994           0 -0.978253       1.30000    
     51350 TIP3     5029     SWM4     DOH2     DOH2     -1.71640      0.400000           0   0.00000       0.00000    
     51351 TIP3     5029     SWM4     OM       LPDW     -1.11466       0.00000          -1   0.00000       0.00000    
     51352 TIP3     5029     SWM4     H1       HDW      0.557330       1.00800           0   0.00000       0.00000    
     51353 TIP3     5029     SWM4     H2       HDW      0.557330       1.00800           0   0.00000       0.00000    
     51354 TIP3     5030     SWM4     OH2      ODW       1.71640       15.5994           0 -0.978253       1.30000    
     51355 TIP3     5030     SWM4     DOH2     DOH2     -1.71640      0.400000           0   0.00000       0.00000    
     51356 TIP3     5030     SWM4     OM       LPDW     -1.11466       0.00000          -1   0.00000       0.00000    
     51357 TIP3     5030     SWM4     H1       HDW      0.557330       1.00800           0   0.00000       0.00000    
     51358 TIP3     5030     SWM4     H2       HDW      0.557330       1.00800           0   0.00000       0.00000    
     51359 TIP3     5031     SWM4     OH2      ODW       1.71640       15.5994           0 -0.978253       1.30000    
     51360 TIP3     5031     SWM4     DOH2     DOH2     -1.71640      0.400000           0   0.00000       0.00000    
     51361 TIP3     5031     SWM4     OM       LPDW     -1.11466       0.00000          -1   0.00000       0.00000    
     51362 TIP3     5031     SWM4     H1       HDW      0.557330       1.00800           0   0.00000       0.00000    
     51363 TIP3     5031     SWM4     H2       HDW      0.557330       1.00800           0   0.00000       0.00000    
     51364 TIP3     5032     SWM4     OH2      ODW       1.71640       15.5994           0 -0.978253       1.30000    
     51365 TIP3     5032     SWM4     DOH2     DOH2     -1.71640      0.400000           0   0.00000       0.00000    
     51366 TIP3     5032     SWM4     OM       LPDW     -1.11466       0.00000          -1   0.00000       0.00000    
     51367 TIP3     5032     SWM4     H1       HDW      0.557330       1.00800           0   0.00000       0.00000    
     51368 TIP3     5032     SWM4     H2       HDW      0.557330       1.00800           0   0.00000       0.00000    
     51369 TIP3     5033     SWM4     OH2      ODW       1.71640       15.5994           0 -0.978253       1.30000    
     51370 TIP3     5033     SWM4     DOH2     DOH2     -1.71640      0.400000           0   0.00000       0.00000    
     51371 TIP3     5033     SWM4     OM       LPDW     -1.11466       0.00000          -1   0.00000       0.00000    
     51372 TIP3     5033     SWM4     H1       HDW      0.557330       1.00800           0   0.00000       0.00000    
     51373 TIP3     5033     SWM4     H2       HDW      0.557330       1.00800           0   0.00000       0.00000    
     51374 TIP3     5034     SWM4     OH2      ODW       1.71640       15.5994           0 -0.978253       1.30000    
     51375 TIP3     5034     SWM4     DOH2     DOH2     -1.71640      0.400000           0   0.00000       0.00000    
     51376 TIP3     5034     SWM4     OM       LPDW     -1.11466       0.00000          -1   0.00000       0.00000    
     51377 TIP3     5034     SWM4     H1       HDW      0.557330       1.00800           0   0.00000       0.00000    
     51378 TIP3     5034     SWM4     H2       HDW      0.557330       1.00800           0   0.00000       0.00000    
     51379 TIP3     5035     SWM4     OH2      ODW       1.71640       15.5994           0 -0.978253       1.30000    
     51380 TIP3     5035     SWM4     DOH2     DOH2     -1.71640      0.400000           0   0.00000       0.00000    
     51381 TIP3     5035     SWM4     OM       LPDW     -1.11466       0.00000          -1   0.00000       0.00000    
     51382 TIP3     5035     SWM4     H1       HDW      0.557330       1.00800           0   0.00000       0.00000    
     51383 TIP3     5035     SWM4     H2       HDW      0.557330       1.00800           0   0.00000       0.00000    
     51384 TIP3     5036     SWM4     OH2      ODW       1.71640       15.5994           0 -0.978253       1.30000    
     51385 TIP3     5036     SWM4     DOH2     DOH2     -1.71640      0.400000           0   0.00000       0.00000    
     51386 TIP3     5036     SWM4     OM       LPDW     -1.11466       0.00000          -1   0.00000       0.00000    
     51387 TIP3     5036     SWM4     H1       HDW      0.557330       1.00800           0   0.00000       0.00000    
     51388 TIP3     5036     SWM4     H2       HDW      0.557330       1.00800           0   0.00000       0.00000    
     51389 TIP3     5037     SWM4     OH2      ODW       1.71640       15.5994           0 -0.978253       1.30000    
     51390 TIP3     5037     SWM4     DOH2     DOH2     -1.71640      0.400000           0   0.00000       0.00000    
     51391 TIP3     5037     SWM4     OM       LPDW     -1.11466       0.00000          -1   0.00000       0.00000    
     51392 TIP3     5037     SWM4     H1       HDW      0.557330       1.00800           0   0.00000       0.00000    
     51393 TIP3     5037     SWM4     H2       HDW      0.557330       1.00800           0   0.00000       0.00000    
     51394 TIP3     5038     SWM4     OH2      ODW       1.71640       15.5994           0 -0.978253       1.30000    
     51395 TIP3     5038     SWM4     DOH2     DOH2     -1.71640      0.400000           0   0.00000       0.00000    
     51396 TIP3     5038     SWM4     OM       LPDW     -1.11466       0.00000          -1   0.00000       0.00000    
     51397 TIP3     5038     SWM4     H1       HDW      0.557330       1.00800           0   0.00000       0.00000    
     51398 TIP3     5038     SWM4     H2       HDW      0.557330       1.00800           0   0.00000       0.00000    
     51399 TIP3     5039     SWM4     OH2      ODW       1.71640       15.5994           0 -0.978253       1.30000    
     51400 TIP3     5039     SWM4     DOH2     DOH2     -1.71640      0.400000           0   0.00000       0.00000    
     51401 TIP3     5039     SWM4     OM       LPDW     -1.11466       0.00000          -1   0.00000       0.00000    
     51402 TIP3     5039     SWM4     H1       HDW      0.557330       1.00800           0   0.00000       0.00000    
     51403 TIP3     5039     SWM4     H2       HDW      0.557330       1.00800           0   0.00000       0.00000    
     51404 TIP3     5040     SWM4     OH2      ODW       1.71640       15.5994           0 -0.978253       1.30000    
     51405 TIP3     5040     SWM4     DOH2     DOH2     -1.71640      0.400000           0   0.00000       0.00000    
     51406 TIP3     5040     SWM4     OM       LPDW     -1.11466       0.00000          -1   0.00000       0.00000    
     51407 TIP3     5040     SWM4     H1       HDW      0.557330       1.00800           0   0.00000       0.00000    
     51408 TIP3     5040     SWM4     H2       HDW      0.557330       1.00800           0   0.00000       0.00000    

     51264 !NBOND: bonds
         1         2         6         7        10        11        14        15
        16        17        18        19        20        21        22        23
        24        25        28        29        31        32        33        34
        35        36        37        38        45        46        49        50
        51        52        53        54        55        56        63        64
        67        68        71        72        75        76        79        80
        83        84        87        88        90        91        93        94
        97        98       101       102       105       106       109       110
       113       114       117       118       121       122       126       127
       130       131       134       135       138       139       142       143
       146       147       150       151       154       155       158       159
       162       163       166       167       170       171       174       175
       178       179         1         3         1         4         1         5
         1         6         6         8         6         9         6        10
        10        12        10        13        10        22        20        24
        22        14        14        20        14        16        14        18
        24        26        24        27        24        28        28        30
        28        45        28        31        45        47        45        48
        45        49        31        33        33        37        33        35
        41        35        42        35        43        31        44        31
        37        39        37        40        37        63        63        65
        63        66        63        67        67        69        67        70
        67        71        71        73        71        74        71        75
        75        77        75        78        75        79        79        81
        79        82        79        83        83        85        83        86
        83        87        87        89        87        90        90        92
        90        93        93        95        93        96        93        97
        97        99        97       100        97       101       101       103
       101       104       101       105       105       107       105       108
       105       109       109       111       109       112       109       113
       113       115       113       116       113       117       117       119
       117       120       117       121       121       123       121       124
       121       125        49        51        51        55        51        53
        59        53        60        53        61        49        62        49
        55        57        55        58        55       126       126       128
       126       129       126       130       130       132       130       133
       130       134       134       136       134       137       134       138
       138       140       138       141       138       142       142       144
       142       145       142       146       146       148       146       149
       146       150       150       152       150       153       150       154
       154       156       154       157       154       158       158       160
       158       161       158       162       162       164       162       165
       162       166       166       168       166       169       166       170
       170       172       170       173       170       174       174       176
       174       177       174       178       178       180       178       181
       178       182       183       184       188       189       192       193
       196       197       198       199       200       201       202       203
       204       205       206       207       210       211       213       214
       215       216       217       218       219       220       227       228
       231       232       233       234       235       236       237       238
       245       246       249       250       253       254       257       258
       261       262       265       266       269       270       272       273
       275       276       279       280       283       284       287       288
       291       292       295       296       299       300       303       304
       308       309       312       313       316       317       320       321
       324       325       328       329       332       333       336       337
       340       341       344       345       348       349       352       353
       356       357       360       361       183       185       183       186
       183       187       183       188       188       190       188       191
       188       192       192       194       192       195       192       204
       202       206       204       196       196       202       196       198
       196       200       206       208       206       209       206       210
       210       212       210       227       210       213       227       229
       227       230       227       231       213       215       215       219
       215       217       223       217       224       217       225       213
       226       213       219       221       219       222       219       245
       245       247       245       248       245       249       249       251
       249       252       249       253       253       255       253       256
       253       257       257       259       257       260       257       261
       261       263       261       264       261       265       265       267
       265       268       265       269       269       271       269       272
       272       274       272       275       275       277       275       278
       275       279       279       281       279       282       279       283
       283       285       283       286       283       287       287       289
       287       290       287       291       291       293       291       294
       291       295       295       297       295       298       295       299
       299       301       299       302       299       303       303       305
       303       306       303       307       231       233       233       237
       233       235       241       235       242       235       243       231
       244       231       237       239       237       240       237       308
       308       310       308       311       308       312       312       314
       312       315       312       316       316       318       316       319
       316       320       320       322       320       323       320       324
       324       326       324       327       324       328       328       330
       328       331       328       332       332       334       332       335
       332       336       336       338       336       339       336       340
       340       342       340       343       340       344       344       346
       344       347       344       348       348       350       348       351
       348       352       352       354       352       355       352       356
       356       358       356       359       356       360       360       362
       360       363       360       364       365       366       370       371
       374       375       378       379       380       381       382       383
       384       385       386       387       388       389       392       393
       395       396       397       398       399       400       401       402
       409       410       413       414       415       416       417       418
       419       420       427       428       431       432       435       436
       439       440       443       444       447       448       451       452
       454       455       457       458       461       462       465       466
       469       470       473       474       477       478       481       482
       485       486       490       491       494       495       498       499
       502       503       506       507       510       511       514       515
       518       519       522       523       526       527       530       531
       534       535       538       539       542       543       365       367
       365       368       365       369       365       370       370       372
       370       373       370       374       374       376       374       377
       374       386       384       388       386       378       378       384
       378       380       378       382       388       390       388       391
       388       392       392       394       392       409       392       395
       409       411       409       412       409       413       395       397
       397       401       397       399       405       399       406       399
       407       395       408       395       401       403       401       404
       401       427       427       429       427       430       427       431
       431       433       431       434       431       435       435       437
       435       438       435       439       439       441       439       442
       439       443       443       445       443       446       443       447
       447       449       447       450       447       451       451       453
       451       454       454       456       454       457       457       459
       457       460       457       461       461       463       461       464
       461       465       465       467       465       468       465       469
       469       471       469       472       469       473       473       475
       473       476       473       477       477       479       477       480
       477       481       481       483       481       484       481       485
       485       487       485       488       485       489       413       415
       415       419       415       417       423       417       424       417
       425       413       426       413       419       421       419       422
       419       490       490       492       490       493       490       494
       494       496       494       497       494       498       498       500
       498       501       498       502       502       504       502       505
       502       506       506       508       506       509       506       510
       510       512       510       513       510       514       514       516
       514       517       514       518       518       520       518       521
       518       522       522       524       522       525       522       526
       526       528       526       529       526       530       530       532
       530       533       530       534       534       536       534       537
       534       538       538       540       538       541       538       542
       542       544       542       545       542       546       547       548
       552       553       556       557       560       561       562       563
       564       565       566       567       568       569       570       571
       574       575       577       578       579       580       581       582
       583       584       591       592       595       596       597       598
       599       600       601       602       609       610       613       614
       617       618       621       622       625       626       629       630
       633       634       636       637       639       640       643       644
       647       648       651       652       655       656       659       660
       663       664       667       668       672       673       676       677
       680       681       684       685       688       689       692       693
       696       697       700       701       704       705       708       709
       712       713       716       717       720       721       724       725
       547       549       547       550       547       551       547       552
       552       554       552       555       552       556       556       558
       556       559       556       568       566       570       568       560
       560       566       560       562       560       564       570       572
       570       573       570       574       574       576       574       591
       574       577       591       593       591       594       591       595
       577       579       579       583       579       581       587       581
       588       581       589       577       590       577       583       585
       583       586       583       609       609       611       609       612
       609       613       613       615       613       616       613       617
       617       619       617       620       617       621       621       623
       621       624       621       625       625       627       625       628
       625       629       629       631       629       632       629       633
       633       635       633       636       636       638       636       639
       639       641       639       642       639       643       643       645
       643       646       643       647       647       649       647       650
       647       651       651       653       651       654       651       655
       655       657       655       658       655       659       659       661
       659       662       659       663       663       665       663       666
       663       667       667       669       667       670       667       671
       595       597       597       601       597       599       605       599
       606       599       607       595       608       595       601       603
       601       604       601       672       672       674       672       675
       672       676       676       678       676       679       676       680
       680       682       680       683       680       684       684       686
       684       687       684       688       688       690       688       691
       688       692       692       694       692       695       692       696
       696       698       696       699       696       700       700       702
       700       703       700       704       704       706       704       707
       704       708       708       710       708       711       708       712
       712       714       712       715       712       716       716       718
       716       719       716       720       720       722       720       723
       720       724       724       726       724       727       724       728
       729       730       734       735       738       739       742       743
       744       745       746       747       748       749       750       751
       752       753       756       757       759       760       761       762
       763       764       765       766       773       774       777       778
       779       780       781       782       783       784       791       792
       795       796       799       800       803       804       807       808
       811       812       815       816       818       819       821       822
       825       826       829       830       833       834       837       838
       841       842       845       846       849       850       854       855
       858       859       862       863       866       867       870       871
       874       875       878       879       882       883       886       887
       890       891       894       895       898       899       902       903
       906       907       729       731       729       732       729       733
       729       734       734       736       734       737       734       738
       738       740       738       741       738       750       748       752
       750       742       742       748       742       744       742       746
       752       754       752       755       752       756       756       758
       756       773       756       759       773       775       773       776
       773       777       759       761       761       765       761       763
       769       763       770       763       771       759       772       759
       765       767       765       768       765       791       791       793
       791       794       791       795       795       797       795       798
       795       799       799       801       799       802       799       803
       803       805       803       806       803       807       807       809
       807       810       807       811       811       813       811       814
       811       815       815       817       815       818       818       820
       818       821       821       823       821       824       821       825
       825       827       825       828       825       829       829       831
       829       832       829       833       833       835       833       836
       833       837       837       839       837       840       837       841
       841       843       841       844       841       845       845       847
       845       848       845       849       849       851       849       852
       849       853       777       779       779       783       779       781
       787       781       788       781       789       777       790       777
       783       785       783       786       783       854       854       856
       854       857       854       858       858       860       858       861
       858       862       862       864       862       865       862       866
       866       868       866       869       866       870       870       872
       870       873       870       874       874       876       874       877
       874       878       878       880       878       881       878       882
       882       884       882       885       882       886       886       888
       886       889       886       890       890       892       890       893
       890       894       894       896       894       897       894       898
       898       900       898       901       898       902       902       904
       902       905       902       906       906       908       906       909
       906       910       911       912       916       917       920       921
       924       925       926       927       928       929       930       931
       932       933       934       935       938       939       941       942
       943       944       945       946       947       948       955       956
       959       960       961       962       963       964       965       966
       973       974       977       978       981       982       985       986
       989       990       993       994       997       998      1000      1001
      1003      1004      1007      1008      1011      1012      1015      1016
      1019      1020      1023      1024      1027      1028      1031      1032
      1036      1037      1040      1041      1044      1045      1048      1049
      1052      1053      1056      1057      1060      1061      1064      1065
      1068      1069      1072      1073      1076      1077      1080      1081
      1084      1085      1088      1089       911       913       911       914
       911       915       911       916       916       918       916       919
       916       920       920       922       920       923       920       932
       930       934       932       924       924       930       924       926
       924       928       934       936       934       937       934       938
       938       940       938       955       938       941       955       957
       955       958       955       959       941       943       943       947
       943       945       951       945       952       945       953       941
       954       941       947       949       947       950       947       973
       973       975       973       976       973       977       977       979
       977       980       977       981       981       983       981       984
       981       985       985       987       985       988       985       989
       989       991       989       992       989       993       993       995
       993       996       993       997       997       999       997      1000
      1000      1002      1000      1003      1003      1005      1003      1006
      1003      1007      1007      1009      1007      1010      1007      1011
      1011      1013      1011      1014      1011      1015      1015      1017
      1015      1018      1015      1019      1019      1021      1019      1022
      1019      1023      1023      1025      1023      1026      1023      1027
      1027      1029      1027      1030      1027      1031      1031      1033
      1031      1034      1031      1035       959       961       961       965
       961       963       969       963       970       963       971       959
       972       959       965       967       965       968       965      1036
      1036      1038      1036      1039      1036      1040      1040      1042
      1040      1043      1040      1044      1044      1046      1044      1047
      1044      1048      1048      1050      1048      1051      1048      1052
      1052      1054      1052      1055      1052      1056      1056      1058
      1056      1059      1056      1060      1060      1062      1060      1063
      1060      1064      1064      1066      1064      1067      1064      1068
      1068      1070      1068      1071      1068      1072      1072      1074
      1072      1075      1072      1076      1076      1078      1076      1079
      1076      1080      1080      1082      1080      1083      1080      1084
      1084      1086      1084      1087      1084      1088      1088      1090
      1088      1091      1088      1092      1093      1094      1098      1099
      1102      1103      1106      1107      1108      1109      1110      1111
      1112      1113      1114      1115      1116      1117      1120      1121
      1123      1124      1125      1126      1127      1128      1129      1130
      1137      1138      1141      1142      1143      1144      1145      1146
      1147      1148      1155      1156      1159      1160      1163      1164
      1167      1168      1171      1172      1175      1176      1179      1180
      1182      1183      1185      1186      1189      1190      1193      1194
      1197      1198      1201      1202      1205      1206      1209      1210
      1213      1214      1218      1219      1222      1223      1226      1227
      1230      1231      1234      1235      1238      1239      1242      1243
      1246      1247      1250      1251      1254      1255      1258      1259
      1262      1263      1266      1267      1270      1271      1093      1095
      1093      1096      1093      1097      1093      1098      1098      1100
      1098      1101      1098      1102      1102      1104      1102      1105
      1102      1114      1112      1116      1114      1106      1106      1112
      1106      1108      1106      1110      1116      1118      1116      1119
      1116      1120      1120      1122      1120      1137      1120      1123
      1137      1139      1137      1140      1137      1141      1123      1125
      1125      1129      1125      1127      1133      1127      1134      1127
      1135      1123      1136      1123      1129      1131      1129      1132
      1129      1155      1155      1157      1155      1158      1155      1159
      1159      1161      1159      1162      1159      1163      1163      1165
      1163      1166      1163      1167      1167      1169      1167      1170
      1167      1171      1171      1173      1171      1174      1171      1175
      1175      1177      1175      1178      1175      1179      1179      1181
      1179      1182      1182      1184      1182      1185      1185      1187
      1185      1188      1185      1189      1189      1191      1189      1192
      1189      1193      1193      1195      1193      1196      1193      1197
      1197      1199      1197      1200      1197      1201      1201      1203
      1201      1204      1201      1205      1205      1207      1205      1208
      1205      1209      1209      1211      1209      1212      1209      1213
      1213      1215      1213      1216      1213      1217      1141      1143
      1143      1147      1143      1145      1151      1145      1152      1145
      1153      1141      1154      1141      1147      1149      1147      1150
      1147      1218      1218      1220      1218      1221      1218      1222
      1222      1224      1222      1225      1222      1226      1226      1228
      1226      1229      1226      1230      1230      1232      1230      1233
      1230      1234      1234      1236      1234      1237      1234      1238
      1238      1240      1238      1241      1238      1242      1242      1244
      1242      1245      1242      1246      1246      1248      1246      1249
      1246      1250      1250      1252      1250      1253      1250      1254
      1254      1256      1254      1257      1254      1258      1258      1260
      1258      1261      1258      1262      1262      1264      1262      1265
      1262      1266      1266      1268      1266      1269      1266      1270
      1270      1272      1270      1273      1270      1274      1275      1276
      1280      1281      1284      1285      1288      1289      1290      1291
      1292      1293      1294      1295      1296      1297      1298      1299
      1302      1303      1305      1306      1307      1308      1309      1310
      1311      1312      1319      1320      1323      1324      1325      1326
      1327      1328      1329      1330      1337      1338      1341      1342
      1345      1346      1349      1350      1353      1354      1357      1358
      1361      1362      1364      1365      1367      1368      1371      1372
      1375      1376      1379      1380      1383      1384      1387      1388
      1391      1392      1395      1396      1400      1401      1404      1405
      1408      1409      1412      1413      1416      1417      1420      1421
      1424      1425      1428      1429      1432      1433      1436      1437
      1440      1441      1444      1445      1448      1449      1452      1453
      1275      1277      1275      1278      1275      1279      1275      1280
      1280      1282      1280      1283      1280      1284      1284      1286
      1284      1287      1284      1296      1294      1298      1296      1288
      1288      1294      1288      1290      1288      1292      1298      1300
      1298      1301      1298      1302      1302      1304      1302      1319
      1302      1305      1319      1321      1319      1322      1319      1323
      1305      1307      1307      1311      1307      1309      1315      1309
      1316      1309      1317      1305      1318      1305      1311      1313
      1311      1314      1311      1337      1337      1339      1337      1340
      1337      1341      1341      1343      1341      1344      1341      1345
      1345      1347      1345      1348      1345      1349      1349      1351
      1349      1352      1349      1353      1353      1355      1353      1356
      1353      1357      1357      1359      1357      1360      1357      1361
      1361      1363      1361      1364      1364      1366      1364      1367
      1367      1369      1367      1370      1367      1371      1371      1373
      1371      1374      1371      1375      1375      1377      1375      1378
      1375      1379      1379      1381      1379      1382      1379      1383
      1383      1385      1383      1386      1383      1387      1387      1389
      1387      1390      1387      1391      1391      1393      1391      1394
      1391      1395      1395      1397      1395      1398      1395      1399
      1323      1325      1325      1329      1325      1327      1333      1327
      1334      1327      1335      1323      1336      1323      1329      1331
      1329      1332      1329      1400      1400      1402      1400      1403
      1400      1404      1404      1406      1404      1407      1404      1408
      1408      1410      1408      1411      1408      1412      1412      1414
      1412      1415      1412      1416      1416      1418      1416      1419
      1416      1420      1420      1422      1420      1423      1420      1424
      1424      1426      1424      1427      1424      1428      1428      1430
      1428      1431      1428      1432      1432      1434      1432      1435
      1432      1436      1436      1438      1436      1439      1436      1440
      1440      1442      1440      1443      1440      1444      1444      1446
      1444      1447      1444      1448      1448      1450      1448      1451
      1448      1452      1452      1454      1452      1455      1452      1456
      1457      1458      1462      1463      1466      1467      1470      1471
      1472      1473      1474      1475      1476      1477      1478      1479
      1480      1481      1484      1485      1487      1488      1489      1490
      1491      1492      1493      1494      1501      1502      1505      1506
      1507      1508      1509      1510      1511      1512      1519      1520
      1523      1524      1527      1528      1531      1532      1535      1536
      1539      1540      1543      1544      1546      1547      1549      1550
      1553      1554      1557      1558      1561      1562      1565      1566
      1569      1570      1573      1574      1577      1578      1582      1583
      1586      1587      1590      1591      1594      1595      1598      1599
      1602      1603      1606      1607      1610      1611      1614      1615
      1618      1619      1622      1623      1626      1627      1630      1631
      1634      1635      1457      1459      1457      1460      1457      1461
      1457      1462      1462      1464      1462      1465      1462      1466
      1466      1468      1466      1469      1466      1478      1476      1480
      1478      1470      1470      1476      1470      1472      1470      1474
      1480      1482      1480      1483      1480      1484      1484      1486
      1484      1501      1484      1487      1501      1503      1501      1504
      1501      1505      1487      1489      1489      1493      1489      1491
      1497      1491      1498      1491      1499      1487      1500      1487
      1493      1495      1493      1496      1493      1519      1519      1521
      1519      1522      1519      1523      1523      1525      1523      1526
      1523      1527      1527      1529      1527      1530      1527      1531
      1531      1533      1531      1534      1531      1535      1535      1537
      1535      1538      1535      1539      1539      1541      1539      1542
      1539      1543      1543      1545      1543      1546      1546      1548
      1546      1549      1549      1551      1549      1552      1549      1553
      1553      1555      1553      1556      1553      1557      1557      1559
      1557      1560      1557      1561      1561      1563      1561      1564
      1561      1565      1565      1567      1565      1568      1565      1569
      1569      1571      1569      1572      1569      1573      1573      1575
      1573      1576      1573      1577      1577      1579      1577      1580
      1577      1581      1505      1507      1507      1511      1507      1509
      1515      1509      1516      1509      1517      1505      1518      1505
      1511      1513      1511      1514      1511      1582      1582      1584
      1582      1585      1582      1586      1586      1588      1586      1589
      1586      1590      1590      1592      1590      1593      1590      1594
      1594      1596      1594      1597      1594      1598      1598      1600
      1598      1601      1598      1602      1602      1604      1602      1605
      1602      1606      1606      1608      1606      1609      1606      1610
      1610      1612      1610      1613      1610      1614      1614      1616
      1614      1617      1614      1618      1618      1620      1618      1621
      1618      1622      1622      1624      1622      1625      1622      1626
      1626      1628      1626      1629      1626      1630      1630      1632
      1630      1633      1630      1634      1634      1636      1634      1637
      1634      1638      1639      1640      1644      1645      1648      1649
      1652      1653      1654      1655      1656      1657      1658      1659
      1660      1661      1662      1663      1666      1667      1669      1670
      1671      1672      1673      1674      1675      1676      1683      1684
      1687      1688      1689      1690      1691      1692      1693      1694
      1701      1702      1705      1706      1709      1710      1713      1714
      1717      1718      1721      1722      1725      1726      1728      1729
      1731      1732      1735      1736      1739      1740      1743      1744
      1747      1748      1751      1752      1755      1756      1759      1760
      1764      1765      1768      1769      1772      1773      1776      1777
      1780      1781      1784      1785      1788      1789      1792      1793
      1796      1797      1800      1801      1804      1805      1808      1809
      1812      1813      1816      1817      1639      1641      1639      1642
      1639      1643      1639      1644      1644      1646      1644      1647
      1644      1648      1648      1650      1648      1651      1648      1660
      1658      1662      1660      1652      1652      1658      1652      1654
      1652      1656      1662      1664      1662      1665      1662      1666
      1666      1668      1666      1683      1666      1669      1683      1685
      1683      1686      1683      1687      1669      1671      1671      1675
      1671      1673      1679      1673      1680      1673      1681      1669
      1682      1669      1675      1677      1675      1678      1675      1701
      1701      1703      1701      1704      1701      1705      1705      1707
      1705      1708      1705      1709      1709      1711      1709      1712
      1709      1713      1713      1715      1713      1716      1713      1717
      1717      1719      1717      1720      1717      1721      1721      1723
      1721      1724      1721      1725      1725      1727      1725      1728
      1728      1730      1728      1731      1731      1733      1731      1734
      1731      1735      1735      1737      1735      1738      1735      1739
      1739      1741      1739      1742      1739      1743      1743      1745
      1743      1746      1743      1747      1747      1749      1747      1750
      1747      1751      1751      1753      1751      1754      1751      1755
      1755      1757      1755      1758      1755      1759      1759      1761
      1759      1762      1759      1763      1687      1689      1689      1693
      1689      1691      1697      1691      1698      1691      1699      1687
      1700      1687      1693      1695      1693      1696      1693      1764
      1764      1766      1764      1767      1764      1768      1768      1770
      1768      1771      1768      1772      1772      1774      1772      1775
      1772      1776      1776      1778      1776      1779      1776      1780
      1780      1782      1780      1783      1780      1784      1784      1786
      1784      1787      1784      1788      1788      1790      1788      1791
      1788      1792      1792      1794      1792      1795      1792      1796
      1796      1798      1796      1799      1796      1800      1800      1802
      1800      1803      1800      1804      1804      1806      1804      1807
      1804      1808      1808      1810      1808      1811      1808      1812
      1812      1814      1812      1815      1812      1816      1816      1818
      1816      1819      1816      1820      1821      1822      1826      1827
      1830      1831      1834      1835      1836      1837      1838      1839
      1840      1841      1842      1843      1844      1845      1848      1849
      1851      1852      1853      1854      1855      1856      1857      1858
      1865      1866      1869      1870      1871      1872      1873      1874
      1875      1876      1883      1884      1887      1888      1891      1892
      1895      1896      1899      1900      1903      1904      1907      1908
      1910      1911      1913      1914      1917      1918      1921      1922
      1925      1926      1929      1930      1933      1934      1937      1938
      1941      1942      1946      1947      1950      1951      1954      1955
      1958      1959      1962      1963      1966      1967      1970      1971
      1974      1975      1978      1979      1982      1983      1986      1987
      1990      1991      1994      1995      1998      1999      1821      1823
      1821      1824      1821      1825      1821      1826      1826      1828
      1826      1829      1826      1830      1830      1832      1830      1833
      1830      1842      1840      1844      1842      1834      1834      1840
      1834      1836      1834      1838      1844      1846      1844      1847
      1844      1848      1848      1850      1848      1865      1848      1851
      1865      1867      1865      1868      1865      1869      1851      1853
      1853      1857      1853      1855      1861      1855      1862      1855
      1863      1851      1864      1851      1857      1859      1857      1860
      1857      1883      1883      1885      1883      1886      1883      1887
      1887      1889      1887      1890      1887      1891      1891      1893
      1891      1894      1891      1895      1895      1897      1895      1898
      1895      1899      1899      1901      1899      1902      1899      1903
      1903      1905      1903      1906      1903      1907      1907      1909
      1907      1910      1910      1912      1910      1913      1913      1915
      1913      1916      1913      1917      1917      1919      1917      1920
      1917      1921      1921      1923      1921      1924      1921      1925
      1925      1927      1925      1928      1925      1929      1929      1931
      1929      1932      1929      1933      1933      1935      1933      1936
      1933      1937      1937      1939      1937      1940      1937      1941
      1941      1943      1941      1944      1941      1945      1869      1871
      1871      1875      1871      1873      1879      1873      1880      1873
      1881      1869      1882      1869      1875      1877      1875      1878
      1875      1946      1946      1948      1946      1949      1946      1950
      1950      1952      1950      1953      1950      1954      1954      1956
      1954      1957      1954      1958      1958      1960      1958      1961
      1958      1962      1962      1964      1962      1965      1962      1966
      1966      1968      1966      1969      1966      1970      1970      1972
      1970      1973      1970      1974      1974      1976      1974      1977
      1974      1978      1978      1980      1978      1981      1978      1982
      1982      1984      1982      1985      1982      1986      1986      1988
      1986      1989      1986      1990      1990      1992      1990      1993
      1990      1994      1994      1996      1994      1997      1994      1998
      1998      2000      1998      2001      1998      2002      2003      2004
      2008      2009      2012      2013      2016      2017      2018      2019
      2020      2021      2022      2023      2024      2025      2026      2027
      2030      2031      2033      2034      2035      2036      2037      2038
      2039      2040      2047      2048      2051      2052      2053      2054
      2055      2056      2057      2058      2065      2066      2069      2070
      2073      2074      2077      2078      2081      2082      2085      2086
      2089      2090      2092      2093      2095      2096      2099      2100
      2103      2104      2107      2108      2111      2112      2115      2116
      2119      2120      2123      2124      2128      2129      2132      2133
      2136      2137      2140      2141      2144      2145      2148      2149
      2152      2153      2156      2157      2160      2161      2164      2165
      2168      2169      2172      2173      2176      2177      2180      2181
      2003      2005      2003      2006      2003      2007      2003      2008
      2008      2010      2008      2011      2008      2012      2012      2014
      2012      2015      2012      2024      2022      2026      2024      2016
      2016      2022      2016      2018      2016      2020      2026      2028
      2026      2029      2026      2030      2030      2032      2030      2047
      2030      2033      2047      2049      2047      2050      2047      2051
      2033      2035      2035      2039      2035      2037      2043      2037
      2044      2037      2045      2033      2046      2033      2039      2041
      2039      2042      2039      2065      2065      2067      2065      2068
      2065      2069      2069      2071      2069      2072      2069      2073
      2073      2075      2073      2076      2073      2077      2077      2079
      2077      2080      2077      2081      2081      2083      2081      2084
      2081      2085      2085      2087      2085      2088      2085      2089
      2089      2091      2089      2092      2092      2094      2092      2095
      2095      2097      2095      2098      2095      2099      2099      2101
      2099      2102      2099      2103      2103      2105      2103      2106
      2103      2107      2107      2109      2107      2110      2107      2111
      2111      2113      2111      2114      2111      2115      2115      2117
      2115      2118      2115      2119      2119      2121      2119      2122
      2119      2123      2123      2125      2123      2126      2123      2127
      2051      2053      2053      2057      2053      2055      2061      2055
      2062      2055      2063      2051      2064      2051      2057      2059
      2057      2060      2057      2128      2128      2130      2128      2131
      2128      2132      2132      2134      2132      2135      2132      2136
      2136      2138      2136      2139      2136      2140      2140      2142
      2140      2143      2140      2144      2144      2146      2144      2147
      2144      2148      2148      2150      2148      2151      2148      2152
      2152      2154      2152      2155      2152      2156      2156      2158
      2156      2159      2156      2160      2160      2162      2160      2163
      2160      2164      2164      2166      2164      2167      2164      2168
      2168      2170      2168      2171      2168      2172      2172      2174
      2172      2175      2172      2176      2176      2178      2176      2179
      2176      2180      2180      2182      2180      2183      2180      2184
      2185      2186      2190      2191      2194      2195      2198      2199
      2200      2201      2202      2203      2204      2205      2206      2207
      2208      2209      2212      2213      2215      2216      2217      2218
      2219      2220      2221      2222      2229      2230      2233      2234
      2235      2236      2237      2238      2239      2240      2247      2248
      2251      2252      2255      2256      2259      2260      2263      2264
      2267      2268      2271      2272      2274      2275      2277      2278
      2281      2282      2285      2286      2289      2290      2293      2294
      2297      2298      2301      2302      2305      2306      2310      2311
      2314      2315      2318      2319      2322      2323      2326      2327
      2330      2331      2334      2335      2338      2339      2342      2343
      2346      2347      2350      2351      2354      2355      2358      2359
      2362      2363      2185      2187      2185      2188      2185      2189
      2185      2190      2190      2192      2190      2193      2190      2194
      2194      2196      2194      2197      2194      2206      2204      2208
      2206      2198      2198      2204      2198      2200      2198      2202
      2208      2210      2208      2211      2208      2212      2212      2214
      2212      2229      2212      2215      2229      2231      2229      2232
      2229      2233      2215      2217      2217      2221      2217      2219
      2225      2219      2226      2219      2227      2215      2228      2215
      2221      2223      2221      2224      2221      2247      2247      2249
      2247      2250      2247      2251      2251      2253      2251      2254
      2251      2255      2255      2257      2255      2258      2255      2259
      2259      2261      2259      2262      2259      2263      2263      2265
      2263      2266      2263      2267      2267      2269      2267      2270
      2267      2271      2271      2273      2271      2274      2274      2276
      2274      2277      2277      2279      2277      2280      2277      2281
      2281      2283      2281      2284      2281      2285      2285      2287
      2285      2288      2285      2289      2289      2291      2289      2292
      2289      2293      2293      2295      2293      2296      2293      2297
      2297      2299      2297      2300      2297      2301      2301      2303
      2301      2304      2301      2305      2305      2307      2305      2308
      2305      2309      2233      2235      2235      2239      2235      2237
      2243      2237      2244      2237      2245      2233      2246      2233
      2239      2241      2239      2242      2239      2310      2310      2312
      2310      2313      2310      2314      2314      2316      2314      2317
      2314      2318      2318      2320      2318      2321      2318      2322
      2322      2324      2322      2325      2322      2326      2326      2328
      2326      2329      2326      2330      2330      2332      2330      2333
      2330      2334      2334      2336      2334      2337      2334      2338
      2338      2340      2338      2341      2338      2342      2342      2344
      2342      2345      2342      2346      2346      2348      2346      2349
      2346      2350      2350      2352      2350      2353      2350      2354
      2354      2356      2354      2357      2354      2358      2358      2360
      2358      2361      2358      2362      2362      2364      2362      2365
      2362      2366      2367      2368      2372      2373      2376      2377
      2380      2381      2382      2383      2384      2385      2386      2387
      2388      2389      2390      2391      2394      2395      2397      2398
      2399      2400      2401      2402      2403      2404      2411      2412
      2415      2416      2417      2418      2419      2420      2421      2422
      2429      2430      2433      2434      2437      2438      2441      2442
      2445      2446      2449      2450      2453      2454      2456      2457
      2459      2460      2463      2464      2467      2468      2471      2472
      2475      2476      2479      2480      2483      2484      2487      2488
      2492      2493      2496      2497      2500      2501      2504      2505
      2508      2509      2512      2513      2516      2517      2520      2521
      2524      2525      2528      2529      2532      2533      2536      2537
      2540      2541      2544      2545      2367      2369      2367      2370
      2367      2371      2367      2372      2372      2374      2372      2375
      2372      2376      2376      2378      2376      2379      2376      2388
      2386      2390      2388      2380      2380      2386      2380      2382
      2380      2384      2390      2392      2390      2393      2390      2394
      2394      2396      2394      2411      2394      2397      2411      2413
      2411      2414      2411      2415      2397      2399      2399      2403
      2399      2401      2407      2401      2408      2401      2409      2397
      2410      2397      2403      2405      2403      2406      2403      2429
      2429      2431      2429      2432      2429      2433      2433      2435
      2433      2436      2433      2437      2437      2439      2437      2440
      2437      2441      2441      2443      2441      2444      2441      2445
      2445      2447      2445      2448      2445      2449      2449      2451
      2449      2452      2449      2453      2453      2455      2453      2456
      2456      2458      2456      2459      2459      2461      2459      2462
      2459      2463      2463      2465      2463      2466      2463      2467
      2467      2469      2467      2470      2467      2471      2471      2473
      2471      2474      2471      2475      2475      2477      2475      2478
      2475      2479      2479      2481      2479      2482      2479      2483
      2483      2485      2483      2486      2483      2487      2487      2489
      2487      2490      2487      2491      2415      2417      2417      2421
      2417      2419      2425      2419      2426      2419      2427      2415
      2428      2415      2421      2423      2421      2424      2421      2492
      2492      2494      2492      2495      2492      2496      2496      2498
      2496      2499      2496      2500      2500      2502      2500      2503
      2500      2504      2504      2506      2504      2507      2504      2508
      2508      2510      2508      2511      2508      2512      2512      2514
      2512      2515      2512      2516      2516      2518      2516      2519
      2516      2520      2520      2522      2520      2523      2520      2524
      2524      2526      2524      2527      2524      2528      2528      2530
      2528      2531      2528      2532      2532      2534      2532      2535
      2532      2536      2536      2538      2536      2539      2536      2540
      2540      2542      2540      2543      2540      2544      2544      2546
      2544      2547      2544      2548      2549      2550      2554      2555
      2558      2559      2562      2563      2564      2565      2566      2567
      2568      2569      2570      2571      2572      2573      2576      2577
      2579      2580      2581      2582      2583      2584      2585      2586
      2593      2594      2597      2598      2599      2600      2601      2602
      2603      2604      2611      2612      2615      2616      2619      2620
      2623      2624      2627      2628      2631      2632      2635      2636
      2638      2639      2641      2642      2645      2646      2649      2650
      2653      2654      2657      2658      2661      2662      2665      2666
      2669      2670      2674      2675      2678      2679      2682      2683
      2686      2687      2690      2691      2694      2695      2698      2699
      2702      2703      2706      2707      2710      2711      2714      2715
      2718      2719      2722      2723      2726      2727      2549      2551
      2549      2552      2549      2553      2549      2554      2554      2556
      2554      2557      2554      2558      2558      2560      2558      2561
      2558      2570      2568      2572      2570      2562      2562      2568
      2562      2564      2562      2566      2572      2574      2572      2575
      2572      2576      2576      2578      2576      2593      2576      2579
      2593      2595      2593      2596      2593      2597      2579      2581
      2581      2585      2581      2583      2589      2583      2590      2583
      2591      2579      2592      2579      2585      2587      2585      2588
      2585      2611      2611      2613      2611      2614      2611      2615
      2615      2617      2615      2618      2615      2619      2619      2621
      2619      2622      2619      2623      2623      2625      2623      2626
      2623      2627      2627      2629      2627      2630      2627      2631
      2631      2633      2631      2634      2631      2635      2635      2637
      2635      2638      2638      2640      2638      2641      2641      2643
      2641      2644      2641      2645      2645      2647      2645      2648
      2645      2649      2649      2651      2649      2652      2649      2653
      2653      2655      2653      2656      2653      2657      2657      2659
      2657      2660      2657      2661      2661      2663      2661      2664
      2661      2665      2665      2667      2665      2668      2665      2669
      2669      2671      2669      2672      2669      2673      2597      2599
      2599      2603      2599      2601      2607      2601      2608      2601
      2609      2597      2610      2597      2603      2605      2603      2606
      2603      2674      2674      2676      2674      2677      2674      2678
      2678      2680      2678      2681      2678      2682      2682      2684
      2682      2685      2682      2686      2686      2688      2686      2689
      2686      2690      2690      2692      2690      2693      2690      2694
      2694      2696      2694      2697      2694      2698      2698      2700
      2698      2701      2698      2702      2702      2704      2702      2705
      2702      2706      2706      2708      2706      2709      2706      2710
      2710      2712      2710      2713      2710      2714      2714      2716
      2714      2717      2714      2718      2718      2720      2718      2721
      2718      2722      2722      2724      2722      2725      2722      2726
      2726      2728      2726      2729      2726      2730      2731      2732
      2736      2737      2740      2741      2744      2745      2746      2747
      2748      2749      2750      2751      2752      2753      2754      2755
      2758      2759      2761      2762      2763      2764      2765      2766
      2767      2768      2775      2776      2779      2780      2781      2782
      2783      2784      2785      2786      2793      2794      2797      2798
      2801      2802      2805      2806      2809      2810      2813      2814
      2817      2818      2820      2821      2823      2824      2827      2828
      2831      2832      2835      2836      2839      2840      2843      2844
      2847      2848      2851      2852      2856      2857      2860      2861
      2864      2865      2868      2869      2872      2873      2876      2877
      2880      2881      2884      2885      2888      2889      2892      2893
      2896      2897      2900      2901      2904      2905      2908      2909
      2731      2733      2731      2734      2731      2735      2731      2736
      2736      2738      2736      2739      2736      2740      2740      2742
      2740      2743      2740      2752      2750      2754      2752      2744
      2744      2750      2744      2746      2744      2748      2754      2756
      2754      2757      2754      2758      2758      2760      2758      2775
      2758      2761      2775      2777      2775      2778      2775      2779
      2761      2763      2763      2767      2763      2765      2771      2765
      2772      2765      2773      2761      2774      2761      2767      2769
      2767      2770      2767      2793      2793      2795      2793      2796
      2793      2797      2797      2799      2797      2800      2797      2801
      2801      2803      2801      2804      2801      2805      2805      2807
      2805      2808      2805      2809      2809      2811      2809      2812
      2809      2813      2813      2815      2813      2816      2813      2817
      2817      2819      2817      2820      2820      2822      2820      2823
      2823      2825      2823      2826      2823      2827      2827      2829
      2827      2830      2827      2831      2831      2833      2831      2834
      2831      2835      2835      2837      2835      2838      2835      2839
      2839      2841      2839      2842      2839      2843      2843      2845
      2843      2846      2843      2847      2847      2849      2847      2850
      2847      2851      2851      2853      2851      2854      2851      2855
      2779      2781      2781      2785      2781      2783      2789      2783
      2790      2783      2791      2779      2792      2779      2785      2787
      2785      2788      2785      2856      2856      2858      2856      2859
      2856      2860      2860      2862      2860      2863      2860      2864
      2864      2866      2864      2867      2864      2868      2868      2870
      2868      2871      2868      2872      2872      2874      2872      2875
      2872      2876      2876      2878      2876      2879      2876      2880
      2880      2882      2880      2883      2880      2884      2884      2886
      2884      2887      2884      2888      2888      2890      2888      2891
      2888      2892      2892      2894      2892      2895      2892      2896
      2896      2898      2896      2899      2896      2900      2900      2902
      2900      2903      2900      2904      2904      2906      2904      2907
      2904      2908      2908      2910      2908      2911      2908      2912
      2913      2914      2918      2919      2922      2923      2926      2927
      2928      2929      2930      2931      2932      2933      2934      2935
      2936      2937      2940      2941      2943      2944      2945      2946
      2947      2948      2949      2950      2957      2958      2961      2962
      2963      2964      2965      2966      2967      2968      2975      2976
      2979      2980      2983      2984      2987      2988      2991      2992
      2995      2996      2999      3000      3002      3003      3005      3006
      3009      3010      3013      3014      3017      3018      3021      3022
      3025      3026      3029      3030      3033      3034      3038      3039
      3042      3043      3046      3047      3050      3051      3054      3055
      3058      3059      3062      3063      3066      3067      3070      3071
      3074      3075      3078      3079      3082      3083      3086      3087
      3090      3091      2913      2915      2913      2916      2913      2917
      2913      2918      2918      2920      2918      2921      2918      2922
      2922      2924      2922      2925      2922      2934      2932      2936
      2934      2926      2926      2932      2926      2928      2926      2930
      2936      2938      2936      2939      2936      2940      2940      2942
      2940      2957      2940      2943      2957      2959      2957      2960
      2957      2961      2943      2945      2945      2949      2945      2947
      2953      2947      2954      2947      2955      2943      2956      2943
      2949      2951      2949      2952      2949      2975      2975      2977
      2975      2978      2975      2979      2979      2981      2979      2982
      2979      2983      2983      2985      2983      2986      2983      2987
      2987      2989      2987      2990      2987      2991      2991      2993
      2991      2994      2991      2995      2995      2997      2995      2998
      2995      2999      2999      3001      2999      3002      3002      3004
      3002      3005      3005      3007      3005      3008      3005      3009
      3009      3011      3009      3012      3009      3013      3013      3015
      3013      3016      3013      3017      3017      3019      3017      3020
      3017      3021      3021      3023      3021      3024      3021      3025
      3025      3027      3025      3028      3025      3029      3029      3031
      3029      3032      3029      3033      3033      3035      3033      3036
      3033      3037      2961      2963      2963      2967      2963      2965
      2971      2965      2972      2965      2973      2961      2974      2961
      2967      2969      2967      2970      2967      3038      3038      3040
      3038      3041      3038      3042      3042      3044      3042      3045
      3042      3046      3046      3048      3046      3049      3046      3050
      3050      3052      3050      3053      3050      3054      3054      3056
      3054      3057      3054      3058      3058      3060      3058      3061
      3058      3062      3062      3064      3062      3065      3062      3066
      3066      3068      3066      3069      3066      3070      3070      3072
      3070      3073      3070      3074      3074      3076      3074      3077
      3074      3078      3078      3080      3078      3081      3078      3082
      3082      3084      3082      3085      3082      3086      3086      3088
      3086      3089      3086      3090      3090      3092      3090      3093
      3090      3094      3095      3096      3100      3101      3104      3105
      3108      3109      3110      3111      3112      3113      3114      3115
      3116      3117      3118      3119      3122      3123      3125      3126
      3127      3128      3129      3130      3131      3132      3139      3140
      3143      3144      3145      3146      3147      3148      3149      3150
      3157      3158      3161      3162      3165      3166      3169      3170
      3173      3174      3177      3178      3181      3182      3184      3185
      3187      3188      3191      3192      3195      3196      3199      3200
      3203      3204      3207      3208      3211      3212      3215      3216
      3220      3221      3224      3225      3228      3229      3232      3233
      3236      3237      3240      3241      3244      3245      3248      3249
      3252      3253      3256      3257      3260      3261      3264      3265
      3268      3269      3272      3273      3095      3097      3095      3098
      3095      3099      3095      3100      3100      3102      3100      3103
      3100      3104      3104      3106      3104      3107      3104      3116
      3114      3118      3116      3108      3108      3114      3108      3110
      3108      3112      3118      3120      3118      3121      3118      3122
      3122      3124      3122      3139      3122      3125      3139      3141
      3139      3142      3139      3143      3125      3127      3127      3131
      3127      3129      3135      3129      3136      3129      3137      3125
      3138      3125      3131      3133      3131      3134      3131      3157
      3157      3159      3157      3160      3157      3161      3161      3163
      3161      3164      3161      3165      3165      3167      3165      3168
      3165      3169      3169      3171      3169      3172      3169      3173
      3173      3175      3173      3176      3173      3177      3177      3179
      3177      3180      3177      3181      3181      3183      3181      3184
      3184      3186      3184      3187      3187      3189      3187      3190
      3187      3191      3191      3193      3191      3194      3191      3195
      3195      3197      3195      3198      3195      3199      3199      3201
      3199      3202      3199      3203      3203      3205      3203      3206
      3203      3207      3207      3209      3207      3210      3207      3211
      3211      3213      3211      3214      3211      3215      3215      3217
      3215      3218      3215      3219      3143      3145      3145      3149
      3145      3147      3153      3147      3154      3147      3155      3143
      3156      3143      3149      3151      3149      3152      3149      3220
      3220      3222      3220      3223      3220      3224      3224      3226
      3224      3227      3224      3228      3228      3230      3228      3231
      3228      3232      3232      3234      3232      3235      3232      3236
      3236      3238      3236      3239      3236      3240      3240      3242
      3240      3243      3240      3244      3244      3246      3244      3247
      3244      3248      3248      3250      3248      3251      3248      3252
      3252      3254      3252      3255      3252      3256      3256      3258
      3256      3259      3256      3260      3260      3262      3260      3263
      3260      3264      3264      3266      3264      3267      3264      3268
      3268      3270      3268      3271      3268      3272      3272      3274
      3272      3275      3272      3276      3277      3278      3282      3283
      3286      3287      3290      3291      3292      3293      3294      3295
      3296      3297      3298      3299      3300      3301      3304      3305
      3307      3308      3309      3310      3311      3312      3313      3314
      3321      3322      3325      3326      3327      3328      3329      3330
      3331      3332      3339      3340      3343      3344      3347      3348
      3351      3352      3355      3356      3359      3360      3363      3364
      3366      3367      3369      3370      3373      3374      3377      3378
      3381      3382      3385      3386      3389      3390      3393      3394
      3397      3398      3402      3403      3406      3407      3410      3411
      3414      3415      3418      3419      3422      3423      3426      3427
      3430      3431      3434      3435      3438      3439      3442      3443
      3446      3447      3450      3451      3454      3455      3277      3279
      3277      3280      3277      3281      3277      3282      3282      3284
      3282      3285      3282      3286      3286      3288      3286      3289
      3286      3298      3296      3300      3298      3290      3290      3296
      3290      3292      3290      3294      3300      3302      3300      3303
      3300      3304      3304      3306      3304      3321      3304      3307
      3321      3323      3321      3324      3321      3325      3307      3309
      3309      3313      3309      3311      3317      3311      3318      3311
      3319      3307      3320      3307      3313      3315      3313      3316
      3313      3339      3339      3341      3339      3342      3339      3343
      3343      3345      3343      3346      3343      3347      3347      3349
      3347      3350      3347      3351      3351      3353      3351      3354
      3351      3355      3355      3357      3355      3358      3355      3359
      3359      3361      3359      3362      3359      3363      3363      3365
      3363      3366      3366      3368      3366      3369      3369      3371
      3369      3372      3369      3373      3373      3375      3373      3376
      3373      3377      3377      3379      3377      3380      3377      3381
      3381      3383      3381      3384      3381      3385      3385      3387
      3385      3388      3385      3389      3389      3391      3389      3392
      3389      3393      3393      3395      3393      3396      3393      3397
      3397      3399      3397      3400      3397      3401      3325      3327
      3327      3331      3327      3329      3335      3329      3336      3329
      3337      3325      3338      3325      3331      3333      3331      3334
      3331      3402      3402      3404      3402      3405      3402      3406
      3406      3408      3406      3409      3406      3410      3410      3412
      3410      3413      3410      3414      3414      3416      3414      3417
      3414      3418      3418      3420      3418      3421      3418      3422
      3422      3424      3422      3425      3422      3426      3426      3428
      3426      3429      3426      3430      3430      3432      3430      3433
      3430      3434      3434      3436      3434      3437      3434      3438
      3438      3440      3438      3441      3438      3442      3442      3444
      3442      3445      3442      3446      3446      3448      3446      3449
      3446      3450      3450      3452      3450      3453      3450      3454
      3454      3456      3454      3457      3454      3458      3459      3460
      3464      3465      3468      3469      3472      3473      3474      3475
      3476      3477      3478      3479      3480      3481      3482      3483
      3486      3487      3489      3490      3491      3492      3493      3494
      3495      3496      3503      3504      3507      3508      3509      3510
      3511      3512      3513      3514      3521      3522      3525      3526
      3529      3530      3533      3534      3537      3538      3541      3542
      3545      3546      3548      3549      3551      3552      3555      3556
      3559      3560      3563      3564      3567      3568      3571      3572
      3575      3576      3579      3580      3584      3585      3588      3589
      3592      3593      3596      3597      3600      3601      3604      3605
      3608      3609      3612      3613      3616      3617      3620      3621
      3624      3625      3628      3629      3632      3633      3636      3637
      3459      3461      3459      3462      3459      3463      3459      3464
      3464      3466      3464      3467      3464      3468      3468      3470
      3468      3471      3468      3480      3478      3482      3480      3472
      3472      3478      3472      3474      3472      3476      3482      3484
      3482      3485      3482      3486      3486      3488      3486      3503
      3486      3489      3503      3505      3503      3506      3503      3507
      3489      3491      3491      3495      3491      3493      3499      3493
      3500      3493      3501      3489      3502      3489      3495      3497
      3495      3498      3495      3521      3521      3523      3521      3524
      3521      3525      3525      3527      3525      3528      3525      3529
      3529      3531      3529      3532      3529      3533      3533      3535
      3533      3536      3533      3537      3537      3539      3537      3540
      3537      3541      3541      3543      3541      3544      3541      3545
      3545      3547      3545      3548      3548      3550      3548      3551
      3551      3553      3551      3554      3551      3555      3555      3557
      3555      3558      3555      3559      3559      3561      3559      3562
      3559      3563      3563      3565      3563      3566      3563      3567
      3567      3569      3567      3570      3567      3571      3571      3573
      3571      3574      3571      3575      3575      3577      3575      3578
      3575      3579      3579      3581      3579      3582      3579      3583
      3507      3509      3509      3513      3509      3511      3517      3511
      3518      3511      3519      3507      3520      3507      3513      3515
      3513      3516      3513      3584      3584      3586      3584      3587
      3584      3588      3588      3590      3588      3591      3588      3592
      3592      3594      3592      3595      3592      3596      3596      3598
      3596      3599      3596      3600      3600      3602      3600      3603
      3600      3604      3604      3606      3604      3607      3604      3608
      3608      3610      3608      3611      3608      3612      3612      3614
      3612      3615      3612      3616      3616      3618      3616      3619
      3616      3620      3620      3622      3620      3623      3620      3624
      3624      3626      3624      3627      3624      3628      3628      3630
      3628      3631      3628      3632      3632      3634      3632      3635
      3632      3636      3636      3638      3636      3639      3636      3640
      3641      3642      3646      3647      3650      3651      3654      3655
      3656      3657      3658      3659      3660      3661      3662      3663
      3664      3665      3668      3669      3671      3672      3673      3674
      3675      3676      3677      3678      3685      3686      3689      3690
      3691      3692      3693      3694      3695      3696      3703      3704
      3707      3708      3711      3712      3715      3716      3719      3720
      3723      3724      3727      3728      3730      3731      3733      3734
      3737      3738      3741      3742      3745      3746      3749      3750
      3753      3754      3757      3758      3761      3762      3766      3767
      3770      3771      3774      3775      3778      3779      3782      3783
      3786      3787      3790      3791      3794      3795      3798      3799
      3802      3803      3806      3807      3810      3811      3814      3815
      3818      3819      3641      3643      3641      3644      3641      3645
      3641      3646      3646      3648      3646      3649      3646      3650
      3650      3652      3650      3653      3650      3662      3660      3664
      3662      3654      3654      3660      3654      3656      3654      3658
      3664      3666      3664      3667      3664      3668      3668      3670
      3668      3685      3668      3671      3685      3687      3685      3688
      3685      3689      3671      3673      3673      3677      3673      3675
      3681      3675      3682      3675      3683      3671      3684      3671
      3677      3679      3677      3680      3677      3703      3703      3705
      3703      3706      3703      3707      3707      3709      3707      3710
      3707      3711      3711      3713      3711      3714      3711      3715
      3715      3717      3715      3718      3715      3719      3719      3721
      3719      3722      3719      3723      3723      3725      3723      3726
      3723      3727      3727      3729      3727      3730      3730      3732
      3730      3733      3733      3735      3733      3736      3733      3737
      3737      3739      3737      3740      3737      3741      3741      3743
      3741      3744      3741      3745      3745      3747      3745      3748
      3745      3749      3749      3751      3749      3752      3749      3753
      3753      3755      3753      3756      3753      3757      3757      3759
      3757      3760      3757      3761      3761      3763      3761      3764
      3761      3765      3689      3691      3691      3695      3691      3693
      3699      3693      3700      3693      3701      3689      3702      3689
      3695      3697      3695      3698      3695      3766      3766      3768
      3766      3769      3766      3770      3770      3772      3770      3773
      3770      3774      3774      3776      3774      3777      3774      3778
      3778      3780      3778      3781      3778      3782      3782      3784
      3782      3785      3782      3786      3786      3788      3786      3789
      3786      3790      3790      3792      3790      3793      3790      3794
      3794      3796      3794      3797      3794      3798      3798      3800
      3798      3801      3798      3802      3802      3804      3802      3805
      3802      3806      3806      3808      3806      3809      3806      3810
      3810      3812      3810      3813      3810      3814      3814      3816
      3814      3817      3814      3818      3818      3820      3818      3821
      3818      3822      3823      3824      3828      3829      3832      3833
      3836      3837      3838      3839      3840      3841      3842      3843
      3844      3845      3846      3847      3850      3851      3853      3854
      3855      3856      3857      3858      3859      3860      3867      3868
      3871      3872      3873      3874      3875      3876      3877      3878
      3885      3886      3889      3890      3893      3894      3897      3898
      3901      3902      3905      3906      3909      3910      3912      3913
      3915      3916      3919      3920      3923      3924      3927      3928
      3931      3932      3935      3936      3939      3940      3943      3944
      3948      3949      3952      3953      3956      3957      3960      3961
      3964      3965      3968      3969      3972      3973      3976      3977
      3980      3981      3984      3985      3988      3989      3992      3993
      3996      3997      4000      4001      3823      3825      3823      3826
      3823      3827      3823      3828      3828      3830      3828      3831
      3828      3832      3832      3834      3832      3835      3832      3844
      3842      3846      3844      3836      3836      3842      3836      3838
      3836      3840      3846      3848      3846      3849      3846      3850
      3850      3852      3850      3867      3850      3853      3867      3869
      3867      3870      3867      3871      3853      3855      3855      3859
      3855      3857      3863      3857      3864      3857      3865      3853
      3866      3853      3859      3861      3859      3862      3859      3885
      3885      3887      3885      3888      3885      3889      3889      3891
      3889      3892      3889      3893      3893      3895      3893      3896
      3893      3897      3897      3899      3897      3900      3897      3901
      3901      3903      3901      3904      3901      3905      3905      3907
      3905      3908      3905      3909      3909      3911      3909      3912
      3912      3914      3912      3915      3915      3917      3915      3918
      3915      3919      3919      3921      3919      3922      3919      3923
      3923      3925      3923      3926      3923      3927      3927      3929
      3927      3930      3927      3931      3931      3933      3931      3934
      3931      3935      3935      3937      3935      3938      3935      3939
      3939      3941      3939      3942      3939      3943      3943      3945
      3943      3946      3943      3947      3871      3873      3873      3877
      3873      3875      3881      3875      3882      3875      3883      3871
      3884      3871      3877      3879      3877      3880      3877      3948
      3948      3950      3948      3951      3948      3952      3952      3954
      3952      3955      3952      3956      3956      3958      3956      3959
      3956      3960      3960      3962      3960      3963      3960      3964
      3964      3966      3964      3967      3964      3968      3968      3970
      3968      3971      3968      3972      3972      3974      3972      3975
      3972      3976      3976      3978      3976      3979      3976      3980
      3980      3982      3980      3983      3980      3984      3984      3986
      3984      3987      3984      3988      3988      3990      3988      3991
      3988      3992      3992      3994      3992      3995      3992      3996
      3996      3998      3996      3999      3996      4000      4000      4002
      4000      4003      4000      4004      4005      4006      4010      4011
      4014      4015      4018      4019      4020      4021      4022      4023
      4024      4025      4026      4027      4028      4029      4032      4033
      4035      4036      4037      4038      4039      4040      4041      4042
      4049      4050      4053      4054      4055      4056      4057      4058
      4059      4060      4067      4068      4071      4072      4075      4076
      4079      4080      4083      4084      4087      4088      4091      4092
      4094      4095      4097      4098      4101      4102      4105      4106
      4109      4110      4113      4114      4117      4118      4121      4122
      4125      4126      4130      4131      4134      4135      4138      4139
      4142      4143      4146      4147      4150      4151      4154      4155
      4158      4159      4162      4163      4166      4167      4170      4171
      4174      4175      4178      4179      4182      4183      4005      4007
      4005      4008      4005      4009      4005      4010      4010      4012
      4010      4013      4010      4014      4014      4016      4014      4017
      4014      4026      4024      4028      4026      4018      4018      4024
      4018      4020      4018      4022      4028      4030      4028      4031
      4028      4032      4032      4034      4032      4049      4032      4035
      4049      4051      4049      4052      4049      4053      4035      4037
      4037      4041      4037      4039      4045      4039      4046      4039
      4047      4035      4048      4035      4041      4043      4041      4044
      4041      4067      4067      4069      4067      4070      4067      4071
      4071      4073      4071      4074      4071      4075      4075      4077
      4075      4078      4075      4079      4079      4081      4079      4082
      4079      4083      4083      4085      4083      4086      4083      4087
      4087      4089      4087      4090      4087      4091      4091      4093
      4091      4094      4094      4096      4094      4097      4097      4099
      4097      4100      4097      4101      4101      4103      4101      4104
      4101      4105      4105      4107      4105      4108      4105      4109
      4109      4111      4109      4112      4109      4113      4113      4115
      4113      4116      4113      4117      4117      4119      4117      4120
      4117      4121      4121      4123      4121      4124      4121      4125
      4125      4127      4125      4128      4125      4129      4053      4055
      4055      4059      4055      4057      4063      4057      4064      4057
      4065      4053      4066      4053      4059      4061      4059      4062
      4059      4130      4130      4132      4130      4133      4130      4134
      4134      4136      4134      4137      4134      4138      4138      4140
      4138      4141      4138      4142      4142      4144      4142      4145
      4142      4146      4146      4148      4146      4149      4146      4150
      4150      4152      4150      4153      4150      4154      4154      4156
      4154      4157      4154      4158      4158      4160      4158      4161
      4158      4162      4162      4164      4162      4165      4162      4166
      4166      4168      4166      4169      4166      4170      4170      4172
      4170      4173      4170      4174      4174      4176      4174      4177
      4174      4178      4178      4180      4178      4181      4178      4182
      4182      4184      4182      4185      4182      4186      4187      4188
      4192      4193      4196      4197      4200      4201      4202      4203
      4204      4205      4206      4207      4208      4209      4210      4211
      4214      4215      4217      4218      4219      4220      4221      4222
      4223      4224      4231      4232      4235      4236      4237      4238
      4239      4240      4241      4242      4249      4250      4253      4254
      4257      4258      4261      4262      4265      4266      4269      4270
      4273      4274      4276      4277      4279      4280      4283      4284
      4287      4288      4291      4292      4295      4296      4299      4300
      4303      4304      4307      4308      4312      4313      4316      4317
      4320      4321      4324      4325      4328      4329      4332      4333
      4336      4337      4340      4341      4344      4345      4348      4349
      4352      4353      4356      4357      4360      4361      4364      4365
      4187      4189      4187      4190      4187      4191      4187      4192
      4192      4194      4192      4195      4192      4196      4196      4198
      4196      4199      4196      4208      4206      4210      4208      4200
      4200      4206      4200      4202      4200      4204      4210      4212
      4210      4213      4210      4214      4214      4216      4214      4231
      4214      4217      4231      4233      4231      4234      4231      4235
      4217      4219      4219      4223      4219      4221      4227      4221
      4228      4221      4229      4217      4230      4217      4223      4225
      4223      4226      4223      4249      4249      4251      4249      4252
      4249      4253      4253      4255      4253      4256      4253      4257
      4257      4259      4257      4260      4257      4261      4261      4263
      4261      4264      4261      4265      4265      4267      4265      4268
      4265      4269      4269      4271      4269      4272      4269      4273
      4273      4275      4273      4276      4276      4278      4276      4279
      4279      4281      4279      4282      4279      4283      4283      4285
      4283      4286      4283      4287      4287      4289      4287      4290
      4287      4291      4291      4293      4291      4294      4291      4295
      4295      4297      4295      4298      4295      4299      4299      4301
      4299      4302      4299      4303      4303      4305      4303      4306
      4303      4307      4307      4309      4307      4310      4307      4311
      4235      4237      4237      4241      4237      4239      4245      4239
      4246      4239      4247      4235      4248      4235      4241      4243
      4241      4244      4241      4312      4312      4314      4312      4315
      4312      4316      4316      4318      4316      4319      4316      4320
      4320      4322      4320      4323      4320      4324      4324      4326
      4324      4327      4324      4328      4328      4330      4328      4331
      4328      4332      4332      4334      4332      4335      4332      4336
      4336      4338      4336      4339      4336      4340      4340      4342
      4340      4343      4340      4344      4344      4346      4344      4347
      4344      4348      4348      4350      4348      4351      4348      4352
      4352      4354      4352      4355      4352      4356      4356      4358
      4356      4359      4356      4360      4360      4362      4360      4363
      4360      4364      4364      4366      4364      4367      4364      4368
      4369      4370      4374      4375      4378      4379      4382      4383
      4384      4385      4386      4387      4388      4389      4390      4391
      4392      4393      4396      4397      4399      4400      4401      4402
      4403      4404      4405      4406      4413      4414      4417      4418
      4419      4420      4421      4422      4423      4424      4431      4432
      4435      4436      4439      4440      4443      4444      4447      4448
      4451      4452      4455      4456      4458      4459      4461      4462
      4465      4466      4469      4470      4473      4474      4477      4478
      4481      4482      4485      4486      4489      4490      4494      4495
      4498      4499      4502      4503      4506      4507      4510      4511
      4514      4515      4518      4519      4522      4523      4526      4527
      4530      4531      4534      4535      4538      4539      4542      4543
      4546      4547      4369      4371      4369      4372      4369      4373
      4369      4374      4374      4376      4374      4377      4374      4378
      4378      4380      4378      4381      4378      4390      4388      4392
      4390      4382      4382      4388      4382      4384      4382      4386
      4392      4394      4392      4395      4392      4396      4396      4398
      4396      4413      4396      4399      4413      4415      4413      4416
      4413      4417      4399      4401      4401      4405      4401      4403
      4409      4403      4410      4403      4411      4399      4412      4399
      4405      4407      4405      4408      4405      4431      4431      4433
      4431      4434      4431      4435      4435      4437      4435      4438
      4435      4439      4439      4441      4439      4442      4439      4443
      4443      4445      4443      4446      4443      4447      4447      4449
      4447      4450      4447      4451      4451      4453      4451      4454
      4451      4455      4455      4457      4455      4458      4458      4460
      4458      4461      4461      4463      4461      4464      4461      4465
      4465      4467      4465      4468      4465      4469      4469      4471
      4469      4472      4469      4473      4473      4475      4473      4476
      4473      4477      4477      4479      4477      4480      4477      4481
      4481      4483      4481      4484      4481      4485      4485      4487
      4485      4488      4485      4489      4489      4491      4489      4492
      4489      4493      4417      4419      4419      4423      4419      4421
      4427      4421      4428      4421      4429      4417      4430      4417
      4423      4425      4423      4426      4423      4494      4494      4496
      4494      4497      4494      4498      4498      4500      4498      4501
      4498      4502      4502      4504      4502      4505      4502      4506
      4506      4508      4506      4509      4506      4510      4510      4512
      4510      4513      4510      4514      4514      4516      4514      4517
      4514      4518      4518      4520      4518      4521      4518      4522
      4522      4524      4522      4525      4522      4526      4526      4528
      4526      4529      4526      4530      4530      4532      4530      4533
      4530      4534      4534      4536      4534      4537      4534      4538
      4538      4540      4538      4541      4538      4542      4542      4544
      4542      4545      4542      4546      4546      4548      4546      4549
      4546      4550      4551      4552      4556      4557      4560      4561
      4564      4565      4566      4567      4568      4569      4570      4571
      4572      4573      4574      4575      4578      4579      4581      4582
      4583      4584      4585      4586      4587      4588      4595      4596
      4599      4600      4601      4602      4603      4604      4605      4606
      4613      4614      4617      4618      4621      4622      4625      4626
      4629      4630      4633      4634      4637      4638      4640      4641
      4643      4644      4647      4648      4651      4652      4655      4656
      4659      4660      4663      4664      4667      4668      4671      4672
      4676      4677      4680      4681      4684      4685      4688      4689
      4692      4693      4696      4697      4700      4701      4704      4705
      4708      4709      4712      4713      4716      4717      4720      4721
      4724      4725      4728      4729      4551      4553      4551      4554
      4551      4555      4551      4556      4556      4558      4556      4559
      4556      4560      4560      4562      4560      4563      4560      4572
      4570      4574      4572      4564      4564      4570      4564      4566
      4564      4568      4574      4576      4574      4577      4574      4578
      4578      4580      4578      4595      4578      4581      4595      4597
      4595      4598      4595      4599      4581      4583      4583      4587
      4583      4585      4591      4585      4592      4585      4593      4581
      4594      4581      4587      4589      4587      4590      4587      4613
      4613      4615      4613      4616      4613      4617      4617      4619
      4617      4620      4617      4621      4621      4623      4621      4624
      4621      4625      4625      4627      4625      4628      4625      4629
      4629      4631      4629      4632      4629      4633      4633      4635
      4633      4636      4633      4637      4637      4639      4637      4640
      4640      4642      4640      4643      4643      4645      4643      4646
      4643      4647      4647      4649      4647      4650      4647      4651
      4651      4653      4651      4654      4651      4655      4655      4657
      4655      4658      4655      4659      4659      4661      4659      4662
      4659      4663      4663      4665      4663      4666      4663      4667
      4667      4669      4667      4670      4667      4671      4671      4673
      4671      4674      4671      4675      4599      4601      4601      4605
      4601      4603      4609      4603      4610      4603      4611      4599
      4612      4599      4605      4607      4605      4608      4605      4676
      4676      4678      4676      4679      4676      4680      4680      4682
      4680      4683      4680      4684      4684      4686      4684      4687
      4684      4688      4688      4690      4688      4691      4688      4692
      4692      4694      4692      4695      4692      4696      4696      4698
      4696      4699      4696      4700      4700      4702      4700      4703
      4700      4704      4704      4706      4704      4707      4704      4708
      4708      4710      4708      4711      4708      4712      4712      4714
      4712      4715      4712      4716      4716      4718      4716      4719
      4716      4720      4720      4722      4720      4723      4720      4724
      4724      4726      4724      4727      4724      4728      4728      4730
      4728      4731      4728      4732      4733      4734      4738      4739
      4742      4743      4746      4747      4748      4749      4750      4751
      4752      4753      4754      4755      4756      4757      4760      4761
      4763      4764      4765      4766      4767      4768      4769      4770
      4777      4778      4781      4782      4783      4784      4785      4786
      4787      4788      4795      4796      4799      4800      4803      4804
      4807      4808      4811      4812      4815      4816      4819      4820
      4822      4823      4825      4826      4829      4830      4833      4834
      4837      4838      4841      4842      4845      4846      4849      4850
      4853      4854      4858      4859      4862      4863      4866      4867
      4870      4871      4874      4875      4878      4879      4882      4883
      4886      4887      4890      4891      4894      4895      4898      4899
      4902      4903      4906      4907      4910      4911      4733      4735
      4733      4736      4733      4737      4733      4738      4738      4740
      4738      4741      4738      4742      4742      4744      4742      4745
      4742      4754      4752      4756      4754      4746      4746      4752
      4746      4748      4746      4750      4756      4758      4756      4759
      4756      4760      4760      4762      4760      4777      4760      4763
      4777      4779      4777      4780      4777      4781      4763      4765
      4765      4769      4765      4767      4773      4767      4774      4767
      4775      4763      4776      4763      4769      4771      4769      4772
      4769      4795      4795      4797      4795      4798      4795      4799
      4799      4801      4799      4802      4799      4803      4803      4805
      4803      4806      4803      4807      4807      4809      4807      4810
      4807      4811      4811      4813      4811      4814      4811      4815
      4815      4817      4815      4818      4815      4819      4819      4821
      4819      4822      4822      4824      4822      4825      4825      4827
      4825      4828      4825      4829      4829      4831      4829      4832
      4829      4833      4833      4835      4833      4836      4833      4837
      4837      4839      4837      4840      4837      4841      4841      4843
      4841      4844      4841      4845      4845      4847      4845      4848
      4845      4849      4849      4851      4849      4852      4849      4853
      4853      4855      4853      4856      4853      4857      4781      4783
      4783      4787      4783      4785      4791      4785      4792      4785
      4793      4781      4794      4781      4787      4789      4787      4790
      4787      4858      4858      4860      4858      4861      4858      4862
      4862      4864      4862      4865      4862      4866      4866      4868
      4866      4869      4866      4870      4870      4872      4870      4873
      4870      4874      4874      4876      4874      4877      4874      4878
      4878      4880      4878      4881      4878      4882      4882      4884
      4882      4885      4882      4886      4886      4888      4886      4889
      4886      4890      4890      4892      4890      4893      4890      4894
      4894      4896      4894      4897      4894      4898      4898      4900
      4898      4901      4898      4902      4902      4904      4902      4905
      4902      4906      4906      4908      4906      4909      4906      4910
      4910      4912      4910      4913      4910      4914      4915      4916
      4920      4921      4924      4925      4928      4929      4930      4931
      4932      4933      4934      4935      4936      4937      4938      4939
      4942      4943      4945      4946      4947      4948      4949      4950
      4951      4952      4959      4960      4963      4964      4965      4966
      4967      4968      4969      4970      4977      4978      4981      4982
      4985      4986      4989      4990      4993      4994      4997      4998
      5001      5002      5004      5005      5007      5008      5011      5012
      5015      5016      5019      5020      5023      5024      5027      5028
      5031      5032      5035      5036      5040      5041      5044      5045
      5048      5049      5052      5053      5056      5057      5060      5061
      5064      5065      5068      5069      5072      5073      5076      5077
      5080      5081      5084      5085      5088      5089      5092      5093
      4915      4917      4915      4918      4915      4919      4915      4920
      4920      4922      4920      4923      4920      4924      4924      4926
      4924      4927      4924      4936      4934      4938      4936      4928
      4928      4934      4928      4930      4928      4932      4938      4940
      4938      4941      4938      4942      4942      4944      4942      4959
      4942      4945      4959      4961      4959      4962      4959      4963
      4945      4947      4947      4951      4947      4949      4955      4949
      4956      4949      4957      4945      4958      4945      4951      4953
      4951      4954      4951      4977      4977      4979      4977      4980
      4977      4981      4981      4983      4981      4984      4981      4985
      4985      4987      4985      4988      4985      4989      4989      4991
      4989      4992      4989      4993      4993      4995      4993      4996
      4993      4997      4997      4999      4997      5000      4997      5001
      5001      5003      5001      5004      5004      5006      5004      5007
      5007      5009      5007      5010      5007      5011      5011      5013
      5011      5014      5011      5015      5015      5017      5015      5018
      5015      5019      5019      5021      5019      5022      5019      5023
      5023      5025      5023      5026      5023      5027      5027      5029
      5027      5030      5027      5031      5031      5033      5031      5034
      5031      5035      5035      5037      5035      5038      5035      5039
      4963      4965      4965      4969      4965      4967      4973      4967
      4974      4967      4975      4963      4976      4963      4969      4971
      4969      4972      4969      5040      5040      5042      5040      5043
      5040      5044      5044      5046      5044      5047      5044      5048
      5048      5050      5048      5051      5048      5052      5052      5054
      5052      5055      5052      5056      5056      5058      5056      5059
      5056      5060      5060      5062      5060      5063      5060      5064
      5064      5066      5064      5067      5064      5068      5068      5070
      5068      5071      5068      5072      5072      5074      5072      5075
      5072      5076      5076      5078      5076      5079      5076      5080
      5080      5082      5080      5083      5080      5084      5084      5086
      5084      5087      5084      5088      5088      5090      5088      5091
      5088      5092      5092      5094      5092      5095      5092      5096
      5097      5098      5102      5103      5106      5107      5110      5111
      5112      5113      5114      5115      5116      5117      5118      5119
      5120      5121      5124      5125      5127      5128      5129      5130
      5131      5132      5133      5134      5141      5142      5145      5146
      5147      5148      5149      5150      5151      5152      5159      5160
      5163      5164      5167      5168      5171      5172      5175      5176
      5179      5180      5183      5184      5186      5187      5189      5190
      5193      5194      5197      5198      5201      5202      5205      5206
      5209      5210      5213      5214      5217      5218      5222      5223
      5226      5227      5230      5231      5234      5235      5238      5239
      5242      5243      5246      5247      5250      5251      5254      5255
      5258      5259      5262      5263      5266      5267      5270      5271
      5274      5275      5097      5099      5097      5100      5097      5101
      5097      5102      5102      5104      5102      5105      5102      5106
      5106      5108      5106      5109      5106      5118      5116      5120
      5118      5110      5110      5116      5110      5112      5110      5114
      5120      5122      5120      5123      5120      5124      5124      5126
      5124      5141      5124      5127      5141      5143      5141      5144
      5141      5145      5127      5129      5129      5133      5129      5131
      5137      5131      5138      5131      5139      5127      5140      5127
      5133      5135      5133      5136      5133      5159      5159      5161
      5159      5162      5159      5163      5163      5165      5163      5166
      5163      5167      5167      5169      5167      5170      5167      5171
      5171      5173      5171      5174      5171      5175      5175      5177
      5175      5178      5175      5179      5179      5181      5179      5182
      5179      5183      5183      5185      5183      5186      5186      5188
      5186      5189      5189      5191      5189      5192      5189      5193
      5193      5195      5193      5196      5193      5197      5197      5199
      5197      5200      5197      5201      5201      5203      5201      5204
      5201      5205      5205      5207      5205      5208      5205      5209
      5209      5211      5209      5212      5209      5213      5213      5215
      5213      5216      5213      5217      5217      5219      5217      5220
      5217      5221      5145      5147      5147      5151      5147      5149
      5155      5149      5156      5149      5157      5145      5158      5145
      5151      5153      5151      5154      5151      5222      5222      5224
      5222      5225      5222      5226      5226      5228      5226      5229
      5226      5230      5230      5232      5230      5233      5230      5234
      5234      5236      5234      5237      5234      5238      5238      5240
      5238      5241      5238      5242      5242      5244      5242      5245
      5242      5246      5246      5248      5246      5249      5246      5250
      5250      5252      5250      5253      5250      5254      5254      5256
      5254      5257      5254      5258      5258      5260      5258      5261
      5258      5262      5262      5264      5262      5265      5262      5266
      5266      5268      5266      5269      5266      5270      5270      5272
      5270      5273      5270      5274      5274      5276      5274      5277
      5274      5278      5279      5280      5284      5285      5288      5289
      5292      5293      5294      5295      5296      5297      5298      5299
      5300      5301      5302      5303      5306      5307      5309      5310
      5311      5312      5313      5314      5315      5316      5323      5324
      5327      5328      5329      5330      5331      5332      5333      5334
      5341      5342      5345      5346      5349      5350      5353      5354
      5357      5358      5361      5362      5365      5366      5368      5369
      5371      5372      5375      5376      5379      5380      5383      5384
      5387      5388      5391      5392      5395      5396      5399      5400
      5404      5405      5408      5409      5412      5413      5416      5417
      5420      5421      5424      5425      5428      5429      5432      5433
      5436      5437      5440      5441      5444      5445      5448      5449
      5452      5453      5456      5457      5279      5281      5279      5282
      5279      5283      5279      5284      5284      5286      5284      5287
      5284      5288      5288      5290      5288      5291      5288      5300
      5298      5302      5300      5292      5292      5298      5292      5294
      5292      5296      5302      5304      5302      5305      5302      5306
      5306      5308      5306      5323      5306      5309      5323      5325
      5323      5326      5323      5327      5309      5311      5311      5315
      5311      5313      5319      5313      5320      5313      5321      5309
      5322      5309      5315      5317      5315      5318      5315      5341
      5341      5343      5341      5344      5341      5345      5345      5347
      5345      5348      5345      5349      5349      5351      5349      5352
      5349      5353      5353      5355      5353      5356      5353      5357
      5357      5359      5357      5360      5357      5361      5361      5363
      5361      5364      5361      5365      5365      5367      5365      5368
      5368      5370      5368      5371      5371      5373      5371      5374
      5371      5375      5375      5377      5375      5378      5375      5379
      5379      5381      5379      5382      5379      5383      5383      5385
      5383      5386      5383      5387      5387      5389      5387      5390
      5387      5391      5391      5393      5391      5394      5391      5395
      5395      5397      5395      5398      5395      5399      5399      5401
      5399      5402      5399      5403      5327      5329      5329      5333
      5329      5331      5337      5331      5338      5331      5339      5327
      5340      5327      5333      5335      5333      5336      5333      5404
      5404      5406      5404      5407      5404      5408      5408      5410
      5408      5411      5408      5412      5412      5414      5412      5415
      5412      5416      5416      5418      5416      5419      5416      5420
      5420      5422      5420      5423      5420      5424      5424      5426
      5424      5427      5424      5428      5428      5430      5428      5431
      5428      5432      5432      5434      5432      5435      5432      5436
      5436      5438      5436      5439      5436      5440      5440      5442
      5440      5443      5440      5444      5444      5446      5444      5447
      5444      5448      5448      5450      5448      5451      5448      5452
      5452      5454      5452      5455      5452      5456      5456      5458
      5456      5459      5456      5460      5461      5462      5466      5467
      5470      5471      5474      5475      5476      5477      5478      5479
      5480      5481      5482      5483      5484      5485      5488      5489
      5491      5492      5493      5494      5495      5496      5497      5498
      5505      5506      5509      5510      5511      5512      5513      5514
      5515      5516      5523      5524      5527      5528      5531      5532
      5535      5536      5539      5540      5543      5544      5547      5548
      5550      5551      5553      5554      5557      5558      5561      5562
      5565      5566      5569      5570      5573      5574      5577      5578
      5581      5582      5586      5587      5590      5591      5594      5595
      5598      5599      5602      5603      5606      5607      5610      5611
      5614      5615      5618      5619      5622      5623      5626      5627
      5630      5631      5634      5635      5638      5639      5461      5463
      5461      5464      5461      5465      5461      5466      5466      5468
      5466      5469      5466      5470      5470      5472      5470      5473
      5470      5482      5480      5484      5482      5474      5474      5480
      5474      5476      5474      5478      5484      5486      5484      5487
      5484      5488      5488      5490      5488      5505      5488      5491
      5505      5507      5505      5508      5505      5509      5491      5493
      5493      5497      5493      5495      5501      5495      5502      5495
      5503      5491      5504      5491      5497      5499      5497      5500
      5497      5523      5523      5525      5523      5526      5523      5527
      5527      5529      5527      5530      5527      5531      5531      5533
      5531      5534      5531      5535      5535      5537      5535      5538
      5535      5539      5539      5541      5539      5542      5539      5543
      5543      5545      5543      5546      5543      5547      5547      5549
      5547      5550      5550      5552      5550      5553      5553      5555
      5553      5556      5553      5557      5557      5559      5557      5560
      5557      5561      5561      5563      5561      5564      5561      5565
      5565      5567      5565      5568      5565      5569      5569      5571
      5569      5572      5569      5573      5573      5575      5573      5576
      5573      5577      5577      5579      5577      5580      5577      5581
      5581      5583      5581      5584      5581      5585      5509      5511
      5511      5515      5511      5513      5519      5513      5520      5513
      5521      5509      5522      5509      5515      5517      5515      5518
      5515      5586      5586      5588      5586      5589      5586      5590
      5590      5592      5590      5593      5590      5594      5594      5596
      5594      5597      5594      5598      5598      5600      5598      5601
      5598      5602      5602      5604      5602      5605      5602      5606
      5606      5608      5606      5609      5606      5610      5610      5612
      5610      5613      5610      5614      5614      5616      5614      5617
      5614      5618      5618      5620      5618      5621      5618      5622
      5622      5624      5622      5625      5622      5626      5626      5628
      5626      5629      5626      5630      5630      5632      5630      5633
      5630      5634      5634      5636      5634      5637      5634      5638
      5638      5640      5638      5641      5638      5642      5643      5644
      5648      5649      5652      5653      5656      5657      5658      5659
      5660      5661      5662      5663      5664      5665      5666      5667
      5670      5671      5673      5674      5675      5676      5677      5678
      5679      5680      5687      5688      5691      5692      5693      5694
      5695      5696      5697      5698      5705      5706      5709      5710
      5713      5714      5717      5718      5721      5722      5725      5726
      5729      5730      5732      5733      5735      5736      5739      5740
      5743      5744      5747      5748      5751      5752      5755      5756
      5759      5760      5763      5764      5768      5769      5772      5773
      5776      5777      5780      5781      5784      5785      5788      5789
      5792      5793      5796      5797      5800      5801      5804      5805
      5808      5809      5812      5813      5816      5817      5820      5821
      5643      5645      5643      5646      5643      5647      5643      5648
      5648      5650      5648      5651      5648      5652      5652      5654
      5652      5655      5652      5664      5662      5666      5664      5656
      5656      5662      5656      5658      5656      5660      5666      5668
      5666      5669      5666      5670      5670      5672      5670      5687
      5670      5673      5687      5689      5687      5690      5687      5691
      5673      5675      5675      5679      5675      5677      5683      5677
      5684      5677      5685      5673      5686      5673      5679      5681
      5679      5682      5679      5705      5705      5707      5705      5708
      5705      5709      5709      5711      5709      5712      5709      5713
      5713      5715      5713      5716      5713      5717      5717      5719
      5717      5720      5717      5721      5721      5723      5721      5724
      5721      5725      5725      5727      5725      5728      5725      5729
      5729      5731      5729      5732      5732      5734      5732      5735
      5735      5737      5735      5738      5735      5739      5739      5741
      5739      5742      5739      5743      5743      5745      5743      5746
      5743      5747      5747      5749      5747      5750      5747      5751
      5751      5753      5751      5754      5751      5755      5755      5757
      5755      5758      5755      5759      5759      5761      5759      5762
      5759      5763      5763      5765      5763      5766      5763      5767
      5691      5693      5693      5697      5693      5695      5701      5695
      5702      5695      5703      5691      5704      5691      5697      5699
      5697      5700      5697      5768      5768      5770      5768      5771
      5768      5772      5772      5774      5772      5775      5772      5776
      5776      5778      5776      5779      5776      5780      5780      5782
      5780      5783      5780      5784      5784      5786      5784      5787
      5784      5788      5788      5790      5788      5791      5788      5792
      5792      5794      5792      5795      5792      5796      5796      5798
      5796      5799      5796      5800      5800      5802      5800      5803
      5800      5804      5804      5806      5804      5807      5804      5808
      5808      5810      5808      5811      5808      5812      5812      5814
      5812      5815      5812      5816      5816      5818      5816      5819
      5816      5820      5820      5822      5820      5823      5820      5824
      5825      5826      5830      5831      5834      5835      5838      5839
      5840      5841      5842      5843      5844      5845      5846      5847
      5848      5849      5852      5853      5855      5856      5857      5858
      5859      5860      5861      5862      5869      5870      5873      5874
      5875      5876      5877      5878      5879      5880      5887      5888
      5891      5892      5895      5896      5899      5900      5903      5904
      5907      5908      5911      5912      5914      5915      5917      5918
      5921      5922      5925      5926      5929      5930      5933      5934
      5937      5938      5941      5942      5945      5946      5950      5951
      5954      5955      5958      5959      5962      5963      5966      5967
      5970      5971      5974      5975      5978      5979      5982      5983
      5986      5987      5990      5991      5994      5995      5998      5999
      6002      6003      5825      5827      5825      5828      5825      5829
      5825      5830      5830      5832      5830      5833      5830      5834
      5834      5836      5834      5837      5834      5846      5844      5848
      5846      5838      5838      5844      5838      5840      5838      5842
      5848      5850      5848      5851      5848      5852      5852      5854
      5852      5869      5852      5855      5869      5871      5869      5872
      5869      5873      5855      5857      5857      5861      5857      5859
      5865      5859      5866      5859      5867      5855      5868      5855
      5861      5863      5861      5864      5861      5887      5887      5889
      5887      5890      5887      5891      5891      5893      5891      5894
      5891      5895      5895      5897      5895      5898      5895      5899
      5899      5901      5899      5902      5899      5903      5903      5905
      5903      5906      5903      5907      5907      5909      5907      5910
      5907      5911      5911      5913      5911      5914      5914      5916
      5914      5917      5917      5919      5917      5920      5917      5921
      5921      5923      5921      5924      5921      5925      5925      5927
      5925      5928      5925      5929      5929      5931      5929      5932
      5929      5933      5933      5935      5933      5936      5933      5937
      5937      5939      5937      5940      5937      5941      5941      5943
      5941      5944      5941      5945      5945      5947      5945      5948
      5945      5949      5873      5875      5875      5879      5875      5877
      5883      5877      5884      5877      5885      5873      5886      5873
      5879      5881      5879      5882      5879      5950      5950      5952
      5950      5953      5950      5954      5954      5956      5954      5957
      5954      5958      5958      5960      5958      5961      5958      5962
      5962      5964      5962      5965      5962      5966      5966      5968
      5966      5969      5966      5970      5970      5972      5970      5973
      5970      5974      5974      5976      5974      5977      5974      5978
      5978      5980      5978      5981      5978      5982      5982      5984
      5982      5985      5982      5986      5986      5988      5986      5989
      5986      5990      5990      5992      5990      5993      5990      5994
      5994      5996      5994      5997      5994      5998      5998      6000
      5998      6001      5998      6002      6002      6004      6002      6005
      6002      6006      6007      6008      6012      6013      6016      6017
      6020      6021      6022      6023      6024      6025      6026      6027
      6028      6029      6030      6031      6034      6035      6037      6038
      6039      6040      6041      6042      6043      6044      6051      6052
      6055      6056      6057      6058      6059      6060      6061      6062
      6069      6070      6073      6074      6077      6078      6081      6082
      6085      6086      6089      6090      6093      6094      6096      6097
      6099      6100      6103      6104      6107      6108      6111      6112
      6115      6116      6119      6120      6123      6124      6127      6128
      6132      6133      6136      6137      6140      6141      6144      6145
      6148      6149      6152      6153      6156      6157      6160      6161
      6164      6165      6168      6169      6172      6173      6176      6177
      6180      6181      6184      6185      6007      6009      6007      6010
      6007      6011      6007      6012      6012      6014      6012      6015
      6012      6016      6016      6018      6016      6019      6016      6028
      6026      6030      6028      6020      6020      6026      6020      6022
      6020      6024      6030      6032      6030      6033      6030      6034
      6034      6036      6034      6051      6034      6037      6051      6053
      6051      6054      6051      6055      6037      6039      6039      6043
      6039      6041      6047      6041      6048      6041      6049      6037
      6050      6037      6043      6045      6043      6046      6043      6069
      6069      6071      6069      6072      6069      6073      6073      6075
      6073      6076      6073      6077      6077      6079      6077      6080
      6077      6081      6081      6083      6081      6084      6081      6085
      6085      6087      6085      6088      6085      6089      6089      6091
      6089      6092      6089      6093      6093      6095      6093      6096
      6096      6098      6096      6099      6099      6101      6099      6102
      6099      6103      6103      6105      6103      6106      6103      6107
      6107      6109      6107      6110      6107      6111      6111      6113
      6111      6114      6111      6115      6115      6117      6115      6118
      6115      6119      6119      6121      6119      6122      6119      6123
      6123      6125      6123      6126      6123      6127      6127      6129
      6127      6130      6127      6131      6055      6057      6057      6061
      6057      6059      6065      6059      6066      6059      6067      6055
      6068      6055      6061      6063      6061      6064      6061      6132
      6132      6134      6132      6135      6132      6136      6136      6138
      6136      6139      6136      6140      6140      6142      6140      6143
      6140      6144      6144      6146      6144      6147      6144      6148
      6148      6150      6148      6151      6148      6152      6152      6154
      6152      6155      6152      6156      6156      6158      6156      6159
      6156      6160      6160      6162      6160      6163      6160      6164
      6164      6166      6164      6167      6164      6168      6168      6170
      6168      6171      6168      6172      6172      6174      6172      6175
      6172      6176      6176      6178      6176      6179      6176      6180
      6180      6182      6180      6183      6180      6184      6184      6186
      6184      6187      6184      6188      6189      6190      6194      6195
      6198      6199      6202      6203      6204      6205      6206      6207
      6208      6209      6210      6211      6212      6213      6216      6217
      6219      6220      6221      6222      6223      6224      6225      6226
      6233      6234      6237      6238      6239      6240      6241      6242
      6243      6244      6251      6252      6255      6256      6259      6260
      6263      6264      6267      6268      6271      6272      6275      6276
      6278      6279      6281      6282      6285      6286      6289      6290
      6293      6294      6297      6298      6301      6302      6305      6306
      6309      6310      6314      6315      6318      6319      6322      6323
      6326      6327      6330      6331      6334      6335      6338      6339
      6342      6343      6346      6347      6350      6351      6354      6355
      6358      6359      6362      6363      6366      6367      6189      6191
      6189      6192      6189      6193      6189      6194      6194      6196
      6194      6197      6194      6198      6198      6200      6198      6201
      6198      6210      6208      6212      6210      6202      6202      6208
      6202      6204      6202      6206      6212      6214      6212      6215
      6212      6216      6216      6218      6216      6233      6216      6219
      6233      6235      6233      6236      6233      6237      6219      6221
      6221      6225      6221      6223      6229      6223      6230      6223
      6231      6219      6232      6219      6225      6227      6225      6228
      6225      6251      6251      6253      6251      6254      6251      6255
      6255      6257      6255      6258      6255      6259      6259      6261
      6259      6262      6259      6263      6263      6265      6263      6266
      6263      6267      6267      6269      6267      6270      6267      6271
      6271      6273      6271      6274      6271      6275      6275      6277
      6275      6278      6278      6280      6278      6281      6281      6283
      6281      6284      6281      6285      6285      6287      6285      6288
      6285      6289      6289      6291      6289      6292      6289      6293
      6293      6295      6293      6296      6293      6297      6297      6299
      6297      6300      6297      6301      6301      6303      6301      6304
      6301      6305      6305      6307      6305      6308      6305      6309
      6309      6311      6309      6312      6309      6313      6237      6239
      6239      6243      6239      6241      6247      6241      6248      6241
      6249      6237      6250      6237      6243      6245      6243      6246
      6243      6314      6314      6316      6314      6317      6314      6318
      6318      6320      6318      6321      6318      6322      6322      6324
      6322      6325      6322      6326      6326      6328      6326      6329
      6326      6330      6330      6332      6330      6333      6330      6334
      6334      6336      6334      6337      6334      6338      6338      6340
      6338      6341      6338      6342      6342      6344      6342      6345
      6342      6346      6346      6348      6346      6349      6346      6350
      6350      6352      6350      6353      6350      6354      6354      6356
      6354      6357      6354      6358      6358      6360      6358      6361
      6358      6362      6362      6364      6362      6365      6362      6366
      6366      6368      6366      6369      6366      6370      6371      6372
      6376      6377      6380      6381      6384      6385      6386      6387
      6388      6389      6390      6391      6392      6393      6394      6395
      6398      6399      6401      6402      6403      6404      6405      6406
      6407      6408      6415      6416      6419      6420      6421      6422
      6423      6424      6425      6426      6433      6434      6437      6438
      6441      6442      6445      6446      6449      6450      6453      6454
      6457      6458      6460      6461      6463      6464      6467      6468
      6471      6472      6475      6476      6479      6480      6483      6484
      6487      6488      6491      6492      6496      6497      6500      6501
      6504      6505      6508      6509      6512      6513      6516      6517
      6520      6521      6524      6525      6528      6529      6532      6533
      6536      6537      6540      6541      6544      6545      6548      6549
      6371      6373      6371      6374      6371      6375      6371      6376
      6376      6378      6376      6379      6376      6380      6380      6382
      6380      6383      6380      6392      6390      6394      6392      6384
      6384      6390      6384      6386      6384      6388      6394      6396
      6394      6397      6394      6398      6398      6400      6398      6415
      6398      6401      6415      6417      6415      6418      6415      6419
      6401      6403      6403      6407      6403      6405      6411      6405
      6412      6405      6413      6401      6414      6401      6407      6409
      6407      6410      6407      6433      6433      6435      6433      6436
      6433      6437      6437      6439      6437      6440      6437      6441
      6441      6443      6441      6444      6441      6445      6445      6447
      6445      6448      6445      6449      6449      6451      6449      6452
      6449      6453      6453      6455      6453      6456      6453      6457
      6457      6459      6457      6460      6460      6462      6460      6463
      6463      6465      6463      6466      6463      6467      6467      6469
      6467      6470      6467      6471      6471      6473      6471      6474
      6471      6475      6475      6477      6475      6478      6475      6479
      6479      6481      6479      6482      6479      6483      6483      6485
      6483      6486      6483      6487      6487      6489      6487      6490
      6487      6491      6491      6493      6491      6494      6491      6495
      6419      6421      6421      6425      6421      6423      6429      6423
      6430      6423      6431      6419      6432      6419      6425      6427
      6425      6428      6425      6496      6496      6498      6496      6499
      6496      6500      6500      6502      6500      6503      6500      6504
      6504      6506      6504      6507      6504      6508      6508      6510
      6508      6511      6508      6512      6512      6514      6512      6515
      6512      6516      6516      6518      6516      6519      6516      6520
      6520      6522      6520      6523      6520      6524      6524      6526
      6524      6527      6524      6528      6528      6530      6528      6531
      6528      6532      6532      6534      6532      6535      6532      6536
      6536      6538      6536      6539      6536      6540      6540      6542
      6540      6543      6540      6544      6544      6546      6544      6547
      6544      6548      6548      6550      6548      6551      6548      6552
      6553      6554      6558      6559      6562      6563      6566      6567
      6568      6569      6570      6571      6572      6573      6574      6575
      6576      6577      6580      6581      6583      6584      6585      6586
      6587      6588      6589      6590      6597      6598      6601      6602
      6603      6604      6605      6606      6607      6608      6615      6616
      6619      6620      6623      6624      6627      6628      6631      6632
      6635      6636      6639      6640      6642      6643      6645      6646
      6649      6650      6653      6654      6657      6658      6661      6662
      6665      6666      6669      6670      6673      6674      6678      6679
      6682      6683      6686      6687      6690      6691      6694      6695
      6698      6699      6702      6703      6706      6707      6710      6711
      6714      6715      6718      6719      6722      6723      6726      6727
      6730      6731      6553      6555      6553      6556      6553      6557
      6553      6558      6558      6560      6558      6561      6558      6562
      6562      6564      6562      6565      6562      6574      6572      6576
      6574      6566      6566      6572      6566      6568      6566      6570
      6576      6578      6576      6579      6576      6580      6580      6582
      6580      6597      6580      6583      6597      6599      6597      6600
      6597      6601      6583      6585      6585      6589      6585      6587
      6593      6587      6594      6587      6595      6583      6596      6583
      6589      6591      6589      6592      6589      6615      6615      6617
      6615      6618      6615      6619      6619      6621      6619      6622
      6619      6623      6623      6625      6623      6626      6623      6627
      6627      6629      6627      6630      6627      6631      6631      6633
      6631      6634      6631      6635      6635      6637      6635      6638
      6635      6639      6639      6641      6639      6642      6642      6644
      6642      6645      6645      6647      6645      6648      6645      6649
      6649      6651      6649      6652      6649      6653      6653      6655
      6653      6656      6653      6657      6657      6659      6657      6660
      6657      6661      6661      6663      6661      6664      6661      6665
      6665      6667      6665      6668      6665      6669      6669      6671
      6669      6672      6669      6673      6673      6675      6673      6676
      6673      6677      6601      6603      6603      6607      6603      6605
      6611      6605      6612      6605      6613      6601      6614      6601
      6607      6609      6607      6610      6607      6678      6678      6680
      6678      6681      6678      6682      6682      6684      6682      6685
      6682      6686      6686      6688      6686      6689      6686      6690
      6690      6692      6690      6693      6690      6694      6694      6696
      6694      6697      6694      6698      6698      6700      6698      6701
      6698      6702      6702      6704      6702      6705      6702      6706
      6706      6708      6706      6709      6706      6710      6710      6712
      6710      6713      6710      6714      6714      6716      6714      6717
      6714      6718      6718      6720      6718      6721      6718      6722
      6722      6724      6722      6725      6722      6726      6726      6728
      6726      6729      6726      6730      6730      6732      6730      6733
      6730      6734      6735      6736      6740      6741      6744      6745
      6748      6749      6750      6751      6752      6753      6754      6755
      6756      6757      6758      6759      6762      6763      6765      6766
      6767      6768      6769      6770      6771      6772      6779      6780
      6783      6784      6785      6786      6787      6788      6789      6790
      6797      6798      6801      6802      6805      6806      6809      6810
      6813      6814      6817      6818      6821      6822      6824      6825
      6827      6828      6831      6832      6835      6836      6839      6840
      6843      6844      6847      6848      6851      6852      6855      6856
      6860      6861      6864      6865      6868      6869      6872      6873
      6876      6877      6880      6881      6884      6885      6888      6889
      6892      6893      6896      6897      6900      6901      6904      6905
      6908      6909      6912      6913      6735      6737      6735      6738
      6735      6739      6735      6740      6740      6742      6740      6743
      6740      6744      6744      6746      6744      6747      6744      6756
      6754      6758      6756      6748      6748      6754      6748      6750
      6748      6752      6758      6760      6758      6761      6758      6762
      6762      6764      6762      6779      6762      6765      6779      6781
      6779      6782      6779      6783      6765      6767      6767      6771
      6767      6769      6775      6769      6776      6769      6777      6765
      6778      6765      6771      6773      6771      6774      6771      6797
      6797      6799      6797      6800      6797      6801      6801      6803
      6801      6804      6801      6805      6805      6807      6805      6808
      6805      6809      6809      6811      6809      6812      6809      6813
      6813      6815      6813      6816      6813      6817      6817      6819
      6817      6820      6817      6821      6821      6823      6821      6824
      6824      6826      6824      6827      6827      6829      6827      6830
      6827      6831      6831      6833      6831      6834      6831      6835
      6835      6837      6835      6838      6835      6839      6839      6841
      6839      6842      6839      6843      6843      6845      6843      6846
      6843      6847      6847      6849      6847      6850      6847      6851
      6851      6853      6851      6854      6851      6855      6855      6857
      6855      6858      6855      6859      6783      6785      6785      6789
      6785      6787      6793      6787      6794      6787      6795      6783
      6796      6783      6789      6791      6789      6792      6789      6860
      6860      6862      6860      6863      6860      6864      6864      6866
      6864      6867      6864      6868      6868      6870      6868      6871
      6868      6872      6872      6874      6872      6875      6872      6876
      6876      6878      6876      6879      6876      6880      6880      6882
      6880      6883      6880      6884      6884      6886      6884      6887
      6884      6888      6888      6890      6888      6891      6888      6892
      6892      6894      6892      6895      6892      6896      6896      6898
      6896      6899      6896      6900      6900      6902      6900      6903
      6900      6904      6904      6906      6904      6907      6904      6908
      6908      6910      6908      6911      6908      6912      6912      6914
      6912      6915      6912      6916      6917      6918      6922      6923
      6926      6927      6930      6931      6932      6933      6934      6935
      6936      6937      6938      6939      6940      6941      6944      6945
      6947      6948      6949      6950      6951      6952      6953      6954
      6961      6962      6965      6966      6967      6968      6969      6970
      6971      6972      6979      6980      6983      6984      6987      6988
      6991      6992      6995      6996      6999      7000      7003      7004
      7006      7007      7009      7010      7013      7014      7017      7018
      7021      7022      7025      7026      7029      7030      7033      7034
      7037      7038      7042      7043      7046      7047      7050      7051
      7054      7055      7058      7059      7062      7063      7066      7067
      7070      7071      7074      7075      7078      7079      7082      7083
      7086      7087      7090      7091      7094      7095      6917      6919
      6917      6920      6917      6921      6917      6922      6922      6924
      6922      6925      6922      6926      6926      6928      6926      6929
      6926      6938      6936      6940      6938      6930      6930      6936
      6930      6932      6930      6934      6940      6942      6940      6943
      6940      6944      6944      6946      6944      6961      6944      6947
      6961      6963      6961      6964      6961      6965      6947      6949
      6949      6953      6949      6951      6957      6951      6958      6951
      6959      6947      6960      6947      6953      6955      6953      6956
      6953      6979      6979      6981      6979      6982      6979      6983
      6983      6985      6983      6986      6983      6987      6987      6989
      6987      6990      6987      6991      6991      6993      6991      6994
      6991      6995      6995      6997      6995      6998      6995      6999
      6999      7001      6999      7002      6999      7003      7003      7005
      7003      7006      7006      7008      7006      7009      7009      7011
      7009      7012      7009      7013      7013      7015      7013      7016
      7013      7017      7017      7019      7017      7020      7017      7021
      7021      7023      7021      7024      7021      7025      7025      7027
      7025      7028      7025      7029      7029      7031      7029      7032
      7029      7033      7033      7035      7033      7036      7033      7037
      7037      7039      7037      7040      7037      7041      6965      6967
      6967      6971      6967      6969      6975      6969      6976      6969
      6977      6965      6978      6965      6971      6973      6971      6974
      6971      7042      7042      7044      7042      7045      7042      7046
      7046      7048      7046      7049      7046      7050      7050      7052
      7050      7053      7050      7054      7054      7056      7054      7057
      7054      7058      7058      7060      7058      7061      7058      7062
      7062      7064      7062      7065      7062      7066      7066      7068
      7066      7069      7066      7070      7070      7072      7070      7073
      7070      7074      7074      7076      7074      7077      7074      7078
      7078      7080      7078      7081      7078      7082      7082      7084
      7082      7085      7082      7086      7086      7088      7086      7089
      7086      7090      7090      7092      7090      7093      7090      7094
      7094      7096      7094      7097      7094      7098      7099      7100
      7104      7105      7108      7109      7112      7113      7114      7115
      7116      7117      7118      7119      7120      7121      7122      7123
      7126      7127      7129      7130      7131      7132      7133      7134
      7135      7136      7143      7144      7147      7148      7149      7150
      7151      7152      7153      7154      7161      7162      7165      7166
      7169      7170      7173      7174      7177      7178      7181      7182
      7185      7186      7188      7189      7191      7192      7195      7196
      7199      7200      7203      7204      7207      7208      7211      7212
      7215      7216      7219      7220      7224      7225      7228      7229
      7232      7233      7236      7237      7240      7241      7244      7245
      7248      7249      7252      7253      7256      7257      7260      7261
      7264      7265      7268      7269      7272      7273      7276      7277
      7099      7101      7099      7102      7099      7103      7099      7104
      7104      7106      7104      7107      7104      7108      7108      7110
      7108      7111      7108      7120      7118      7122      7120      7112
      7112      7118      7112      7114      7112      7116      7122      7124
      7122      7125      7122      7126      7126      7128      7126      7143
      7126      7129      7143      7145      7143      7146      7143      7147
      7129      7131      7131      7135      7131      7133      7139      7133
      7140      7133      7141      7129      7142      7129      7135      7137
      7135      7138      7135      7161      7161      7163      7161      7164
      7161      7165      7165      7167      7165      7168      7165      7169
      7169      7171      7169      7172      7169      7173      7173      7175
      7173      7176      7173      7177      7177      7179      7177      7180
      7177      7181      7181      7183      7181      7184      7181      7185
      7185      7187      7185      7188      7188      7190      7188      7191
      7191      7193      7191      7194      7191      7195      7195      7197
      7195      7198      7195      7199      7199      7201      7199      7202
      7199      7203      7203      7205      7203      7206      7203      7207
      7207      7209      7207      7210      7207      7211      7211      7213
      7211      7214      7211      7215      7215      7217      7215      7218
      7215      7219      7219      7221      7219      7222      7219      7223
      7147      7149      7149      7153      7149      7151      7157      7151
      7158      7151      7159      7147      7160      7147      7153      7155
      7153      7156      7153      7224      7224      7226      7224      7227
      7224      7228      7228      7230      7228      7231      7228      7232
      7232      7234      7232      7235      7232      7236      7236      7238
      7236      7239      7236      7240      7240      7242      7240      7243
      7240      7244      7244      7246      7244      7247      7244      7248
      7248      7250      7248      7251      7248      7252      7252      7254
      7252      7255      7252      7256      7256      7258      7256      7259
      7256      7260      7260      7262      7260      7263      7260      7264
      7264      7266      7264      7267      7264      7268      7268      7270
      7268      7271      7268      7272      7272      7274      7272      7275
      7272      7276      7276      7278      7276      7279      7276      7280
      7281      7282      7286      7287      7290      7291      7294      7295
      7296      7297      7298      7299      7300      7301      7302      7303
      7304      7305      7308      7309      7311      7312      7313      7314
      7315      7316      7317      7318      7325      7326      7329      7330
      7331      7332      7333      7334      7335      7336      7343      7344
      7347      7348      7351      7352      7355      7356      7359      7360
      7363      7364      7367      7368      7370      7371      7373      7374
      7377      7378      7381      7382      7385      7386      7389      7390
      7393      7394      7397      7398      7401      7402      7406      7407
      7410      7411      7414      7415      7418      7419      7422      7423
      7426      7427      7430      7431      7434      7435      7438      7439
      7442      7443      7446      7447      7450      7451      7454      7455
      7458      7459      7281      7283      7281      7284      7281      7285
      7281      7286      7286      7288      7286      7289      7286      7290
      7290      7292      7290      7293      7290      7302      7300      7304
      7302      7294      7294      7300      7294      7296      7294      7298
      7304      7306      7304      7307      7304      7308      7308      7310
      7308      7325      7308      7311      7325      7327      7325      7328
      7325      7329      7311      7313      7313      7317      7313      7315
      7321      7315      7322      7315      7323      7311      7324      7311
      7317      7319      7317      7320      7317      7343      7343      7345
      7343      7346      7343      7347      7347      7349      7347      7350
      7347      7351      7351      7353      7351      7354      7351      7355
      7355      7357      7355      7358      7355      7359      7359      7361
      7359      7362      7359      7363      7363      7365      7363      7366
      7363      7367      7367      7369      7367      7370      7370      7372
      7370      7373      7373      7375      7373      7376      7373      7377
      7377      7379      7377      7380      7377      7381      7381      7383
      7381      7384      7381      7385      7385      7387      7385      7388
      7385      7389      7389      7391      7389      7392      7389      7393
      7393      7395      7393      7396      7393      7397      7397      7399
      7397      7400      7397      7401      7401      7403      7401      7404
      7401      7405      7329      7331      7331      7335      7331      7333
      7339      7333      7340      7333      7341      7329      7342      7329
      7335      7337      7335      7338      7335      7406      7406      7408
      7406      7409      7406      7410      7410      7412      7410      7413
      7410      7414      7414      7416      7414      7417      7414      7418
      7418      7420      7418      7421      7418      7422      7422      7424
      7422      7425      7422      7426      7426      7428      7426      7429
      7426      7430      7430      7432      7430      7433      7430      7434
      7434      7436      7434      7437      7434      7438      7438      7440
      7438      7441      7438      7442      7442      7444      7442      7445
      7442      7446      7446      7448      7446      7449      7446      7450
      7450      7452      7450      7453      7450      7454      7454      7456
      7454      7457      7454      7458      7458      7460      7458      7461
      7458      7462      7463      7464      7468      7469      7472      7473
      7476      7477      7478      7479      7480      7481      7482      7483
      7484      7485      7486      7487      7490      7491      7493      7494
      7495      7496      7497      7498      7499      7500      7507      7508
      7511      7512      7513      7514      7515      7516      7517      7518
      7525      7526      7529      7530      7533      7534      7537      7538
      7541      7542      7545      7546      7549      7550      7552      7553
      7555      7556      7559      7560      7563      7564      7567      7568
      7571      7572      7575      7576      7579      7580      7583      7584
      7588      7589      7592      7593      7596      7597      7600      7601
      7604      7605      7608      7609      7612      7613      7616      7617
      7620      7621      7624      7625      7628      7629      7632      7633
      7636      7637      7640      7641      7463      7465      7463      7466
      7463      7467      7463      7468      7468      7470      7468      7471
      7468      7472      7472      7474      7472      7475      7472      7484
      7482      7486      7484      7476      7476      7482      7476      7478
      7476      7480      7486      7488      7486      7489      7486      7490
      7490      7492      7490      7507      7490      7493      7507      7509
      7507      7510      7507      7511      7493      7495      7495      7499
      7495      7497      7503      7497      7504      7497      7505      7493
      7506      7493      7499      7501      7499      7502      7499      7525
      7525      7527      7525      7528      7525      7529      7529      7531
      7529      7532      7529      7533      7533      7535      7533      7536
      7533      7537      7537      7539      7537      7540      7537      7541
      7541      7543      7541      7544      7541      7545      7545      7547
      7545      7548      7545      7549      7549      7551      7549      7552
      7552      7554      7552      7555      7555      7557      7555      7558
      7555      7559      7559      7561      7559      7562      7559      7563
      7563      7565      7563      7566      7563      7567      7567      7569
      7567      7570      7567      7571      7571      7573      7571      7574
      7571      7575      7575      7577      7575      7578      7575      7579
      7579      7581      7579      7582      7579      7583      7583      7585
      7583      7586      7583      7587      7511      7513      7513      7517
      7513      7515      7521      7515      7522      7515      7523      7511
      7524      7511      7517      7519      7517      7520      7517      7588
      7588      7590      7588      7591      7588      7592      7592      7594
      7592      7595      7592      7596      7596      7598      7596      7599
      7596      7600      7600      7602      7600      7603      7600      7604
      7604      7606      7604      7607      7604      7608      7608      7610
      7608      7611      7608      7612      7612      7614      7612      7615
      7612      7616      7616      7618      7616      7619      7616      7620
      7620      7622      7620      7623      7620      7624      7624      7626
      7624      7627      7624      7628      7628      7630      7628      7631
      7628      7632      7632      7634      7632      7635      7632      7636
      7636      7638      7636      7639      7636      7640      7640      7642
      7640      7643      7640      7644      7645      7646      7650      7651
      7654      7655      7658      7659      7660      7661      7662      7663
      7664      7665      7666      7667      7668      7669      7672      7673
      7675      7676      7677      7678      7679      7680      7681      7682
      7689      7690      7693      7694      7695      7696      7697      7698
      7699      7700      7707      7708      7711      7712      7715      7716
      7719      7720      7723      7724      7727      7728      7731      7732
      7734      7735      7737      7738      7741      7742      7745      7746
      7749      7750      7753      7754      7757      7758      7761      7762
      7765      7766      7770      7771      7774      7775      7778      7779
      7782      7783      7786      7787      7790      7791      7794      7795
      7798      7799      7802      7803      7806      7807      7810      7811
      7814      7815      7818      7819      7822      7823      7645      7647
      7645      7648      7645      7649      7645      7650      7650      7652
      7650      7653      7650      7654      7654      7656      7654      7657
      7654      7666      7664      7668      7666      7658      7658      7664
      7658      7660      7658      7662      7668      7670      7668      7671
      7668      7672      7672      7674      7672      7689      7672      7675
      7689      7691      7689      7692      7689      7693      7675      7677
      7677      7681      7677      7679      7685      7679      7686      7679
      7687      7675      7688      7675      7681      7683      7681      7684
      7681      7707      7707      7709      7707      7710      7707      7711
      7711      7713      7711      7714      7711      7715      7715      7717
      7715      7718      7715      7719      7719      7721      7719      7722
      7719      7723      7723      7725      7723      7726      7723      7727
      7727      7729      7727      7730      7727      7731      7731      7733
      7731      7734      7734      7736      7734      7737      7737      7739
      7737      7740      7737      7741      7741      7743      7741      7744
      7741      7745      7745      7747      7745      7748      7745      7749
      7749      7751      7749      7752      7749      7753      7753      7755
      7753      7756      7753      7757      7757      7759      7757      7760
      7757      7761      7761      7763      7761      7764      7761      7765
      7765      7767      7765      7768      7765      7769      7693      7695
      7695      7699      7695      7697      7703      7697      7704      7697
      7705      7693      7706      7693      7699      7701      7699      7702
      7699      7770      7770      7772      7770      7773      7770      7774
      7774      7776      7774      7777      7774      7778      7778      7780
      7778      7781      7778      7782      7782      7784      7782      7785
      7782      7786      7786      7788      7786      7789      7786      7790
      7790      7792      7790      7793      7790      7794      7794      7796
      7794      7797      7794      7798      7798      7800      7798      7801
      7798      7802      7802      7804      7802      7805      7802      7806
      7806      7808      7806      7809      7806      7810      7810      7812
      7810      7813      7810      7814      7814      7816      7814      7817
      7814      7818      7818      7820      7818      7821      7818      7822
      7822      7824      7822      7825      7822      7826      7827      7828
      7832      7833      7836      7837      7840      7841      7842      7843
      7844      7845      7846      7847      7848      7849      7850      7851
      7854      7855      7857      7858      7859      7860      7861      7862
      7863      7864      7871      7872      7875      7876      7877      7878
      7879      7880      7881      7882      7889      7890      7893      7894
      7897      7898      7901      7902      7905      7906      7909      7910
      7913      7914      7916      7917      7919      7920      7923      7924
      7927      7928      7931      7932      7935      7936      7939      7940
      7943      7944      7947      7948      7952      7953      7956      7957
      7960      7961      7964      7965      7968      7969      7972      7973
      7976      7977      7980      7981      7984      7985      7988      7989
      7992      7993      7996      7997      8000      8001      8004      8005
      7827      7829      7827      7830      7827      7831      7827      7832
      7832      7834      7832      7835      7832      7836      7836      7838
      7836      7839      7836      7848      7846      7850      7848      7840
      7840      7846      7840      7842      7840      7844      7850      7852
      7850      7853      7850      7854      7854      7856      7854      7871
      7854      7857      7871      7873      7871      7874      7871      7875
      7857      7859      7859      7863      7859      7861      7867      7861
      7868      7861      7869      7857      7870      7857      7863      7865
      7863      7866      7863      7889      7889      7891      7889      7892
      7889      7893      7893      7895      7893      7896      7893      7897
      7897      7899      7897      7900      7897      7901      7901      7903
      7901      7904      7901      7905      7905      7907      7905      7908
      7905      7909      7909      7911      7909      7912      7909      7913
      7913      7915      7913      7916      7916      7918      7916      7919
      7919      7921      7919      7922      7919      7923      7923      7925
      7923      7926      7923      7927      7927      7929      7927      7930
      7927      7931      7931      7933      7931      7934      7931      7935
      7935      7937      7935      7938      7935      7939      7939      7941
      7939      7942      7939      7943      7943      7945      7943      7946
      7943      7947      7947      7949      7947      7950      7947      7951
      7875      7877      7877      7881      7877      7879      7885      7879
      7886      7879      7887      7875      7888      7875      7881      7883
      7881      7884      7881      7952      7952      7954      7952      7955
      7952      7956      7956      7958      7956      7959      7956      7960
      7960      7962      7960      7963      7960      7964      7964      7966
      7964      7967      7964      7968      7968      7970      7968      7971
      7968      7972      7972      7974      7972      7975      7972      7976
      7976      7978      7976      7979      7976      7980      7980      7982
      7980      7983      7980      7984      7984      7986      7984      7987
      7984      7988      7988      7990      7988      7991      7988      7992
      7992      7994      7992      7995      7992      7996      7996      7998
      7996      7999      7996      8000      8000      8002      8000      8003
      8000      8004      8004      8006      8004      8007      8004      8008
      8009      8010      8014      8015      8018      8019      8022      8023
      8024      8025      8026      8027      8028      8029      8030      8031
      8032      8033      8036      8037      8039      8040      8041      8042
      8043      8044      8045      8046      8053      8054      8057      8058
      8059      8060      8061      8062      8063      8064      8071      8072
      8075      8076      8079      8080      8083      8084      8087      8088
      8091      8092      8095      8096      8098      8099      8101      8102
      8105      8106      8109      8110      8113      8114      8117      8118
      8121      8122      8125      8126      8129      8130      8134      8135
      8138      8139      8142      8143      8146      8147      8150      8151
      8154      8155      8158      8159      8162      8163      8166      8167
      8170      8171      8174      8175      8178      8179      8182      8183
      8186      8187      8009      8011      8009      8012      8009      8013
      8009      8014      8014      8016      8014      8017      8014      8018
      8018      8020      8018      8021      8018      8030      8028      8032
      8030      8022      8022      8028      8022      8024      8022      8026
      8032      8034      8032      8035      8032      8036      8036      8038
      8036      8053      8036      8039      8053      8055      8053      8056
      8053      8057      8039      8041      8041      8045      8041      8043
      8049      8043      8050      8043      8051      8039      8052      8039
      8045      8047      8045      8048      8045      8071      8071      8073
      8071      8074      8071      8075      8075      8077      8075      8078
      8075      8079      8079      8081      8079      8082      8079      8083
      8083      8085      8083      8086      8083      8087      8087      8089
      8087      8090      8087      8091      8091      8093      8091      8094
      8091      8095      8095      8097      8095      8098      8098      8100
      8098      8101      8101      8103      8101      8104      8101      8105
      8105      8107      8105      8108      8105      8109      8109      8111
      8109      8112      8109      8113      8113      8115      8113      8116
      8113      8117      8117      8119      8117      8120      8117      8121
      8121      8123      8121      8124      8121      8125      8125      8127
      8125      8128      8125      8129      8129      8131      8129      8132
      8129      8133      8057      8059      8059      8063      8059      8061
      8067      8061      8068      8061      8069      8057      8070      8057
      8063      8065      8063      8066      8063      8134      8134      8136
      8134      8137      8134      8138      8138      8140      8138      8141
      8138      8142      8142      8144      8142      8145      8142      8146
      8146      8148      8146      8149      8146      8150      8150      8152
      8150      8153      8150      8154      8154      8156      8154      8157
      8154      8158      8158      8160      8158      8161      8158      8162
      8162      8164      8162      8165      8162      8166      8166      8168
      8166      8169      8166      8170      8170      8172      8170      8173
      8170      8174      8174      8176      8174      8177      8174      8178
      8178      8180      8178      8181      8178      8182      8182      8184
      8182      8185      8182      8186      8186      8188      8186      8189
      8186      8190      8191      8192      8196      8197      8200      8201
      8204      8205      8206      8207      8208      8209      8210      8211
      8212      8213      8214      8215      8218      8219      8221      8222
      8223      8224      8225      8226      8227      8228      8235      8236
      8239      8240      8241      8242      8243      8244      8245      8246
      8253      8254      8257      8258      8261      8262      8265      8266
      8269      8270      8273      8274      8277      8278      8280      8281
      8283      8284      8287      8288      8291      8292      8295      8296
      8299      8300      8303      8304      8307      8308      8311      8312
      8316      8317      8320      8321      8324      8325      8328      8329
      8332      8333      8336      8337      8340      8341      8344      8345
      8348      8349      8352      8353      8356      8357      8360      8361
      8364      8365      8368      8369      8191      8193      8191      8194
      8191      8195      8191      8196      8196      8198      8196      8199
      8196      8200      8200      8202      8200      8203      8200      8212
      8210      8214      8212      8204      8204      8210      8204      8206
      8204      8208      8214      8216      8214      8217      8214      8218
      8218      8220      8218      8235      8218      8221      8235      8237
      8235      8238      8235      8239      8221      8223      8223      8227
      8223      8225      8231      8225      8232      8225      8233      8221
      8234      8221      8227      8229      8227      8230      8227      8253
      8253      8255      8253      8256      8253      8257      8257      8259
      8257      8260      8257      8261      8261      8263      8261      8264
      8261      8265      8265      8267      8265      8268      8265      8269
      8269      8271      8269      8272      8269      8273      8273      8275
      8273      8276      8273      8277      8277      8279      8277      8280
      8280      8282      8280      8283      8283      8285      8283      8286
      8283      8287      8287      8289      8287      8290      8287      8291
      8291      8293      8291      8294      8291      8295      8295      8297
      8295      8298      8295      8299      8299      8301      8299      8302
      8299      8303      8303      8305      8303      8306      8303      8307
      8307      8309      8307      8310      8307      8311      8311      8313
      8311      8314      8311      8315      8239      8241      8241      8245
      8241      8243      8249      8243      8250      8243      8251      8239
      8252      8239      8245      8247      8245      8248      8245      8316
      8316      8318      8316      8319      8316      8320      8320      8322
      8320      8323      8320      8324      8324      8326      8324      8327
      8324      8328      8328      8330      8328      8331      8328      8332
      8332      8334      8332      8335      8332      8336      8336      8338
      8336      8339      8336      8340      8340      8342      8340      8343
      8340      8344      8344      8346      8344      8347      8344      8348
      8348      8350      8348      8351      8348      8352      8352      8354
      8352      8355      8352      8356      8356      8358      8356      8359
      8356      8360      8360      8362      8360      8363      8360      8364
      8364      8366      8364      8367      8364      8368      8368      8370
      8368      8371      8368      8372      8373      8374      8378      8379
      8382      8383      8386      8387      8388      8389      8390      8391
      8392      8393      8394      8395      8396      8397      8400      8401
      8403      8404      8405      8406      8407      8408      8409      8410
      8417      8418      8421      8422      8423      8424      8425      8426
      8427      8428      8435      8436      8439      8440      8443      8444
      8447      8448      8451      8452      8455      8456      8459      8460
      8462      8463      8465      8466      8469      8470      8473      8474
      8477      8478      8481      8482      8485      8486      8489      8490
      8493      8494      8498      8499      8502      8503      8506      8507
      8510      8511      8514      8515      8518      8519      8522      8523
      8526      8527      8530      8531      8534      8535      8538      8539
      8542      8543      8546      8547      8550      8551      8373      8375
      8373      8376      8373      8377      8373      8378      8378      8380
      8378      8381      8378      8382      8382      8384      8382      8385
      8382      8394      8392      8396      8394      8386      8386      8392
      8386      8388      8386      8390      8396      8398      8396      8399
      8396      8400      8400      8402      8400      8417      8400      8403
      8417      8419      8417      8420      8417      8421      8403      8405
      8405      8409      8405      8407      8413      8407      8414      8407
      8415      8403      8416      8403      8409      8411      8409      8412
      8409      8435      8435      8437      8435      8438      8435      8439
      8439      8441      8439      8442      8439      8443      8443      8445
      8443      8446      8443      8447      8447      8449      8447      8450
      8447      8451      8451      8453      8451      8454      8451      8455
      8455      8457      8455      8458      8455      8459      8459      8461
      8459      8462      8462      8464      8462      8465      8465      8467
      8465      8468      8465      8469      8469      8471      8469      8472
      8469      8473      8473      8475      8473      8476      8473      8477
      8477      8479      8477      8480      8477      8481      8481      8483
      8481      8484      8481      8485      8485      8487      8485      8488
      8485      8489      8489      8491      8489      8492      8489      8493
      8493      8495      8493      8496      8493      8497      8421      8423
      8423      8427      8423      8425      8431      8425      8432      8425
      8433      8421      8434      8421      8427      8429      8427      8430
      8427      8498      8498      8500      8498      8501      8498      8502
      8502      8504      8502      8505      8502      8506      8506      8508
      8506      8509      8506      8510      8510      8512      8510      8513
      8510      8514      8514      8516      8514      8517      8514      8518
      8518      8520      8518      8521      8518      8522      8522      8524
      8522      8525      8522      8526      8526      8528      8526      8529
      8526      8530      8530      8532      8530      8533      8530      8534
      8534      8536      8534      8537      8534      8538      8538      8540
      8538      8541      8538      8542      8542      8544      8542      8545
      8542      8546      8546      8548      8546      8549      8546      8550
      8550      8552      8550      8553      8550      8554      8555      8556
      8560      8561      8564      8565      8568      8569      8570      8571
      8572      8573      8574      8575      8576      8577      8578      8579
      8582      8583      8585      8586      8587      8588      8589      8590
      8591      8592      8599      8600      8603      8604      8605      8606
      8607      8608      8609      8610      8617      8618      8621      8622
      8625      8626      8629      8630      8633      8634      8637      8638
      8641      8642      8644      8645      8647      8648      8651      8652
      8655      8656      8659      8660      8663      8664      8667      8668
      8671      8672      8675      8676      8680      8681      8684      8685
      8688      8689      8692      8693      8696      8697      8700      8701
      8704      8705      8708      8709      8712      8713      8716      8717
      8720      8721      8724      8725      8728      8729      8732      8733
      8555      8557      8555      8558      8555      8559      8555      8560
      8560      8562      8560      8563      8560      8564      8564      8566
      8564      8567      8564      8576      8574      8578      8576      8568
      8568      8574      8568      8570      8568      8572      8578      8580
      8578      8581      8578      8582      8582      8584      8582      8599
      8582      8585      8599      8601      8599      8602      8599      8603
      8585      8587      8587      8591      8587      8589      8595      8589
      8596      8589      8597      8585      8598      8585      8591      8593
      8591      8594      8591      8617      8617      8619      8617      8620
      8617      8621      8621      8623      8621      8624      8621      8625
      8625      8627      8625      8628      8625      8629      8629      8631
      8629      8632      8629      8633      8633      8635      8633      8636
      8633      8637      8637      8639      8637      8640      8637      8641
      8641      8643      8641      8644      8644      8646      8644      8647
      8647      8649      8647      8650      8647      8651      8651      8653
      8651      8654      8651      8655      8655      8657      8655      8658
      8655      8659      8659      8661      8659      8662      8659      8663
      8663      8665      8663      8666      8663      8667      8667      8669
      8667      8670      8667      8671      8671      8673      8671      8674
      8671      8675      8675      8677      8675      8678      8675      8679
      8603      8605      8605      8609      8605      8607      8613      8607
      8614      8607      8615      8603      8616      8603      8609      8611
      8609      8612      8609      8680      8680      8682      8680      8683
      8680      8684      8684      8686      8684      8687      8684      8688
      8688      8690      8688      8691      8688      8692      8692      8694
      8692      8695      8692      8696      8696      8698      8696      8699
      8696      8700      8700      8702      8700      8703      8700      8704
      8704      8706      8704      8707      8704      8708      8708      8710
      8708      8711      8708      8712      8712      8714      8712      8715
      8712      8716      8716      8718      8716      8719      8716      8720
      8720      8722      8720      8723      8720      8724      8724      8726
      8724      8727      8724      8728      8728      8730      8728      8731
      8728      8732      8732      8734      8732      8735      8732      8736
      8737      8738      8742      8743      8746      8747      8750      8751
      8752      8753      8754      8755      8756      8757      8758      8759
      8760      8761      8764      8765      8767      8768      8769      8770
      8771      8772      8773      8774      8781      8782      8785      8786
      8787      8788      8789      8790      8791      8792      8799      8800
      8803      8804      8807      8808      8811      8812      8815      8816
      8819      8820      8823      8824      8826      8827      8829      8830
      8833      8834      8837      8838      8841      8842      8845      8846
      8849      8850      8853      8854      8857      8858      8862      8863
      8866      8867      8870      8871      8874      8875      8878      8879
      8882      8883      8886      8887      8890      8891      8894      8895
      8898      8899      8902      8903      8906      8907      8910      8911
      8914      8915      8737      8739      8737      8740      8737      8741
      8737      8742      8742      8744      8742      8745      8742      8746
      8746      8748      8746      8749      8746      8758      8756      8760
      8758      8750      8750      8756      8750      8752      8750      8754
      8760      8762      8760      8763      8760      8764      8764      8766
      8764      8781      8764      8767      8781      8783      8781      8784
      8781      8785      8767      8769      8769      8773      8769      8771
      8777      8771      8778      8771      8779      8767      8780      8767
      8773      8775      8773      8776      8773      8799      8799      8801
      8799      8802      8799      8803      8803      8805      8803      8806
      8803      8807      8807      8809      8807      8810      8807      8811
      8811      8813      8811      8814      8811      8815      8815      8817
      8815      8818      8815      8819      8819      8821      8819      8822
      8819      8823      8823      8825      8823      8826      8826      8828
      8826      8829      8829      8831      8829      8832      8829      8833
      8833      8835      8833      8836      8833      8837      8837      8839
      8837      8840      8837      8841      8841      8843      8841      8844
      8841      8845      8845      8847      8845      8848      8845      8849
      8849      8851      8849      8852      8849      8853      8853      8855
      8853      8856      8853      8857      8857      8859      8857      8860
      8857      8861      8785      8787      8787      8791      8787      8789
      8795      8789      8796      8789      8797      8785      8798      8785
      8791      8793      8791      8794      8791      8862      8862      8864
      8862      8865      8862      8866      8866      8868      8866      8869
      8866      8870      8870      8872      8870      8873      8870      8874
      8874      8876      8874      8877      8874      8878      8878      8880
      8878      8881      8878      8882      8882      8884      8882      8885
      8882      8886      8886      8888      8886      8889      8886      8890
      8890      8892      8890      8893      8890      8894      8894      8896
      8894      8897      8894      8898      8898      8900      8898      8901
      8898      8902      8902      8904      8902      8905      8902      8906
      8906      8908      8906      8909      8906      8910      8910      8912
      8910      8913      8910      8914      8914      8916      8914      8917
      8914      8918      8919      8920      8924      8925      8928      8929
      8932      8933      8934      8935      8936      8937      8938      8939
      8940      8941      8942      8943      8946      8947      8949      8950
      8951      8952      8953      8954      8955      8956      8963      8964
      8967      8968      8969      8970      8971      8972      8973      8974
      8981      8982      8985      8986      8989      8990      8993      8994
      8997      8998      9001      9002      9005      9006      9008      9009
      9011      9012      9015      9016      9019      9020      9023      9024
      9027      9028      9031      9032      9035      9036      9039      9040
      9044      9045      9048      9049      9052      9053      9056      9057
      9060      9061      9064      9065      9068      9069      9072      9073
      9076      9077      9080      9081      9084      9085      9088      9089
      9092      9093      9096      9097      8919      8921      8919      8922
      8919      8923      8919      8924      8924      8926      8924      8927
      8924      8928      8928      8930      8928      8931      8928      8940
      8938      8942      8940      8932      8932      8938      8932      8934
      8932      8936      8942      8944      8942      8945      8942      8946
      8946      8948      8946      8963      8946      8949      8963      8965
      8963      8966      8963      8967      8949      8951      8951      8955
      8951      8953      8959      8953      8960      8953      8961      8949
      8962      8949      8955      8957      8955      8958      8955      8981
      8981      8983      8981      8984      8981      8985      8985      8987
      8985      8988      8985      8989      8989      8991      8989      8992
      8989      8993      8993      8995      8993      8996      8993      8997
      8997      8999      8997      9000      8997      9001      9001      9003
      9001      9004      9001      9005      9005      9007      9005      9008
      9008      9010      9008      9011      9011      9013      9011      9014
      9011      9015      9015      9017      9015      9018      9015      9019
      9019      9021      9019      9022      9019      9023      9023      9025
      9023      9026      9023      9027      9027      9029      9027      9030
      9027      9031      9031      9033      9031      9034      9031      9035
      9035      9037      9035      9038      9035      9039      9039      9041
      9039      9042      9039      9043      8967      8969      8969      8973
      8969      8971      8977      8971      8978      8971      8979      8967
      8980      8967      8973      8975      8973      8976      8973      9044
      9044      9046      9044      9047      9044      9048      9048      9050
      9048      9051      9048      9052      9052      9054      9052      9055
      9052      9056      9056      9058      9056      9059      9056      9060
      9060      9062      9060      9063      9060      9064      9064      9066
      9064      9067      9064      9068      9068      9070      9068      9071
      9068      9072      9072      9074      9072      9075      9072      9076
      9076      9078      9076      9079      9076      9080      9080      9082
      9080      9083      9080      9084      9084      9086      9084      9087
      9084      9088      9088      9090      9088      9091      9088      9092
      9092      9094      9092      9095      9092      9096      9096      9098
      9096      9099      9096      9100      9101      9102      9106      9107
      9110      9111      9114      9115      9116      9117      9118      9119
      9120      9121      9122      9123      9124      9125      9128      9129
      9131      9132      9133      9134      9135      9136      9137      9138
      9145      9146      9149      9150      9151      9152      9153      9154
      9155      9156      9163      9164      9167      9168      9171      9172
      9175      9176      9179      9180      9183      9184      9187      9188
      9190      9191      9193      9194      9197      9198      9201      9202
      9205      9206      9209      9210      9213      9214      9217      9218
      9221      9222      9226      9227      9230      9231      9234      9235
      9238      9239      9242      9243      9246      9247      9250      9251
      9254      9255      9258      9259      9262      9263      9266      9267
      9270      9271      9274      9275      9278      9279      9101      9103
      9101      9104      9101      9105      9101      9106      9106      9108
      9106      9109      9106      9110      9110      9112      9110      9113
      9110      9122      9120      9124      9122      9114      9114      9120
      9114      9116      9114      9118      9124      9126      9124      9127
      9124      9128      9128      9130      9128      9145      9128      9131
      9145      9147      9145      9148      9145      9149      9131      9133
      9133      9137      9133      9135      9141      9135      9142      9135
      9143      9131      9144      9131      9137      9139      9137      9140
      9137      9163      9163      9165      9163      9166      9163      9167
      9167      9169      9167      9170      9167      9171      9171      9173
      9171      9174      9171      9175      9175      9177      9175      9178
      9175      9179      9179      9181      9179      9182      9179      9183
      9183      9185      9183      9186      9183      9187      9187      9189
      9187      9190      9190      9192      9190      9193      9193      9195
      9193      9196      9193      9197      9197      9199      9197      9200
      9197      9201      9201      9203      9201      9204      9201      9205
      9205      9207      9205      9208      9205      9209      9209      9211
      9209      9212      9209      9213      9213      9215      9213      9216
      9213      9217      9217      9219      9217      9220      9217      9221
      9221      9223      9221      9224      9221      9225      9149      9151
      9151      9155      9151      9153      9159      9153      9160      9153
      9161      9149      9162      9149      9155      9157      9155      9158
      9155      9226      9226      9228      9226      9229      9226      9230
      9230      9232      9230      9233      9230      9234      9234      9236
      9234      9237      9234      9238      9238      9240      9238      9241
      9238      9242      9242      9244      9242      9245      9242      9246
      9246      9248      9246      9249      9246      9250      9250      9252
      9250      9253      9250      9254      9254      9256      9254      9257
      9254      9258      9258      9260      9258      9261      9258      9262
      9262      9264      9262      9265      9262      9266      9266      9268
      9266      9269      9266      9270      9270      9272      9270      9273
      9270      9274      9274      9276      9274      9277      9274      9278
      9278      9280      9278      9281      9278      9282      9283      9284
      9288      9289      9292      9293      9296      9297      9298      9299
      9300      9301      9302      9303      9304      9305      9306      9307
      9310      9311      9313      9314      9315      9316      9317      9318
      9319      9320      9327      9328      9331      9332      9333      9334
      9335      9336      9337      9338      9345      9346      9349      9350
      9353      9354      9357      9358      9361      9362      9365      9366
      9369      9370      9372      9373      9375      9376      9379      9380
      9383      9384      9387      9388      9391      9392      9395      9396
      9399      9400      9403      9404      9408      9409      9412      9413
      9416      9417      9420      9421      9424      9425      9428      9429
      9432      9433      9436      9437      9440      9441      9444      9445
      9448      9449      9452      9453      9456      9457      9460      9461
      9283      9285      9283      9286      9283      9287      9283      9288
      9288      9290      9288      9291      9288      9292      9292      9294
      9292      9295      9292      9304      9302      9306      9304      9296
      9296      9302      9296      9298      9296      9300      9306      9308
      9306      9309      9306      9310      9310      9312      9310      9327
      9310      9313      9327      9329      9327      9330      9327      9331
      9313      9315      9315      9319      9315      9317      9323      9317
      9324      9317      9325      9313      9326      9313      9319      9321
      9319      9322      9319      9345      9345      9347      9345      9348
      9345      9349      9349      9351      9349      9352      9349      9353
      9353      9355      9353      9356      9353      9357      9357      9359
      9357      9360      9357      9361      9361      9363      9361      9364
      9361      9365      9365      9367      9365      9368      9365      9369
      9369      9371      9369      9372      9372      9374      9372      9375
      9375      9377      9375      9378      9375      9379      9379      9381
      9379      9382      9379      9383      9383      9385      9383      9386
      9383      9387      9387      9389      9387      9390      9387      9391
      9391      9393      9391      9394      9391      9395      9395      9397
      9395      9398      9395      9399      9399      9401      9399      9402
      9399      9403      9403      9405      9403      9406      9403      9407
      9331      9333      9333      9337      9333      9335      9341      9335
      9342      9335      9343      9331      9344      9331      9337      9339
      9337      9340      9337      9408      9408      9410      9408      9411
      9408      9412      9412      9414      9412      9415      9412      9416
      9416      9418      9416      9419      9416      9420      9420      9422
      9420      9423      9420      9424      9424      9426      9424      9427
      9424      9428      9428      9430      9428      9431      9428      9432
      9432      9434      9432      9435      9432      9436      9436      9438
      9436      9439      9436      9440      9440      9442      9440      9443
      9440      9444      9444      9446      9444      9447      9444      9448
      9448      9450      9448      9451      9448      9452      9452      9454
      9452      9455      9452      9456      9456      9458      9456      9459
      9456      9460      9460      9462      9460      9463      9460      9464
      9465      9466      9470      9471      9474      9475      9478      9479
      9480      9481      9482      9483      9484      9485      9486      9487
      9488      9489      9492      9493      9495      9496      9497      9498
      9499      9500      9501      9502      9509      9510      9513      9514
      9515      9516      9517      9518      9519      9520      9527      9528
      9531      9532      9535      9536      9539      9540      9543      9544
      9547      9548      9551      9552      9554      9555      9557      9558
      9561      9562      9565      9566      9569      9570      9573      9574
      9577      9578      9581      9582      9585      9586      9590      9591
      9594      9595      9598      9599      9602      9603      9606      9607
      9610      9611      9614      9615      9618      9619      9622      9623
      9626      9627      9630      9631      9634      9635      9638      9639
      9642      9643      9465      9467      9465      9468      9465      9469
      9465      9470      9470      9472      9470      9473      9470      9474
      9474      9476      9474      9477      9474      9486      9484      9488
      9486      9478      9478      9484      9478      9480      9478      9482
      9488      9490      9488      9491      9488      9492      9492      9494
      9492      9509      9492      9495      9509      9511      9509      9512
      9509      9513      9495      9497      9497      9501      9497      9499
      9505      9499      9506      9499      9507      9495      9508      9495
      9501      9503      9501      9504      9501      9527      9527      9529
      9527      9530      9527      9531      9531      9533      9531      9534
      9531      9535      9535      9537      9535      9538      9535      9539
      9539      9541      9539      9542      9539      9543      9543      9545
      9543      9546      9543      9547      9547      9549      9547      9550
      9547      9551      9551      9553      9551      9554      9554      9556
      9554      9557      9557      9559      9557      9560      9557      9561
      9561      9563      9561      9564      9561      9565      9565      9567
      9565      9568      9565      9569      9569      9571      9569      9572
      9569      9573      9573      9575      9573      9576      9573      9577
      9577      9579      9577      9580      9577      9581      9581      9583
      9581      9584      9581      9585      9585      9587      9585      9588
      9585      9589      9513      9515      9515      9519      9515      9517
      9523      9517      9524      9517      9525      9513      9526      9513
      9519      9521      9519      9522      9519      9590      9590      9592
      9590      9593      9590      9594      9594      9596      9594      9597
      9594      9598      9598      9600      9598      9601      9598      9602
      9602      9604      9602      9605      9602      9606      9606      9608
      9606      9609      9606      9610      9610      9612      9610      9613
      9610      9614      9614      9616      9614      9617      9614      9618
      9618      9620      9618      9621      9618      9622      9622      9624
      9622      9625      9622      9626      9626      9628      9626      9629
      9626      9630      9630      9632      9630      9633      9630      9634
      9634      9636      9634      9637      9634      9638      9638      9640
      9638      9641      9638      9642      9642      9644      9642      9645
      9642      9646      9647      9648      9652      9653      9656      9657
      9660      9661      9662      9663      9664      9665      9666      9667
      9668      9669      9670      9671      9674      9675      9677      9678
      9679      9680      9681      9682      9683      9684      9691      9692
      9695      9696      9697      9698      9699      9700      9701      9702
      9709      9710      9713      9714      9717      9718      9721      9722
      9725      9726      9729      9730      9733      9734      9736      9737
      9739      9740      9743      9744      9747      9748      9751      9752
      9755      9756      9759      9760      9763      9764      9767      9768
      9772      9773      9776      9777      9780      9781      9784      9785
      9788      9789      9792      9793      9796      9797      9800      9801
      9804      9805      9808      9809      9812      9813      9816      9817
      9820      9821      9824      9825      9647      9649      9647      9650
      9647      9651      9647      9652      9652      9654      9652      9655
      9652      9656      9656      9658      9656      9659      9656      9668
      9666      9670      9668      9660      9660      9666      9660      9662
      9660      9664      9670      9672      9670      9673      9670      9674
      9674      9676      9674      9691      9674      9677      9691      9693
      9691      9694      9691      9695      9677      9679      9679      9683
      9679      9681      9687      9681      9688      9681      9689      9677
      9690      9677      9683      9685      9683      9686      9683      9709
      9709      9711      9709      9712      9709      9713      9713      9715
      9713      9716      9713      9717      9717      9719      9717      9720
      9717      9721      9721      9723      9721      9724      9721      9725
      9725      9727      9725      9728      9725      9729      9729      9731
      9729      9732      9729      9733      9733      9735      9733      9736
      9736      9738      9736      9739      9739      9741      9739      9742
      9739      9743      9743      9745      9743      9746      9743      9747
      9747      9749      9747      9750      9747      9751      9751      9753
      9751      9754      9751      9755      9755      9757      9755      9758
      9755      9759      9759      9761      9759      9762      9759      9763
      9763      9765      9763      9766      9763      9767      9767      9769
      9767      9770      9767      9771      9695      9697      9697      9701
      9697      9699      9705      9699      9706      9699      9707      9695
      9708      9695      9701      9703      9701      9704      9701      9772
      9772      9774      9772      9775      9772      9776      9776      9778
      9776      9779      9776      9780      9780      9782      9780      9783
      9780      9784      9784      9786      9784      9787      9784      9788
      9788      9790      9788      9791      9788      9792      9792      9794
      9792      9795      9792      9796      9796      9798      9796      9799
      9796      9800      9800      9802      9800      9803      9800      9804
      9804      9806      9804      9807      9804      9808      9808      9810
      9808      9811      9808      9812      9812      9814      9812      9815
      9812      9816      9816      9818      9816      9819      9816      9820
      9820      9822      9820      9823      9820      9824      9824      9826
      9824      9827      9824      9828      9829      9830      9834      9835
      9838      9839      9842      9843      9844      9845      9846      9847
      9848      9849      9850      9851      9852      9853      9856      9857
      9859      9860      9861      9862      9863      9864      9865      9866
      9873      9874      9877      9878      9879      9880      9881      9882
      9883      9884      9891      9892      9895      9896      9899      9900
      9903      9904      9907      9908      9911      9912      9915      9916
      9918      9919      9921      9922      9925      9926      9929      9930
      9933      9934      9937      9938      9941      9942      9945      9946
      9949      9950      9954      9955      9958      9959      9962      9963
      9966      9967      9970      9971      9974      9975      9978      9979
      9982      9983      9986      9987      9990      9991      9994      9995
      9998      9999     10002     10003     10006     10007      9829      9831
      9829      9832      9829      9833      9829      9834      9834      9836
      9834      9837      9834      9838      9838      9840      9838      9841
      9838      9850      9848      9852      9850      9842      9842      9848
      9842      9844      9842      9846      9852      9854      9852      9855
      9852      9856      9856      9858      9856      9873      9856      9859
      9873      9875      9873      9876      9873      9877      9859      9861
      9861      9865      9861      9863      9869      9863      9870      9863
      9871      9859      9872      9859      9865      9867      9865      9868
      9865      9891      9891      9893      9891      9894      9891      9895
      9895      9897      9895      9898      9895      9899      9899      9901
      9899      9902      9899      9903      9903      9905      9903      9906
      9903      9907      9907      9909      9907      9910      9907      9911
      9911      9913      9911      9914      9911      9915      9915      9917
      9915      9918      9918      9920      9918      9921      9921      9923
      9921      9924      9921      9925      9925      9927      9925      9928
      9925      9929      9929      9931      9929      9932      9929      9933
      9933      9935      9933      9936      9933      9937      9937      9939
      9937      9940      9937      9941      9941      9943      9941      9944
      9941      9945      9945      9947      9945      9948      9945      9949
      9949      9951      9949      9952      9949      9953      9877      9879
      9879      9883      9879      9881      9887      9881      9888      9881
      9889      9877      9890      9877      9883      9885      9883      9886
      9883      9954      9954      9956      9954      9957      9954      9958
      9958      9960      9958      9961      9958      9962      9962      9964
      9962      9965      9962      9966      9966      9968      9966      9969
      9966      9970      9970      9972      9970      9973      9970      9974
      9974      9976      9974      9977      9974      9978      9978      9980
      9978      9981      9978      9982      9982      9984      9982      9985
      9982      9986      9986      9988      9986      9989      9986      9990
      9990      9992      9990      9993      9990      9994      9994      9996
      9994      9997      9994      9998      9998     10000      9998     10001
      9998     10002     10002     10004     10002     10005     10002     10006
     10006     10008     10006     10009     10006     10010     10011     10012
     10016     10017     10020     10021     10024     10025     10026     10027
     10028     10029     10030     10031     10032     10033     10034     10035
     10038     10039     10041     10042     10043     10044     10045     10046
     10047     10048     10055     10056     10059     10060     10061     10062
     10063     10064     10065     10066     10073     10074     10077     10078
     10081     10082     10085     10086     10089     10090     10093     10094
     10097     10098     10100     10101     10103     10104     10107     10108
     10111     10112     10115     10116     10119     10120     10123     10124
     10127     10128     10131     10132     10136     10137     10140     10141
     10144     10145     10148     10149     10152     10153     10156     10157
     10160     10161     10164     10165     10168     10169     10172     10173
     10176     10177     10180     10181     10184     10185     10188     10189
     10011     10013     10011     10014     10011     10015     10011     10016
     10016     10018     10016     10019     10016     10020     10020     10022
     10020     10023     10020     10032     10030     10034     10032     10024
     10024     10030     10024     10026     10024     10028     10034     10036
     10034     10037     10034     10038     10038     10040     10038     10055
     10038     10041     10055     10057     10055     10058     10055     10059
     10041     10043     10043     10047     10043     10045     10051     10045
     10052     10045     10053     10041     10054     10041     10047     10049
     10047     10050     10047     10073     10073     10075     10073     10076
     10073     10077     10077     10079     10077     10080     10077     10081
     10081     10083     10081     10084     10081     10085     10085     10087
     10085     10088     10085     10089     10089     10091     10089     10092
     10089     10093     10093     10095     10093     10096     10093     10097
     10097     10099     10097     10100     10100     10102     10100     10103
     10103     10105     10103     10106     10103     10107     10107     10109
     10107     10110     10107     10111     10111     10113     10111     10114
     10111     10115     10115     10117     10115     10118     10115     10119
     10119     10121     10119     10122     10119     10123     10123     10125
     10123     10126     10123     10127     10127     10129     10127     10130
     10127     10131     10131     10133     10131     10134     10131     10135
     10059     10061     10061     10065     10061     10063     10069     10063
     10070     10063     10071     10059     10072     10059     10065     10067
     10065     10068     10065     10136     10136     10138     10136     10139
     10136     10140     10140     10142     10140     10143     10140     10144
     10144     10146     10144     10147     10144     10148     10148     10150
     10148     10151     10148     10152     10152     10154     10152     10155
     10152     10156     10156     10158     10156     10159     10156     10160
     10160     10162     10160     10163     10160     10164     10164     10166
     10164     10167     10164     10168     10168     10170     10168     10171
     10168     10172     10172     10174     10172     10175     10172     10176
     10176     10178     10176     10179     10176     10180     10180     10182
     10180     10183     10180     10184     10184     10186     10184     10187
     10184     10188     10188     10190     10188     10191     10188     10192
     10193     10194     10198     10199     10202     10203     10206     10207
     10208     10209     10210     10211     10212     10213     10214     10215
     10216     10217     10220     10221     10223     10224     10225     10226
     10227     10228     10229     10230     10237     10238     10241     10242
     10243     10244     10245     10246     10247     10248     10255     10256
     10259     10260     10263     10264     10267     10268     10271     10272
     10275     10276     10279     10280     10282     10283     10285     10286
     10289     10290     10293     10294     10297     10298     10301     10302
     10305     10306     10309     10310     10313     10314     10318     10319
     10322     10323     10326     10327     10330     10331     10334     10335
     10338     10339     10342     10343     10346     10347     10350     10351
     10354     10355     10358     10359     10362     10363     10366     10367
     10370     10371     10193     10195     10193     10196     10193     10197
     10193     10198     10198     10200     10198     10201     10198     10202
     10202     10204     10202     10205     10202     10214     10212     10216
     10214     10206     10206     10212     10206     10208     10206     10210
     10216     10218     10216     10219     10216     10220     10220     10222
     10220     10237     10220     10223     10237     10239     10237     10240
     10237     10241     10223     10225     10225     10229     10225     10227
     10233     10227     10234     10227     10235     10223     10236     10223
     10229     10231     10229     10232     10229     10255     10255     10257
     10255     10258     10255     10259     10259     10261     10259     10262
     10259     10263     10263     10265     10263     10266     10263     10267
     10267     10269     10267     10270     10267     10271     10271     10273
     10271     10274     10271     10275     10275     10277     10275     10278
     10275     10279     10279     10281     10279     10282     10282     10284
     10282     10285     10285     10287     10285     10288     10285     10289
     10289     10291     10289     10292     10289     10293     10293     10295
     10293     10296     10293     10297     10297     10299     10297     10300
     10297     10301     10301     10303     10301     10304     10301     10305
     10305     10307     10305     10308     10305     10309     10309     10311
     10309     10312     10309     10313     10313     10315     10313     10316
     10313     10317     10241     10243     10243     10247     10243     10245
     10251     10245     10252     10245     10253     10241     10254     10241
     10247     10249     10247     10250     10247     10318     10318     10320
     10318     10321     10318     10322     10322     10324     10322     10325
     10322     10326     10326     10328     10326     10329     10326     10330
     10330     10332     10330     10333     10330     10334     10334     10336
     10334     10337     10334     10338     10338     10340     10338     10341
     10338     10342     10342     10344     10342     10345     10342     10346
     10346     10348     10346     10349     10346     10350     10350     10352
     10350     10353     10350     10354     10354     10356     10354     10357
     10354     10358     10358     10360     10358     10361     10358     10362
     10362     10364     10362     10365     10362     10366     10366     10368
     10366     10369     10366     10370     10370     10372     10370     10373
     10370     10374     10375     10376     10380     10381     10384     10385
     10388     10389     10390     10391     10392     10393     10394     10395
     10396     10397     10398     10399     10402     10403     10405     10406
     10407     10408     10409     10410     10411     10412     10419     10420
     10423     10424     10425     10426     10427     10428     10429     10430
     10437     10438     10441     10442     10445     10446     10449     10450
     10453     10454     10457     10458     10461     10462     10464     10465
     10467     10468     10471     10472     10475     10476     10479     10480
     10483     10484     10487     10488     10491     10492     10495     10496
     10500     10501     10504     10505     10508     10509     10512     10513
     10516     10517     10520     10521     10524     10525     10528     10529
     10532     10533     10536     10537     10540     10541     10544     10545
     10548     10549     10552     10553     10375     10377     10375     10378
     10375     10379     10375     10380     10380     10382     10380     10383
     10380     10384     10384     10386     10384     10387     10384     10396
     10394     10398     10396     10388     10388     10394     10388     10390
     10388     10392     10398     10400     10398     10401     10398     10402
     10402     10404     10402     10419     10402     10405     10419     10421
     10419     10422     10419     10423     10405     10407     10407     10411
     10407     10409     10415     10409     10416     10409     10417     10405
     10418     10405     10411     10413     10411     10414     10411     10437
     10437     10439     10437     10440     10437     10441     10441     10443
     10441     10444     10441     10445     10445     10447     10445     10448
     10445     10449     10449     10451     10449     10452     10449     10453
     10453     10455     10453     10456     10453     10457     10457     10459
     10457     10460     10457     10461     10461     10463     10461     10464
     10464     10466     10464     10467     10467     10469     10467     10470
     10467     10471     10471     10473     10471     10474     10471     10475
     10475     10477     10475     10478     10475     10479     10479     10481
     10479     10482     10479     10483     10483     10485     10483     10486
     10483     10487     10487     10489     10487     10490     10487     10491
     10491     10493     10491     10494     10491     10495     10495     10497
     10495     10498     10495     10499     10423     10425     10425     10429
     10425     10427     10433     10427     10434     10427     10435     10423
     10436     10423     10429     10431     10429     10432     10429     10500
     10500     10502     10500     10503     10500     10504     10504     10506
     10504     10507     10504     10508     10508     10510     10508     10511
     10508     10512     10512     10514     10512     10515     10512     10516
     10516     10518     10516     10519     10516     10520     10520     10522
     10520     10523     10520     10524     10524     10526     10524     10527
     10524     10528     10528     10530     10528     10531     10528     10532
     10532     10534     10532     10535     10532     10536     10536     10538
     10536     10539     10536     10540     10540     10542     10540     10543
     10540     10544     10544     10546     10544     10547     10544     10548
     10548     10550     10548     10551     10548     10552     10552     10554
     10552     10555     10552     10556     10557     10558     10562     10563
     10566     10567     10570     10571     10572     10573     10574     10575
     10576     10577     10578     10579     10580     10581     10584     10585
     10587     10588     10589     10590     10591     10592     10593     10594
     10601     10602     10605     10606     10607     10608     10609     10610
     10611     10612     10619     10620     10623     10624     10627     10628
     10631     10632     10635     10636     10639     10640     10643     10644
     10646     10647     10649     10650     10653     10654     10657     10658
     10661     10662     10665     10666     10669     10670     10673     10674
     10677     10678     10682     10683     10686     10687     10690     10691
     10694     10695     10698     10699     10702     10703     10706     10707
     10710     10711     10714     10715     10718     10719     10722     10723
     10726     10727     10730     10731     10734     10735     10557     10559
     10557     10560     10557     10561     10557     10562     10562     10564
     10562     10565     10562     10566     10566     10568     10566     10569
     10566     10578     10576     10580     10578     10570     10570     10576
     10570     10572     10570     10574     10580     10582     10580     10583
     10580     10584     10584     10586     10584     10601     10584     10587
     10601     10603     10601     10604     10601     10605     10587     10589
     10589     10593     10589     10591     10597     10591     10598     10591
     10599     10587     10600     10587     10593     10595     10593     10596
     10593     10619     10619     10621     10619     10622     10619     10623
     10623     10625     10623     10626     10623     10627     10627     10629
     10627     10630     10627     10631     10631     10633     10631     10634
     10631     10635     10635     10637     10635     10638     10635     10639
     10639     10641     10639     10642     10639     10643     10643     10645
     10643     10646     10646     10648     10646     10649     10649     10651
     10649     10652     10649     10653     10653     10655     10653     10656
     10653     10657     10657     10659     10657     10660     10657     10661
     10661     10663     10661     10664     10661     10665     10665     10667
     10665     10668     10665     10669     10669     10671     10669     10672
     10669     10673     10673     10675     10673     10676     10673     10677
     10677     10679     10677     10680     10677     10681     10605     10607
     10607     10611     10607     10609     10615     10609     10616     10609
     10617     10605     10618     10605     10611     10613     10611     10614
     10611     10682     10682     10684     10682     10685     10682     10686
     10686     10688     10686     10689     10686     10690     10690     10692
     10690     10693     10690     10694     10694     10696     10694     10697
     10694     10698     10698     10700     10698     10701     10698     10702
     10702     10704     10702     10705     10702     10706     10706     10708
     10706     10709     10706     10710     10710     10712     10710     10713
     10710     10714     10714     10716     10714     10717     10714     10718
     10718     10720     10718     10721     10718     10722     10722     10724
     10722     10725     10722     10726     10726     10728     10726     10729
     10726     10730     10730     10732     10730     10733     10730     10734
     10734     10736     10734     10737     10734     10738     10739     10740
     10744     10745     10748     10749     10752     10753     10754     10755
     10756     10757     10758     10759     10760     10761     10762     10763
     10766     10767     10769     10770     10771     10772     10773     10774
     10775     10776     10783     10784     10787     10788     10789     10790
     10791     10792     10793     10794     10801     10802     10805     10806
     10809     10810     10813     10814     10817     10818     10821     10822
     10825     10826     10828     10829     10831     10832     10835     10836
     10839     10840     10843     10844     10847     10848     10851     10852
     10855     10856     10859     10860     10864     10865     10868     10869
     10872     10873     10876     10877     10880     10881     10884     10885
     10888     10889     10892     10893     10896     10897     10900     10901
     10904     10905     10908     10909     10912     10913     10916     10917
     10739     10741     10739     10742     10739     10743     10739     10744
     10744     10746     10744     10747     10744     10748     10748     10750
     10748     10751     10748     10760     10758     10762     10760     10752
     10752     10758     10752     10754     10752     10756     10762     10764
     10762     10765     10762     10766     10766     10768     10766     10783
     10766     10769     10783     10785     10783     10786     10783     10787
     10769     10771     10771     10775     10771     10773     10779     10773
     10780     10773     10781     10769     10782     10769     10775     10777
     10775     10778     10775     10801     10801     10803     10801     10804
     10801     10805     10805     10807     10805     10808     10805     10809
     10809     10811     10809     10812     10809     10813     10813     10815
     10813     10816     10813     10817     10817     10819     10817     10820
     10817     10821     10821     10823     10821     10824     10821     10825
     10825     10827     10825     10828     10828     10830     10828     10831
     10831     10833     10831     10834     10831     10835     10835     10837
     10835     10838     10835     10839     10839     10841     10839     10842
     10839     10843     10843     10845     10843     10846     10843     10847
     10847     10849     10847     10850     10847     10851     10851     10853
     10851     10854     10851     10855     10855     10857     10855     10858
     10855     10859     10859     10861     10859     10862     10859     10863
     10787     10789     10789     10793     10789     10791     10797     10791
     10798     10791     10799     10787     10800     10787     10793     10795
     10793     10796     10793     10864     10864     10866     10864     10867
     10864     10868     10868     10870     10868     10871     10868     10872
     10872     10874     10872     10875     10872     10876     10876     10878
     10876     10879     10876     10880     10880     10882     10880     10883
     10880     10884     10884     10886     10884     10887     10884     10888
     10888     10890     10888     10891     10888     10892     10892     10894
     10892     10895     10892     10896     10896     10898     10896     10899
     10896     10900     10900     10902     10900     10903     10900     10904
     10904     10906     10904     10907     10904     10908     10908     10910
     10908     10911     10908     10912     10912     10914     10912     10915
     10912     10916     10916     10918     10916     10919     10916     10920
     10921     10922     10926     10927     10930     10931     10934     10935
     10936     10937     10938     10939     10940     10941     10942     10943
     10944     10945     10948     10949     10951     10952     10953     10954
     10955     10956     10957     10958     10965     10966     10969     10970
     10971     10972     10973     10974     10975     10976     10983     10984
     10987     10988     10991     10992     10995     10996     10999     11000
     11003     11004     11007     11008     11010     11011     11013     11014
     11017     11018     11021     11022     11025     11026     11029     11030
     11033     11034     11037     11038     11041     11042     11046     11047
     11050     11051     11054     11055     11058     11059     11062     11063
     11066     11067     11070     11071     11074     11075     11078     11079
     11082     11083     11086     11087     11090     11091     11094     11095
     11098     11099     10921     10923     10921     10924     10921     10925
     10921     10926     10926     10928     10926     10929     10926     10930
     10930     10932     10930     10933     10930     10942     10940     10944
     10942     10934     10934     10940     10934     10936     10934     10938
     10944     10946     10944     10947     10944     10948     10948     10950
     10948     10965     10948     10951     10965     10967     10965     10968
     10965     10969     10951     10953     10953     10957     10953     10955
     10961     10955     10962     10955     10963     10951     10964     10951
     10957     10959     10957     10960     10957     10983     10983     10985
     10983     10986     10983     10987     10987     10989     10987     10990
     10987     10991     10991     10993     10991     10994     10991     10995
     10995     10997     10995     10998     10995     10999     10999     11001
     10999     11002     10999     11003     11003     11005     11003     11006
     11003     11007     11007     11009     11007     11010     11010     11012
     11010     11013     11013     11015     11013     11016     11013     11017
     11017     11019     11017     11020     11017     11021     11021     11023
     11021     11024     11021     11025     11025     11027     11025     11028
     11025     11029     11029     11031     11029     11032     11029     11033
     11033     11035     11033     11036     11033     11037     11037     11039
     11037     11040     11037     11041     11041     11043     11041     11044
     11041     11045     10969     10971     10971     10975     10971     10973
     10979     10973     10980     10973     10981     10969     10982     10969
     10975     10977     10975     10978     10975     11046     11046     11048
     11046     11049     11046     11050     11050     11052     11050     11053
     11050     11054     11054     11056     11054     11057     11054     11058
     11058     11060     11058     11061     11058     11062     11062     11064
     11062     11065     11062     11066     11066     11068     11066     11069
     11066     11070     11070     11072     11070     11073     11070     11074
     11074     11076     11074     11077     11074     11078     11078     11080
     11078     11081     11078     11082     11082     11084     11082     11085
     11082     11086     11086     11088     11086     11089     11086     11090
     11090     11092     11090     11093     11090     11094     11094     11096
     11094     11097     11094     11098     11098     11100     11098     11101
     11098     11102     11103     11104     11108     11109     11112     11113
     11116     11117     11118     11119     11120     11121     11122     11123
     11124     11125     11126     11127     11130     11131     11133     11134
     11135     11136     11137     11138     11139     11140     11147     11148
     11151     11152     11153     11154     11155     11156     11157     11158
     11165     11166     11169     11170     11173     11174     11177     11178
     11181     11182     11185     11186     11189     11190     11192     11193
     11195     11196     11199     11200     11203     11204     11207     11208
     11211     11212     11215     11216     11219     11220     11223     11224
     11228     11229     11232     11233     11236     11237     11240     11241
     11244     11245     11248     11249     11252     11253     11256     11257
     11260     11261     11264     11265     11268     11269     11272     11273
     11276     11277     11280     11281     11103     11105     11103     11106
     11103     11107     11103     11108     11108     11110     11108     11111
     11108     11112     11112     11114     11112     11115     11112     11124
     11122     11126     11124     11116     11116     11122     11116     11118
     11116     11120     11126     11128     11126     11129     11126     11130
     11130     11132     11130     11147     11130     11133     11147     11149
     11147     11150     11147     11151     11133     11135     11135     11139
     11135     11137     11143     11137     11144     11137     11145     11133
     11146     11133     11139     11141     11139     11142     11139     11165
     11165     11167     11165     11168     11165     11169     11169     11171
     11169     11172     11169     11173     11173     11175     11173     11176
     11173     11177     11177     11179     11177     11180     11177     11181
     11181     11183     11181     11184     11181     11185     11185     11187
     11185     11188     11185     11189     11189     11191     11189     11192
     11192     11194     11192     11195     11195     11197     11195     11198
     11195     11199     11199     11201     11199     11202     11199     11203
     11203     11205     11203     11206     11203     11207     11207     11209
     11207     11210     11207     11211     11211     11213     11211     11214
     11211     11215     11215     11217     11215     11218     11215     11219
     11219     11221     11219     11222     11219     11223     11223     11225
     11223     11226     11223     11227     11151     11153     11153     11157
     11153     11155     11161     11155     11162     11155     11163     11151
     11164     11151     11157     11159     11157     11160     11157     11228
     11228     11230     11228     11231     11228     11232     11232     11234
     11232     11235     11232     11236     11236     11238     11236     11239
     11236     11240     11240     11242     11240     11243     11240     11244
     11244     11246     11244     11247     11244     11248     11248     11250
     11248     11251     11248     11252     11252     11254     11252     11255
     11252     11256     11256     11258     11256     11259     11256     11260
     11260     11262     11260     11263     11260     11264     11264     11266
     11264     11267     11264     11268     11268     11270     11268     11271
     11268     11272     11272     11274     11272     11275     11272     11276
     11276     11278     11276     11279     11276     11280     11280     11282
     11280     11283     11280     11284     11285     11286     11290     11291
     11294     11295     11298     11299     11300     11301     11302     11303
     11304     11305     11306     11307     11308     11309     11312     11313
     11315     11316     11317     11318     11319     11320     11321     11322
     11329     11330     11333     11334     11335     11336     11337     11338
     11339     11340     11347     11348     11351     11352     11355     11356
     11359     11360     11363     11364     11367     11368     11371     11372
     11374     11375     11377     11378     11381     11382     11385     11386
     11389     11390     11393     11394     11397     11398     11401     11402
     11405     11406     11410     11411     11414     11415     11418     11419
     11422     11423     11426     11427     11430     11431     11434     11435
     11438     11439     11442     11443     11446     11447     11450     11451
     11454     11455     11458     11459     11462     11463     11285     11287
     11285     11288     11285     11289     11285     11290     11290     11292
     11290     11293     11290     11294     11294     11296     11294     11297
     11294     11306     11304     11308     11306     11298     11298     11304
     11298     11300     11298     11302     11308     11310     11308     11311
     11308     11312     11312     11314     11312     11329     11312     11315
     11329     11331     11329     11332     11329     11333     11315     11317
     11317     11321     11317     11319     11325     11319     11326     11319
     11327     11315     11328     11315     11321     11323     11321     11324
     11321     11347     11347     11349     11347     11350     11347     11351
     11351     11353     11351     11354     11351     11355     11355     11357
     11355     11358     11355     11359     11359     11361     11359     11362
     11359     11363     11363     11365     11363     11366     11363     11367
     11367     11369     11367     11370     11367     11371     11371     11373
     11371     11374     11374     11376     11374     11377     11377     11379
     11377     11380     11377     11381     11381     11383     11381     11384
     11381     11385     11385     11387     11385     11388     11385     11389
     11389     11391     11389     11392     11389     11393     11393     11395
     11393     11396     11393     11397     11397     11399     11397     11400
     11397     11401     11401     11403     11401     11404     11401     11405
     11405     11407     11405     11408     11405     11409     11333     11335
     11335     11339     11335     11337     11343     11337     11344     11337
     11345     11333     11346     11333     11339     11341     11339     11342
     11339     11410     11410     11412     11410     11413     11410     11414
     11414     11416     11414     11417     11414     11418     11418     11420
     11418     11421     11418     11422     11422     11424     11422     11425
     11422     11426     11426     11428     11426     11429     11426     11430
     11430     11432     11430     11433     11430     11434     11434     11436
     11434     11437     11434     11438     11438     11440     11438     11441
     11438     11442     11442     11444     11442     11445     11442     11446
     11446     11448     11446     11449     11446     11450     11450     11452
     11450     11453     11450     11454     11454     11456     11454     11457
     11454     11458     11458     11460     11458     11461     11458     11462
     11462     11464     11462     11465     11462     11466     11467     11468
     11472     11473     11476     11477     11480     11481     11482     11483
     11484     11485     11486     11487     11488     11489     11490     11491
     11494     11495     11497     11498     11499     11500     11501     11502
     11503     11504     11511     11512     11515     11516     11517     11518
     11519     11520     11521     11522     11529     11530     11533     11534
     11537     11538     11541     11542     11545     11546     11549     11550
     11553     11554     11556     11557     11559     11560     11563     11564
     11567     11568     11571     11572     11575     11576     11579     11580
     11583     11584     11587     11588     11592     11593     11596     11597
     11600     11601     11604     11605     11608     11609     11612     11613
     11616     11617     11620     11621     11624     11625     11628     11629
     11632     11633     11636     11637     11640     11641     11644     11645
     11467     11469     11467     11470     11467     11471     11467     11472
     11472     11474     11472     11475     11472     11476     11476     11478
     11476     11479     11476     11488     11486     11490     11488     11480
     11480     11486     11480     11482     11480     11484     11490     11492
     11490     11493     11490     11494     11494     11496     11494     11511
     11494     11497     11511     11513     11511     11514     11511     11515
     11497     11499     11499     11503     11499     11501     11507     11501
     11508     11501     11509     11497     11510     11497     11503     11505
     11503     11506     11503     11529     11529     11531     11529     11532
     11529     11533     11533     11535     11533     11536     11533     11537
     11537     11539     11537     11540     11537     11541     11541     11543
     11541     11544     11541     11545     11545     11547     11545     11548
     11545     11549     11549     11551     11549     11552     11549     11553
     11553     11555     11553     11556     11556     11558     11556     11559
     11559     11561     11559     11562     11559     11563     11563     11565
     11563     11566     11563     11567     11567     11569     11567     11570
     11567     11571     11571     11573     11571     11574     11571     11575
     11575     11577     11575     11578     11575     11579     11579     11581
     11579     11582     11579     11583     11583     11585     11583     11586
     11583     11587     11587     11589     11587     11590     11587     11591
     11515     11517     11517     11521     11517     11519     11525     11519
     11526     11519     11527     11515     11528     11515     11521     11523
     11521     11524     11521     11592     11592     11594     11592     11595
     11592     11596     11596     11598     11596     11599     11596     11600
     11600     11602     11600     11603     11600     11604     11604     11606
     11604     11607     11604     11608     11608     11610     11608     11611
     11608     11612     11612     11614     11612     11615     11612     11616
     11616     11618     11616     11619     11616     11620     11620     11622
     11620     11623     11620     11624     11624     11626     11624     11627
     11624     11628     11628     11630     11628     11631     11628     11632
     11632     11634     11632     11635     11632     11636     11636     11638
     11636     11639     11636     11640     11640     11642     11640     11643
     11640     11644     11644     11646     11644     11647     11644     11648
     11649     11650     11654     11655     11658     11659     11662     11663
     11664     11665     11666     11667     11668     11669     11670     11671
     11672     11673     11676     11677     11679     11680     11681     11682
     11683     11684     11685     11686     11693     11694     11697     11698
     11699     11700     11701     11702     11703     11704     11711     11712
     11715     11716     11719     11720     11723     11724     11727     11728
     11731     11732     11735     11736     11738     11739     11741     11742
     11745     11746     11749     11750     11753     11754     11757     11758
     11761     11762     11765     11766     11769     11770     11774     11775
     11778     11779     11782     11783     11786     11787     11790     11791
     11794     11795     11798     11799     11802     11803     11806     11807
     11810     11811     11814     11815     11818     11819     11822     11823
     11826     11827     11649     11651     11649     11652     11649     11653
     11649     11654     11654     11656     11654     11657     11654     11658
     11658     11660     11658     11661     11658     11670     11668     11672
     11670     11662     11662     11668     11662     11664     11662     11666
     11672     11674     11672     11675     11672     11676     11676     11678
     11676     11693     11676     11679     11693     11695     11693     11696
     11693     11697     11679     11681     11681     11685     11681     11683
     11689     11683     11690     11683     11691     11679     11692     11679
     11685     11687     11685     11688     11685     11711     11711     11713
     11711     11714     11711     11715     11715     11717     11715     11718
     11715     11719     11719     11721     11719     11722     11719     11723
     11723     11725     11723     11726     11723     11727     11727     11729
     11727     11730     11727     11731     11731     11733     11731     11734
     11731     11735     11735     11737     11735     11738     11738     11740
     11738     11741     11741     11743     11741     11744     11741     11745
     11745     11747     11745     11748     11745     11749     11749     11751
     11749     11752     11749     11753     11753     11755     11753     11756
     11753     11757     11757     11759     11757     11760     11757     11761
     11761     11763     11761     11764     11761     11765     11765     11767
     11765     11768     11765     11769     11769     11771     11769     11772
     11769     11773     11697     11699     11699     11703     11699     11701
     11707     11701     11708     11701     11709     11697     11710     11697
     11703     11705     11703     11706     11703     11774     11774     11776
     11774     11777     11774     11778     11778     11780     11778     11781
     11778     11782     11782     11784     11782     11785     11782     11786
     11786     11788     11786     11789     11786     11790     11790     11792
     11790     11793     11790     11794     11794     11796     11794     11797
     11794     11798     11798     11800     11798     11801     11798     11802
     11802     11804     11802     11805     11802     11806     11806     11808
     11806     11809     11806     11810     11810     11812     11810     11813
     11810     11814     11814     11816     11814     11817     11814     11818
     11818     11820     11818     11821     11818     11822     11822     11824
     11822     11825     11822     11826     11826     11828     11826     11829
     11826     11830     11831     11832     11836     11837     11840     11841
     11844     11845     11846     11847     11848     11849     11850     11851
     11852     11853     11854     11855     11858     11859     11861     11862
     11863     11864     11865     11866     11867     11868     11875     11876
     11879     11880     11881     11882     11883     11884     11885     11886
     11893     11894     11897     11898     11901     11902     11905     11906
     11909     11910     11913     11914     11917     11918     11920     11921
     11923     11924     11927     11928     11931     11932     11935     11936
     11939     11940     11943     11944     11947     11948     11951     11952
     11956     11957     11960     11961     11964     11965     11968     11969
     11972     11973     11976     11977     11980     11981     11984     11985
     11988     11989     11992     11993     11996     11997     12000     12001
     12004     12005     12008     12009     11831     11833     11831     11834
     11831     11835     11831     11836     11836     11838     11836     11839
     11836     11840     11840     11842     11840     11843     11840     11852
     11850     11854     11852     11844     11844     11850     11844     11846
     11844     11848     11854     11856     11854     11857     11854     11858
     11858     11860     11858     11875     11858     11861     11875     11877
     11875     11878     11875     11879     11861     11863     11863     11867
     11863     11865     11871     11865     11872     11865     11873     11861
     11874     11861     11867     11869     11867     11870     11867     11893
     11893     11895     11893     11896     11893     11897     11897     11899
     11897     11900     11897     11901     11901     11903     11901     11904
     11901     11905     11905     11907     11905     11908     11905     11909
     11909     11911     11909     11912     11909     11913     11913     11915
     11913     11916     11913     11917     11917     11919     11917     11920
     11920     11922     11920     11923     11923     11925     11923     11926
     11923     11927     11927     11929     11927     11930     11927     11931
     11931     11933     11931     11934     11931     11935     11935     11937
     11935     11938     11935     11939     11939     11941     11939     11942
     11939     11943     11943     11945     11943     11946     11943     11947
     11947     11949     11947     11950     11947     11951     11951     11953
     11951     11954     11951     11955     11879     11881     11881     11885
     11881     11883     11889     11883     11890     11883     11891     11879
     11892     11879     11885     11887     11885     11888     11885     11956
     11956     11958     11956     11959     11956     11960     11960     11962
     11960     11963     11960     11964     11964     11966     11964     11967
     11964     11968     11968     11970     11968     11971     11968     11972
     11972     11974     11972     11975     11972     11976     11976     11978
     11976     11979     11976     11980     11980     11982     11980     11983
     11980     11984     11984     11986     11984     11987     11984     11988
     11988     11990     11988     11991     11988     11992     11992     11994
     11992     11995     11992     11996     11996     11998     11996     11999
     11996     12000     12000     12002     12000     12003     12000     12004
     12004     12006     12004     12007     12004     12008     12008     12010
     12008     12011     12008     12012     12013     12014     12018     12019
     12022     12023     12026     12027     12028     12029     12030     12031
     12032     12033     12034     12035     12036     12037     12040     12041
     12043     12044     12045     12046     12047     12048     12049     12050
     12057     12058     12061     12062     12063     12064     12065     12066
     12067     12068     12075     12076     12079     12080     12083     12084
     12087     12088     12091     12092     12095     12096     12099     12100
     12102     12103     12105     12106     12109     12110     12113     12114
     12117     12118     12121     12122     12125     12126     12129     12130
     12133     12134     12138     12139     12142     12143     12146     12147
     12150     12151     12154     12155     12158     12159     12162     12163
     12166     12167     12170     12171     12174     12175     12178     12179
     12182     12183     12186     12187     12190     12191     12013     12015
     12013     12016     12013     12017     12013     12018     12018     12020
     12018     12021     12018     12022     12022     12024     12022     12025
     12022     12034     12032     12036     12034     12026     12026     12032
     12026     12028     12026     12030     12036     12038     12036     12039
     12036     12040     12040     12042     12040     12057     12040     12043
     12057     12059     12057     12060     12057     12061     12043     12045
     12045     12049     12045     12047     12053     12047     12054     12047
     12055     12043     12056     12043     12049     12051     12049     12052
     12049     12075     12075     12077     12075     12078     12075     12079
     12079     12081     12079     12082     12079     12083     12083     12085
     12083     12086     12083     12087     12087     12089     12087     12090
     12087     12091     12091     12093     12091     12094     12091     12095
     12095     12097     12095     12098     12095     12099     12099     12101
     12099     12102     12102     12104     12102     12105     12105     12107
     12105     12108     12105     12109     12109     12111     12109     12112
     12109     12113     12113     12115     12113     12116     12113     12117
     12117     12119     12117     12120     12117     12121     12121     12123
     12121     12124     12121     12125     12125     12127     12125     12128
     12125     12129     12129     12131     12129     12132     12129     12133
     12133     12135     12133     12136     12133     12137     12061     12063
     12063     12067     12063     12065     12071     12065     12072     12065
     12073     12061     12074     12061     12067     12069     12067     12070
     12067     12138     12138     12140     12138     12141     12138     12142
     12142     12144     12142     12145     12142     12146     12146     12148
     12146     12149     12146     12150     12150     12152     12150     12153
     12150     12154     12154     12156     12154     12157     12154     12158
     12158     12160     12158     12161     12158     12162     12162     12164
     12162     12165     12162     12166     12166     12168     12166     12169
     12166     12170     12170     12172     12170     12173     12170     12174
     12174     12176     12174     12177     12174     12178     12178     12180
     12178     12181     12178     12182     12182     12184     12182     12185
     12182     12186     12186     12188     12186     12189     12186     12190
     12190     12192     12190     12193     12190     12194     12195     12196
     12200     12201     12204     12205     12208     12209     12210     12211
     12212     12213     12214     12215     12216     12217     12218     12219
     12222     12223     12225     12226     12227     12228     12229     12230
     12231     12232     12239     12240     12243     12244     12245     12246
     12247     12248     12249     12250     12257     12258     12261     12262
     12265     12266     12269     12270     12273     12274     12277     12278
     12281     12282     12284     12285     12287     12288     12291     12292
     12295     12296     12299     12300     12303     12304     12307     12308
     12311     12312     12315     12316     12320     12321     12324     12325
     12328     12329     12332     12333     12336     12337     12340     12341
     12344     12345     12348     12349     12352     12353     12356     12357
     12360     12361     12364     12365     12368     12369     12372     12373
     12195     12197     12195     12198     12195     12199     12195     12200
     12200     12202     12200     12203     12200     12204     12204     12206
     12204     12207     12204     12216     12214     12218     12216     12208
     12208     12214     12208     12210     12208     12212     12218     12220
     12218     12221     12218     12222     12222     12224     12222     12239
     12222     12225     12239     12241     12239     12242     12239     12243
     12225     12227     12227     12231     12227     12229     12235     12229
     12236     12229     12237     12225     12238     12225     12231     12233
     12231     12234     12231     12257     12257     12259     12257     12260
     12257     12261     12261     12263     12261     12264     12261     12265
     12265     12267     12265     12268     12265     12269     12269     12271
     12269     12272     12269     12273     12273     12275     12273     12276
     12273     12277     12277     12279     12277     12280     12277     12281
     12281     12283     12281     12284     12284     12286     12284     12287
     12287     12289     12287     12290     12287     12291     12291     12293
     12291     12294     12291     12295     12295     12297     12295     12298
     12295     12299     12299     12301     12299     12302     12299     12303
     12303     12305     12303     12306     12303     12307     12307     12309
     12307     12310     12307     12311     12311     12313     12311     12314
     12311     12315     12315     12317     12315     12318     12315     12319
     12243     12245     12245     12249     12245     12247     12253     12247
     12254     12247     12255     12243     12256     12243     12249     12251
     12249     12252     12249     12320     12320     12322     12320     12323
     12320     12324     12324     12326     12324     12327     12324     12328
     12328     12330     12328     12331     12328     12332     12332     12334
     12332     12335     12332     12336     12336     12338     12336     12339
     12336     12340     12340     12342     12340     12343     12340     12344
     12344     12346     12344     12347     12344     12348     12348     12350
     12348     12351     12348     12352     12352     12354     12352     12355
     12352     12356     12356     12358     12356     12359     12356     12360
     12360     12362     12360     12363     12360     12364     12364     12366
     12364     12367     12364     12368     12368     12370     12368     12371
     12368     12372     12372     12374     12372     12375     12372     12376
     12377     12378     12382     12383     12386     12387     12390     12391
     12392     12393     12394     12395     12396     12397     12398     12399
     12400     12401     12404     12405     12407     12408     12409     12410
     12411     12412     12413     12414     12421     12422     12425     12426
     12427     12428     12429     12430     12431     12432     12439     12440
     12443     12444     12447     12448     12451     12452     12455     12456
     12459     12460     12463     12464     12466     12467     12469     12470
     12473     12474     12477     12478     12481     12482     12485     12486
     12489     12490     12493     12494     12497     12498     12502     12503
     12506     12507     12510     12511     12514     12515     12518     12519
     12522     12523     12526     12527     12530     12531     12534     12535
     12538     12539     12542     12543     12546     12547     12550     12551
     12554     12555     12377     12379     12377     12380     12377     12381
     12377     12382     12382     12384     12382     12385     12382     12386
     12386     12388     12386     12389     12386     12398     12396     12400
     12398     12390     12390     12396     12390     12392     12390     12394
     12400     12402     12400     12403     12400     12404     12404     12406
     12404     12421     12404     12407     12421     12423     12421     12424
     12421     12425     12407     12409     12409     12413     12409     12411
     12417     12411     12418     12411     12419     12407     12420     12407
     12413     12415     12413     12416     12413     12439     12439     12441
     12439     12442     12439     12443     12443     12445     12443     12446
     12443     12447     12447     12449     12447     12450     12447     12451
     12451     12453     12451     12454     12451     12455     12455     12457
     12455     12458     12455     12459     12459     12461     12459     12462
     12459     12463     12463     12465     12463     12466     12466     12468
     12466     12469     12469     12471     12469     12472     12469     12473
     12473     12475     12473     12476     12473     12477     12477     12479
     12477     12480     12477     12481     12481     12483     12481     12484
     12481     12485     12485     12487     12485     12488     12485     12489
     12489     12491     12489     12492     12489     12493     12493     12495
     12493     12496     12493     12497     12497     12499     12497     12500
     12497     12501     12425     12427     12427     12431     12427     12429
     12435     12429     12436     12429     12437     12425     12438     12425
     12431     12433     12431     12434     12431     12502     12502     12504
     12502     12505     12502     12506     12506     12508     12506     12509
     12506     12510     12510     12512     12510     12513     12510     12514
     12514     12516     12514     12517     12514     12518     12518     12520
     12518     12521     12518     12522     12522     12524     12522     12525
     12522     12526     12526     12528     12526     12529     12526     12530
     12530     12532     12530     12533     12530     12534     12534     12536
     12534     12537     12534     12538     12538     12540     12538     12541
     12538     12542     12542     12544     12542     12545     12542     12546
     12546     12548     12546     12549     12546     12550     12550     12552
     12550     12553     12550     12554     12554     12556     12554     12557
     12554     12558     12559     12560     12564     12565     12568     12569
     12572     12573     12574     12575     12576     12577     12578     12579
     12580     12581     12582     12583     12586     12587     12589     12590
     12591     12592     12593     12594     12595     12596     12603     12604
     12607     12608     12609     12610     12611     12612     12613     12614
     12621     12622     12625     12626     12629     12630     12633     12634
     12637     12638     12641     12642     12645     12646     12648     12649
     12651     12652     12655     12656     12659     12660     12663     12664
     12667     12668     12671     12672     12675     12676     12679     12680
     12684     12685     12688     12689     12692     12693     12696     12697
     12700     12701     12704     12705     12708     12709     12712     12713
     12716     12717     12720     12721     12724     12725     12728     12729
     12732     12733     12736     12737     12559     12561     12559     12562
     12559     12563     12559     12564     12564     12566     12564     12567
     12564     12568     12568     12570     12568     12571     12568     12580
     12578     12582     12580     12572     12572     12578     12572     12574
     12572     12576     12582     12584     12582     12585     12582     12586
     12586     12588     12586     12603     12586     12589     12603     12605
     12603     12606     12603     12607     12589     12591     12591     12595
     12591     12593     12599     12593     12600     12593     12601     12589
     12602     12589     12595     12597     12595     12598     12595     12621
     12621     12623     12621     12624     12621     12625     12625     12627
     12625     12628     12625     12629     12629     12631     12629     12632
     12629     12633     12633     12635     12633     12636     12633     12637
     12637     12639     12637     12640     12637     12641     12641     12643
     12641     12644     12641     12645     12645     12647     12645     12648
     12648     12650     12648     12651     12651     12653     12651     12654
     12651     12655     12655     12657     12655     12658     12655     12659
     12659     12661     12659     12662     12659     12663     12663     12665
     12663     12666     12663     12667     12667     12669     12667     12670
     12667     12671     12671     12673     12671     12674     12671     12675
     12675     12677     12675     12678     12675     12679     12679     12681
     12679     12682     12679     12683     12607     12609     12609     12613
     12609     12611     12617     12611     12618     12611     12619     12607
     12620     12607     12613     12615     12613     12616     12613     12684
     12684     12686     12684     12687     12684     12688     12688     12690
     12688     12691     12688     12692     12692     12694     12692     12695
     12692     12696     12696     12698     12696     12699     12696     12700
     12700     12702     12700     12703     12700     12704     12704     12706
     12704     12707     12704     12708     12708     12710     12708     12711
     12708     12712     12712     12714     12712     12715     12712     12716
     12716     12718     12716     12719     12716     12720     12720     12722
     12720     12723     12720     12724     12724     12726     12724     12727
     12724     12728     12728     12730     12728     12731     12728     12732
     12732     12734     12732     12735     12732     12736     12736     12738
     12736     12739     12736     12740     12741     12742     12746     12747
     12750     12751     12754     12755     12756     12757     12758     12759
     12760     12761     12762     12763     12764     12765     12768     12769
     12771     12772     12773     12774     12775     12776     12777     12778
     12785     12786     12789     12790     12791     12792     12793     12794
     12795     12796     12803     12804     12807     12808     12811     12812
     12815     12816     12819     12820     12823     12824     12827     12828
     12830     12831     12833     12834     12837     12838     12841     12842
     12845     12846     12849     12850     12853     12854     12857     12858
     12861     12862     12866     12867     12870     12871     12874     12875
     12878     12879     12882     12883     12886     12887     12890     12891
     12894     12895     12898     12899     12902     12903     12906     12907
     12910     12911     12914     12915     12918     12919     12741     12743
     12741     12744     12741     12745     12741     12746     12746     12748
     12746     12749     12746     12750     12750     12752     12750     12753
     12750     12762     12760     12764     12762     12754     12754     12760
     12754     12756     12754     12758     12764     12766     12764     12767
     12764     12768     12768     12770     12768     12785     12768     12771
     12785     12787     12785     12788     12785     12789     12771     12773
     12773     12777     12773     12775     12781     12775     12782     12775
     12783     12771     12784     12771     12777     12779     12777     12780
     12777     12803     12803     12805     12803     12806     12803     12807
     12807     12809     12807     12810     12807     12811     12811     12813
     12811     12814     12811     12815     12815     12817     12815     12818
     12815     12819     12819     12821     12819     12822     12819     12823
     12823     12825     12823     12826     12823     12827     12827     12829
     12827     12830     12830     12832     12830     12833     12833     12835
     12833     12836     12833     12837     12837     12839     12837     12840
     12837     12841     12841     12843     12841     12844     12841     12845
     12845     12847     12845     12848     12845     12849     12849     12851
     12849     12852     12849     12853     12853     12855     12853     12856
     12853     12857     12857     12859     12857     12860     12857     12861
     12861     12863     12861     12864     12861     12865     12789     12791
     12791     12795     12791     12793     12799     12793     12800     12793
     12801     12789     12802     12789     12795     12797     12795     12798
     12795     12866     12866     12868     12866     12869     12866     12870
     12870     12872     12870     12873     12870     12874     12874     12876
     12874     12877     12874     12878     12878     12880     12878     12881
     12878     12882     12882     12884     12882     12885     12882     12886
     12886     12888     12886     12889     12886     12890     12890     12892
     12890     12893     12890     12894     12894     12896     12894     12897
     12894     12898     12898     12900     12898     12901     12898     12902
     12902     12904     12902     12905     12902     12906     12906     12908
     12906     12909     12906     12910     12910     12912     12910     12913
     12910     12914     12914     12916     12914     12917     12914     12918
     12918     12920     12918     12921     12918     12922     12923     12924
     12928     12929     12932     12933     12936     12937     12938     12939
     12940     12941     12942     12943     12944     12945     12946     12947
     12950     12951     12953     12954     12955     12956     12957     12958
     12959     12960     12967     12968     12971     12972     12973     12974
     12975     12976     12977     12978     12985     12986     12989     12990
     12993     12994     12997     12998     13001     13002     13005     13006
     13009     13010     13012     13013     13015     13016     13019     13020
     13023     13024     13027     13028     13031     13032     13035     13036
     13039     13040     13043     13044     13048     13049     13052     13053
     13056     13057     13060     13061     13064     13065     13068     13069
     13072     13073     13076     13077     13080     13081     13084     13085
     13088     13089     13092     13093     13096     13097     13100     13101
     12923     12925     12923     12926     12923     12927     12923     12928
     12928     12930     12928     12931     12928     12932     12932     12934
     12932     12935     12932     12944     12942     12946     12944     12936
     12936     12942     12936     12938     12936     12940     12946     12948
     12946     12949     12946     12950     12950     12952     12950     12967
     12950     12953     12967     12969     12967     12970     12967     12971
     12953     12955     12955     12959     12955     12957     12963     12957
     12964     12957     12965     12953     12966     12953     12959     12961
     12959     12962     12959     12985     12985     12987     12985     12988
     12985     12989     12989     12991     12989     12992     12989     12993
     12993     12995     12993     12996     12993     12997     12997     12999
     12997     13000     12997     13001     13001     13003     13001     13004
     13001     13005     13005     13007     13005     13008     13005     13009
     13009     13011     13009     13012     13012     13014     13012     13015
     13015     13017     13015     13018     13015     13019     13019     13021
     13019     13022     13019     13023     13023     13025     13023     13026
     13023     13027     13027     13029     13027     13030     13027     13031
     13031     13033     13031     13034     13031     13035     13035     13037
     13035     13038     13035     13039     13039     13041     13039     13042
     13039     13043     13043     13045     13043     13046     13043     13047
     12971     12973     12973     12977     12973     12975     12981     12975
     12982     12975     12983     12971     12984     12971     12977     12979
     12977     12980     12977     13048     13048     13050     13048     13051
     13048     13052     13052     13054     13052     13055     13052     13056
     13056     13058     13056     13059     13056     13060     13060     13062
     13060     13063     13060     13064     13064     13066     13064     13067
     13064     13068     13068     13070     13068     13071     13068     13072
     13072     13074     13072     13075     13072     13076     13076     13078
     13076     13079     13076     13080     13080     13082     13080     13083
     13080     13084     13084     13086     13084     13087     13084     13088
     13088     13090     13088     13091     13088     13092     13092     13094
     13092     13095     13092     13096     13096     13098     13096     13099
     13096     13100     13100     13102     13100     13103     13100     13104
     13105     13106     13110     13111     13114     13115     13118     13119
     13120     13121     13122     13123     13124     13125     13126     13127
     13128     13129     13132     13133     13135     13136     13137     13138
     13139     13140     13141     13142     13149     13150     13153     13154
     13155     13156     13157     13158     13159     13160     13167     13168
     13171     13172     13175     13176     13179     13180     13183     13184
     13187     13188     13191     13192     13194     13195     13197     13198
     13201     13202     13205     13206     13209     13210     13213     13214
     13217     13218     13221     13222     13225     13226     13230     13231
     13234     13235     13238     13239     13242     13243     13246     13247
     13250     13251     13254     13255     13258     13259     13262     13263
     13266     13267     13270     13271     13274     13275     13278     13279
     13282     13283     13105     13107     13105     13108     13105     13109
     13105     13110     13110     13112     13110     13113     13110     13114
     13114     13116     13114     13117     13114     13126     13124     13128
     13126     13118     13118     13124     13118     13120     13118     13122
     13128     13130     13128     13131     13128     13132     13132     13134
     13132     13149     13132     13135     13149     13151     13149     13152
     13149     13153     13135     13137     13137     13141     13137     13139
     13145     13139     13146     13139     13147     13135     13148     13135
     13141     13143     13141     13144     13141     13167     13167     13169
     13167     13170     13167     13171     13171     13173     13171     13174
     13171     13175     13175     13177     13175     13178     13175     13179
     13179     13181     13179     13182     13179     13183     13183     13185
     13183     13186     13183     13187     13187     13189     13187     13190
     13187     13191     13191     13193     13191     13194     13194     13196
     13194     13197     13197     13199     13197     13200     13197     13201
     13201     13203     13201     13204     13201     13205     13205     13207
     13205     13208     13205     13209     13209     13211     13209     13212
     13209     13213     13213     13215     13213     13216     13213     13217
     13217     13219     13217     13220     13217     13221     13221     13223
     13221     13224     13221     13225     13225     13227     13225     13228
     13225     13229     13153     13155     13155     13159     13155     13157
     13163     13157     13164     13157     13165     13153     13166     13153
     13159     13161     13159     13162     13159     13230     13230     13232
     13230     13233     13230     13234     13234     13236     13234     13237
     13234     13238     13238     13240     13238     13241     13238     13242
     13242     13244     13242     13245     13242     13246     13246     13248
     13246     13249     13246     13250     13250     13252     13250     13253
     13250     13254     13254     13256     13254     13257     13254     13258
     13258     13260     13258     13261     13258     13262     13262     13264
     13262     13265     13262     13266     13266     13268     13266     13269
     13266     13270     13270     13272     13270     13273     13270     13274
     13274     13276     13274     13277     13274     13278     13278     13280
     13278     13281     13278     13282     13282     13284     13282     13285
     13282     13286     13287     13288     13292     13293     13296     13297
     13300     13301     13302     13303     13304     13305     13306     13307
     13308     13309     13310     13311     13314     13315     13317     13318
     13319     13320     13321     13322     13323     13324     13331     13332
     13335     13336     13337     13338     13339     13340     13341     13342
     13349     13350     13353     13354     13357     13358     13361     13362
     13365     13366     13369     13370     13373     13374     13376     13377
     13379     13380     13383     13384     13387     13388     13391     13392
     13395     13396     13399     13400     13403     13404     13407     13408
     13412     13413     13416     13417     13420     13421     13424     13425
     13428     13429     13432     13433     13436     13437     13440     13441
     13444     13445     13448     13449     13452     13453     13456     13457
     13460     13461     13464     13465     13287     13289     13287     13290
     13287     13291     13287     13292     13292     13294     13292     13295
     13292     13296     13296     13298     13296     13299     13296     13308
     13306     13310     13308     13300     13300     13306     13300     13302
     13300     13304     13310     13312     13310     13313     13310     13314
     13314     13316     13314     13331     13314     13317     13331     13333
     13331     13334     13331     13335     13317     13319     13319     13323
     13319     13321     13327     13321     13328     13321     13329     13317
     13330     13317     13323     13325     13323     13326     13323     13349
     13349     13351     13349     13352     13349     13353     13353     13355
     13353     13356     13353     13357     13357     13359     13357     13360
     13357     13361     13361     13363     13361     13364     13361     13365
     13365     13367     13365     13368     13365     13369     13369     13371
     13369     13372     13369     13373     13373     13375     13373     13376
     13376     13378     13376     13379     13379     13381     13379     13382
     13379     13383     13383     13385     13383     13386     13383     13387
     13387     13389     13387     13390     13387     13391     13391     13393
     13391     13394     13391     13395     13395     13397     13395     13398
     13395     13399     13399     13401     13399     13402     13399     13403
     13403     13405     13403     13406     13403     13407     13407     13409
     13407     13410     13407     13411     13335     13337     13337     13341
     13337     13339     13345     13339     13346     13339     13347     13335
     13348     13335     13341     13343     13341     13344     13341     13412
     13412     13414     13412     13415     13412     13416     13416     13418
     13416     13419     13416     13420     13420     13422     13420     13423
     13420     13424     13424     13426     13424     13427     13424     13428
     13428     13430     13428     13431     13428     13432     13432     13434
     13432     13435     13432     13436     13436     13438     13436     13439
     13436     13440     13440     13442     13440     13443     13440     13444
     13444     13446     13444     13447     13444     13448     13448     13450
     13448     13451     13448     13452     13452     13454     13452     13455
     13452     13456     13456     13458     13456     13459     13456     13460
     13460     13462     13460     13463     13460     13464     13464     13466
     13464     13467     13464     13468     13469     13470     13474     13475
     13478     13479     13482     13483     13484     13485     13486     13487
     13488     13489     13490     13491     13492     13493     13496     13497
     13499     13500     13501     13502     13503     13504     13505     13506
     13513     13514     13517     13518     13519     13520     13521     13522
     13523     13524     13531     13532     13535     13536     13539     13540
     13543     13544     13547     13548     13551     13552     13555     13556
     13558     13559     13561     13562     13565     13566     13569     13570
     13573     13574     13577     13578     13581     13582     13585     13586
     13589     13590     13594     13595     13598     13599     13602     13603
     13606     13607     13610     13611     13614     13615     13618     13619
     13622     13623     13626     13627     13630     13631     13634     13635
     13638     13639     13642     13643     13646     13647     13469     13471
     13469     13472     13469     13473     13469     13474     13474     13476
     13474     13477     13474     13478     13478     13480     13478     13481
     13478     13490     13488     13492     13490     13482     13482     13488
     13482     13484     13482     13486     13492     13494     13492     13495
     13492     13496     13496     13498     13496     13513     13496     13499
     13513     13515     13513     13516     13513     13517     13499     13501
     13501     13505     13501     13503     13509     13503     13510     13503
     13511     13499     13512     13499     13505     13507     13505     13508
     13505     13531     13531     13533     13531     13534     13531     13535
     13535     13537     13535     13538     13535     13539     13539     13541
     13539     13542     13539     13543     13543     13545     13543     13546
     13543     13547     13547     13549     13547     13550     13547     13551
     13551     13553     13551     13554     13551     13555     13555     13557
     13555     13558     13558     13560     13558     13561     13561     13563
     13561     13564     13561     13565     13565     13567     13565     13568
     13565     13569     13569     13571     13569     13572     13569     13573
     13573     13575     13573     13576     13573     13577     13577     13579
     13577     13580     13577     13581     13581     13583     13581     13584
     13581     13585     13585     13587     13585     13588     13585     13589
     13589     13591     13589     13592     13589     13593     13517     13519
     13519     13523     13519     13521     13527     13521     13528     13521
     13529     13517     13530     13517     13523     13525     13523     13526
     13523     13594     13594     13596     13594     13597     13594     13598
     13598     13600     13598     13601     13598     13602     13602     13604
     13602     13605     13602     13606     13606     13608     13606     13609
     13606     13610     13610     13612     13610     13613     13610     13614
     13614     13616     13614     13617     13614     13618     13618     13620
     13618     13621     13618     13622     13622     13624     13622     13625
     13622     13626     13626     13628     13626     13629     13626     13630
     13630     13632     13630     13633     13630     13634     13634     13636
     13634     13637     13634     13638     13638     13640     13638     13641
     13638     13642     13642     13644     13642     13645     13642     13646
     13646     13648     13646     13649     13646     13650     13651     13652
     13656     13657     13660     13661     13664     13665     13666     13667
     13668     13669     13670     13671     13672     13673     13674     13675
     13678     13679     13681     13682     13683     13684     13685     13686
     13687     13688     13695     13696     13699     13700     13701     13702
     13703     13704     13705     13706     13713     13714     13717     13718
     13721     13722     13725     13726     13729     13730     13733     13734
     13737     13738     13740     13741     13743     13744     13747     13748
     13751     13752     13755     13756     13759     13760     13763     13764
     13767     13768     13771     13772     13776     13777     13780     13781
     13784     13785     13788     13789     13792     13793     13796     13797
     13800     13801     13804     13805     13808     13809     13812     13813
     13816     13817     13820     13821     13824     13825     13828     13829
     13651     13653     13651     13654     13651     13655     13651     13656
     13656     13658     13656     13659     13656     13660     13660     13662
     13660     13663     13660     13672     13670     13674     13672     13664
     13664     13670     13664     13666     13664     13668     13674     13676
     13674     13677     13674     13678     13678     13680     13678     13695
     13678     13681     13695     13697     13695     13698     13695     13699
     13681     13683     13683     13687     13683     13685     13691     13685
     13692     13685     13693     13681     13694     13681     13687     13689
     13687     13690     13687     13713     13713     13715     13713     13716
     13713     13717     13717     13719     13717     13720     13717     13721
     13721     13723     13721     13724     13721     13725     13725     13727
     13725     13728     13725     13729     13729     13731     13729     13732
     13729     13733     13733     13735     13733     13736     13733     13737
     13737     13739     13737     13740     13740     13742     13740     13743
     13743     13745     13743     13746     13743     13747     13747     13749
     13747     13750     13747     13751     13751     13753     13751     13754
     13751     13755     13755     13757     13755     13758     13755     13759
     13759     13761     13759     13762     13759     13763     13763     13765
     13763     13766     13763     13767     13767     13769     13767     13770
     13767     13771     13771     13773     13771     13774     13771     13775
     13699     13701     13701     13705     13701     13703     13709     13703
     13710     13703     13711     13699     13712     13699     13705     13707
     13705     13708     13705     13776     13776     13778     13776     13779
     13776     13780     13780     13782     13780     13783     13780     13784
     13784     13786     13784     13787     13784     13788     13788     13790
     13788     13791     13788     13792     13792     13794     13792     13795
     13792     13796     13796     13798     13796     13799     13796     13800
     13800     13802     13800     13803     13800     13804     13804     13806
     13804     13807     13804     13808     13808     13810     13808     13811
     13808     13812     13812     13814     13812     13815     13812     13816
     13816     13818     13816     13819     13816     13820     13820     13822
     13820     13823     13820     13824     13824     13826     13824     13827
     13824     13828     13828     13830     13828     13831     13828     13832
     13833     13834     13838     13839     13842     13843     13846     13847
     13848     13849     13850     13851     13852     13853     13854     13855
     13856     13857     13860     13861     13863     13864     13865     13866
     13867     13868     13869     13870     13877     13878     13881     13882
     13883     13884     13885     13886     13887     13888     13895     13896
     13899     13900     13903     13904     13907     13908     13911     13912
     13915     13916     13919     13920     13922     13923     13925     13926
     13929     13930     13933     13934     13937     13938     13941     13942
     13945     13946     13949     13950     13953     13954     13958     13959
     13962     13963     13966     13967     13970     13971     13974     13975
     13978     13979     13982     13983     13986     13987     13990     13991
     13994     13995     13998     13999     14002     14003     14006     14007
     14010     14011     13833     13835     13833     13836     13833     13837
     13833     13838     13838     13840     13838     13841     13838     13842
     13842     13844     13842     13845     13842     13854     13852     13856
     13854     13846     13846     13852     13846     13848     13846     13850
     13856     13858     13856     13859     13856     13860     13860     13862
     13860     13877     13860     13863     13877     13879     13877     13880
     13877     13881     13863     13865     13865     13869     13865     13867
     13873     13867     13874     13867     13875     13863     13876     13863
     13869     13871     13869     13872     13869     13895     13895     13897
     13895     13898     13895     13899     13899     13901     13899     13902
     13899     13903     13903     13905     13903     13906     13903     13907
     13907     13909     13907     13910     13907     13911     13911     13913
     13911     13914     13911     13915     13915     13917     13915     13918
     13915     13919     13919     13921     13919     13922     13922     13924
     13922     13925     13925     13927     13925     13928     13925     13929
     13929     13931     13929     13932     13929     13933     13933     13935
     13933     13936     13933     13937     13937     13939     13937     13940
     13937     13941     13941     13943     13941     13944     13941     13945
     13945     13947     13945     13948     13945     13949     13949     13951
     13949     13952     13949     13953     13953     13955     13953     13956
     13953     13957     13881     13883     13883     13887     13883     13885
     13891     13885     13892     13885     13893     13881     13894     13881
     13887     13889     13887     13890     13887     13958     13958     13960
     13958     13961     13958     13962     13962     13964     13962     13965
     13962     13966     13966     13968     13966     13969     13966     13970
     13970     13972     13970     13973     13970     13974     13974     13976
     13974     13977     13974     13978     13978     13980     13978     13981
     13978     13982     13982     13984     13982     13985     13982     13986
     13986     13988     13986     13989     13986     13990     13990     13992
     13990     13993     13990     13994     13994     13996     13994     13997
     13994     13998     13998     14000     13998     14001     13998     14002
     14002     14004     14002     14005     14002     14006     14006     14008
     14006     14009     14006     14010     14010     14012     14010     14013
     14010     14014     14015     14016     14020     14021     14024     14025
     14028     14029     14030     14031     14032     14033     14034     14035
     14036     14037     14038     14039     14042     14043     14045     14046
     14047     14048     14049     14050     14051     14052     14059     14060
     14063     14064     14065     14066     14067     14068     14069     14070
     14077     14078     14081     14082     14085     14086     14089     14090
     14093     14094     14097     14098     14101     14102     14104     14105
     14107     14108     14111     14112     14115     14116     14119     14120
     14123     14124     14127     14128     14131     14132     14135     14136
     14140     14141     14144     14145     14148     14149     14152     14153
     14156     14157     14160     14161     14164     14165     14168     14169
     14172     14173     14176     14177     14180     14181     14184     14185
     14188     14189     14192     14193     14015     14017     14015     14018
     14015     14019     14015     14020     14020     14022     14020     14023
     14020     14024     14024     14026     14024     14027     14024     14036
     14034     14038     14036     14028     14028     14034     14028     14030
     14028     14032     14038     14040     14038     14041     14038     14042
     14042     14044     14042     14059     14042     14045     14059     14061
     14059     14062     14059     14063     14045     14047     14047     14051
     14047     14049     14055     14049     14056     14049     14057     14045
     14058     14045     14051     14053     14051     14054     14051     14077
     14077     14079     14077     14080     14077     14081     14081     14083
     14081     14084     14081     14085     14085     14087     14085     14088
     14085     14089     14089     14091     14089     14092     14089     14093
     14093     14095     14093     14096     14093     14097     14097     14099
     14097     14100     14097     14101     14101     14103     14101     14104
     14104     14106     14104     14107     14107     14109     14107     14110
     14107     14111     14111     14113     14111     14114     14111     14115
     14115     14117     14115     14118     14115     14119     14119     14121
     14119     14122     14119     14123     14123     14125     14123     14126
     14123     14127     14127     14129     14127     14130     14127     14131
     14131     14133     14131     14134     14131     14135     14135     14137
     14135     14138     14135     14139     14063     14065     14065     14069
     14065     14067     14073     14067     14074     14067     14075     14063
     14076     14063     14069     14071     14069     14072     14069     14140
     14140     14142     14140     14143     14140     14144     14144     14146
     14144     14147     14144     14148     14148     14150     14148     14151
     14148     14152     14152     14154     14152     14155     14152     14156
     14156     14158     14156     14159     14156     14160     14160     14162
     14160     14163     14160     14164     14164     14166     14164     14167
     14164     14168     14168     14170     14168     14171     14168     14172
     14172     14174     14172     14175     14172     14176     14176     14178
     14176     14179     14176     14180     14180     14182     14180     14183
     14180     14184     14184     14186     14184     14187     14184     14188
     14188     14190     14188     14191     14188     14192     14192     14194
     14192     14195     14192     14196     14197     14198     14202     14203
     14206     14207     14210     14211     14212     14213     14214     14215
     14216     14217     14218     14219     14220     14221     14224     14225
     14227     14228     14229     14230     14231     14232     14233     14234
     14241     14242     14245     14246     14247     14248     14249     14250
     14251     14252     14259     14260     14263     14264     14267     14268
     14271     14272     14275     14276     14279     14280     14283     14284
     14286     14287     14289     14290     14293     14294     14297     14298
     14301     14302     14305     14306     14309     14310     14313     14314
     14317     14318     14322     14323     14326     14327     14330     14331
     14334     14335     14338     14339     14342     14343     14346     14347
     14350     14351     14354     14355     14358     14359     14362     14363
     14366     14367     14370     14371     14374     14375     14197     14199
     14197     14200     14197     14201     14197     14202     14202     14204
     14202     14205     14202     14206     14206     14208     14206     14209
     14206     14218     14216     14220     14218     14210     14210     14216
     14210     14212     14210     14214     14220     14222     14220     14223
     14220     14224     14224     14226     14224     14241     14224     14227
     14241     14243     14241     14244     14241     14245     14227     14229
     14229     14233     14229     14231     14237     14231     14238     14231
     14239     14227     14240     14227     14233     14235     14233     14236
     14233     14259     14259     14261     14259     14262     14259     14263
     14263     14265     14263     14266     14263     14267     14267     14269
     14267     14270     14267     14271     14271     14273     14271     14274
     14271     14275     14275     14277     14275     14278     14275     14279
     14279     14281     14279     14282     14279     14283     14283     14285
     14283     14286     14286     14288     14286     14289     14289     14291
     14289     14292     14289     14293     14293     14295     14293     14296
     14293     14297     14297     14299     14297     14300     14297     14301
     14301     14303     14301     14304     14301     14305     14305     14307
     14305     14308     14305     14309     14309     14311     14309     14312
     14309     14313     14313     14315     14313     14316     14313     14317
     14317     14319     14317     14320     14317     14321     14245     14247
     14247     14251     14247     14249     14255     14249     14256     14249
     14257     14245     14258     14245     14251     14253     14251     14254
     14251     14322     14322     14324     14322     14325     14322     14326
     14326     14328     14326     14329     14326     14330     14330     14332
     14330     14333     14330     14334     14334     14336     14334     14337
     14334     14338     14338     14340     14338     14341     14338     14342
     14342     14344     14342     14345     14342     14346     14346     14348
     14346     14349     14346     14350     14350     14352     14350     14353
     14350     14354     14354     14356     14354     14357     14354     14358
     14358     14360     14358     14361     14358     14362     14362     14364
     14362     14365     14362     14366     14366     14368     14366     14369
     14366     14370     14370     14372     14370     14373     14370     14374
     14374     14376     14374     14377     14374     14378     14379     14380
     14384     14385     14388     14389     14392     14393     14394     14395
     14396     14397     14398     14399     14400     14401     14402     14403
     14406     14407     14409     14410     14411     14412     14413     14414
     14415     14416     14423     14424     14427     14428     14429     14430
     14431     14432     14433     14434     14441     14442     14445     14446
     14449     14450     14453     14454     14457     14458     14461     14462
     14465     14466     14468     14469     14471     14472     14475     14476
     14479     14480     14483     14484     14487     14488     14491     14492
     14495     14496     14499     14500     14504     14505     14508     14509
     14512     14513     14516     14517     14520     14521     14524     14525
     14528     14529     14532     14533     14536     14537     14540     14541
     14544     14545     14548     14549     14552     14553     14556     14557
     14379     14381     14379     14382     14379     14383     14379     14384
     14384     14386     14384     14387     14384     14388     14388     14390
     14388     14391     14388     14400     14398     14402     14400     14392
     14392     14398     14392     14394     14392     14396     14402     14404
     14402     14405     14402     14406     14406     14408     14406     14423
     14406     14409     14423     14425     14423     14426     14423     14427
     14409     14411     14411     14415     14411     14413     14419     14413
     14420     14413     14421     14409     14422     14409     14415     14417
     14415     14418     14415     14441     14441     14443     14441     14444
     14441     14445     14445     14447     14445     14448     14445     14449
     14449     14451     14449     14452     14449     14453     14453     14455
     14453     14456     14453     14457     14457     14459     14457     14460
     14457     14461     14461     14463     14461     14464     14461     14465
     14465     14467     14465     14468     14468     14470     14468     14471
     14471     14473     14471     14474     14471     14475     14475     14477
     14475     14478     14475     14479     14479     14481     14479     14482
     14479     14483     14483     14485     14483     14486     14483     14487
     14487     14489     14487     14490     14487     14491     14491     14493
     14491     14494     14491     14495     14495     14497     14495     14498
     14495     14499     14499     14501     14499     14502     14499     14503
     14427     14429     14429     14433     14429     14431     14437     14431
     14438     14431     14439     14427     14440     14427     14433     14435
     14433     14436     14433     14504     14504     14506     14504     14507
     14504     14508     14508     14510     14508     14511     14508     14512
     14512     14514     14512     14515     14512     14516     14516     14518
     14516     14519     14516     14520     14520     14522     14520     14523
     14520     14524     14524     14526     14524     14527     14524     14528
     14528     14530     14528     14531     14528     14532     14532     14534
     14532     14535     14532     14536     14536     14538     14536     14539
     14536     14540     14540     14542     14540     14543     14540     14544
     14544     14546     14544     14547     14544     14548     14548     14550
     14548     14551     14548     14552     14552     14554     14552     14555
     14552     14556     14556     14558     14556     14559     14556     14560
     14561     14562     14566     14567     14570     14571     14574     14575
     14576     14577     14578     14579     14580     14581     14582     14583
     14584     14585     14588     14589     14591     14592     14593     14594
     14595     14596     14597     14598     14605     14606     14609     14610
     14611     14612     14613     14614     14615     14616     14623     14624
     14627     14628     14631     14632     14635     14636     14639     14640
     14643     14644     14647     14648     14650     14651     14653     14654
     14657     14658     14661     14662     14665     14666     14669     14670
     14673     14674     14677     14678     14681     14682     14686     14687
     14690     14691     14694     14695     14698     14699     14702     14703
     14706     14707     14710     14711     14714     14715     14718     14719
     14722     14723     14726     14727     14730     14731     14734     14735
     14738     14739     14561     14563     14561     14564     14561     14565
     14561     14566     14566     14568     14566     14569     14566     14570
     14570     14572     14570     14573     14570     14582     14580     14584
     14582     14574     14574     14580     14574     14576     14574     14578
     14584     14586     14584     14587     14584     14588     14588     14590
     14588     14605     14588     14591     14605     14607     14605     14608
     14605     14609     14591     14593     14593     14597     14593     14595
     14601     14595     14602     14595     14603     14591     14604     14591
     14597     14599     14597     14600     14597     14623     14623     14625
     14623     14626     14623     14627     14627     14629     14627     14630
     14627     14631     14631     14633     14631     14634     14631     14635
     14635     14637     14635     14638     14635     14639     14639     14641
     14639     14642     14639     14643     14643     14645     14643     14646
     14643     14647     14647     14649     14647     14650     14650     14652
     14650     14653     14653     14655     14653     14656     14653     14657
     14657     14659     14657     14660     14657     14661     14661     14663
     14661     14664     14661     14665     14665     14667     14665     14668
     14665     14669     14669     14671     14669     14672     14669     14673
     14673     14675     14673     14676     14673     14677     14677     14679
     14677     14680     14677     14681     14681     14683     14681     14684
     14681     14685     14609     14611     14611     14615     14611     14613
     14619     14613     14620     14613     14621     14609     14622     14609
     14615     14617     14615     14618     14615     14686     14686     14688
     14686     14689     14686     14690     14690     14692     14690     14693
     14690     14694     14694     14696     14694     14697     14694     14698
     14698     14700     14698     14701     14698     14702     14702     14704
     14702     14705     14702     14706     14706     14708     14706     14709
     14706     14710     14710     14712     14710     14713     14710     14714
     14714     14716     14714     14717     14714     14718     14718     14720
     14718     14721     14718     14722     14722     14724     14722     14725
     14722     14726     14726     14728     14726     14729     14726     14730
     14730     14732     14730     14733     14730     14734     14734     14736
     14734     14737     14734     14738     14738     14740     14738     14741
     14738     14742     14743     14744     14748     14749     14752     14753
     14756     14757     14758     14759     14760     14761     14762     14763
     14764     14765     14766     14767     14770     14771     14773     14774
     14775     14776     14777     14778     14779     14780     14787     14788
     14791     14792     14793     14794     14795     14796     14797     14798
     14805     14806     14809     14810     14813     14814     14817     14818
     14821     14822     14825     14826     14829     14830     14832     14833
     14835     14836     14839     14840     14843     14844     14847     14848
     14851     14852     14855     14856     14859     14860     14863     14864
     14868     14869     14872     14873     14876     14877     14880     14881
     14884     14885     14888     14889     14892     14893     14896     14897
     14900     14901     14904     14905     14908     14909     14912     14913
     14916     14917     14920     14921     14743     14745     14743     14746
     14743     14747     14743     14748     14748     14750     14748     14751
     14748     14752     14752     14754     14752     14755     14752     14764
     14762     14766     14764     14756     14756     14762     14756     14758
     14756     14760     14766     14768     14766     14769     14766     14770
     14770     14772     14770     14787     14770     14773     14787     14789
     14787     14790     14787     14791     14773     14775     14775     14779
     14775     14777     14783     14777     14784     14777     14785     14773
     14786     14773     14779     14781     14779     14782     14779     14805
     14805     14807     14805     14808     14805     14809     14809     14811
     14809     14812     14809     14813     14813     14815     14813     14816
     14813     14817     14817     14819     14817     14820     14817     14821
     14821     14823     14821     14824     14821     14825     14825     14827
     14825     14828     14825     14829     14829     14831     14829     14832
     14832     14834     14832     14835     14835     14837     14835     14838
     14835     14839     14839     14841     14839     14842     14839     14843
     14843     14845     14843     14846     14843     14847     14847     14849
     14847     14850     14847     14851     14851     14853     14851     14854
     14851     14855     14855     14857     14855     14858     14855     14859
     14859     14861     14859     14862     14859     14863     14863     14865
     14863     14866     14863     14867     14791     14793     14793     14797
     14793     14795     14801     14795     14802     14795     14803     14791
     14804     14791     14797     14799     14797     14800     14797     14868
     14868     14870     14868     14871     14868     14872     14872     14874
     14872     14875     14872     14876     14876     14878     14876     14879
     14876     14880     14880     14882     14880     14883     14880     14884
     14884     14886     14884     14887     14884     14888     14888     14890
     14888     14891     14888     14892     14892     14894     14892     14895
     14892     14896     14896     14898     14896     14899     14896     14900
     14900     14902     14900     14903     14900     14904     14904     14906
     14904     14907     14904     14908     14908     14910     14908     14911
     14908     14912     14912     14914     14912     14915     14912     14916
     14916     14918     14916     14919     14916     14920     14920     14922
     14920     14923     14920     14924     14925     14926     14930     14931
     14934     14935     14938     14939     14940     14941     14942     14943
     14944     14945     14946     14947     14948     14949     14952     14953
     14955     14956     14957     14958     14959     14960     14961     14962
     14969     14970     14973     14974     14975     14976     14977     14978
     14979     14980     14987     14988     14991     14992     14995     14996
     14999     15000     15003     15004     15007     15008     15011     15012
     15014     15015     15017     15018     15021     15022     15025     15026
     15029     15030     15033     15034     15037     15038     15041     15042
     15045     15046     15050     15051     15054     15055     15058     15059
     15062     15063     15066     15067     15070     15071     15074     15075
     15078     15079     15082     15083     15086     15087     15090     15091
     15094     15095     15098     15099     15102     15103     14925     14927
     14925     14928     14925     14929     14925     14930     14930     14932
     14930     14933     14930     14934     14934     14936     14934     14937
     14934     14946     14944     14948     14946     14938     14938     14944
     14938     14940     14938     14942     14948     14950     14948     14951
     14948     14952     14952     14954     14952     14969     14952     14955
     14969     14971     14969     14972     14969     14973     14955     14957
     14957     14961     14957     14959     14965     14959     14966     14959
     14967     14955     14968     14955     14961     14963     14961     14964
     14961     14987     14987     14989     14987     14990     14987     14991
     14991     14993     14991     14994     14991     14995     14995     14997
     14995     14998     14995     14999     14999     15001     14999     15002
     14999     15003     15003     15005     15003     15006     15003     15007
     15007     15009     15007     15010     15007     15011     15011     15013
     15011     15014     15014     15016     15014     15017     15017     15019
     15017     15020     15017     15021     15021     15023     15021     15024
     15021     15025     15025     15027     15025     15028     15025     15029
     15029     15031     15029     15032     15029     15033     15033     15035
     15033     15036     15033     15037     15037     15039     15037     15040
     15037     15041     15041     15043     15041     15044     15041     15045
     15045     15047     15045     15048     15045     15049     14973     14975
     14975     14979     14975     14977     14983     14977     14984     14977
     14985     14973     14986     14973     14979     14981     14979     14982
     14979     15050     15050     15052     15050     15053     15050     15054
     15054     15056     15054     15057     15054     15058     15058     15060
     15058     15061     15058     15062     15062     15064     15062     15065
     15062     15066     15066     15068     15066     15069     15066     15070
     15070     15072     15070     15073     15070     15074     15074     15076
     15074     15077     15074     15078     15078     15080     15078     15081
     15078     15082     15082     15084     15082     15085     15082     15086
     15086     15088     15086     15089     15086     15090     15090     15092
     15090     15093     15090     15094     15094     15096     15094     15097
     15094     15098     15098     15100     15098     15101     15098     15102
     15102     15104     15102     15105     15102     15106     15107     15108
     15112     15113     15116     15117     15120     15121     15122     15123
     15124     15125     15126     15127     15128     15129     15130     15131
     15134     15135     15137     15138     15139     15140     15141     15142
     15143     15144     15151     15152     15155     15156     15157     15158
     15159     15160     15161     15162     15169     15170     15173     15174
     15177     15178     15181     15182     15185     15186     15189     15190
     15193     15194     15196     15197     15199     15200     15203     15204
     15207     15208     15211     15212     15215     15216     15219     15220
     15223     15224     15227     15228     15232     15233     15236     15237
     15240     15241     15244     15245     15248     15249     15252     15253
     15256     15257     15260     15261     15264     15265     15268     15269
     15272     15273     15276     15277     15280     15281     15284     15285
     15107     15109     15107     15110     15107     15111     15107     15112
     15112     15114     15112     15115     15112     15116     15116     15118
     15116     15119     15116     15128     15126     15130     15128     15120
     15120     15126     15120     15122     15120     15124     15130     15132
     15130     15133     15130     15134     15134     15136     15134     15151
     15134     15137     15151     15153     15151     15154     15151     15155
     15137     15139     15139     15143     15139     15141     15147     15141
     15148     15141     15149     15137     15150     15137     15143     15145
     15143     15146     15143     15169     15169     15171     15169     15172
     15169     15173     15173     15175     15173     15176     15173     15177
     15177     15179     15177     15180     15177     15181     15181     15183
     15181     15184     15181     15185     15185     15187     15185     15188
     15185     15189     15189     15191     15189     15192     15189     15193
     15193     15195     15193     15196     15196     15198     15196     15199
     15199     15201     15199     15202     15199     15203     15203     15205
     15203     15206     15203     15207     15207     15209     15207     15210
     15207     15211     15211     15213     15211     15214     15211     15215
     15215     15217     15215     15218     15215     15219     15219     15221
     15219     15222     15219     15223     15223     15225     15223     15226
     15223     15227     15227     15229     15227     15230     15227     15231
     15155     15157     15157     15161     15157     15159     15165     15159
     15166     15159     15167     15155     15168     15155     15161     15163
     15161     15164     15161     15232     15232     15234     15232     15235
     15232     15236     15236     15238     15236     15239     15236     15240
     15240     15242     15240     15243     15240     15244     15244     15246
     15244     15247     15244     15248     15248     15250     15248     15251
     15248     15252     15252     15254     15252     15255     15252     15256
     15256     15258     15256     15259     15256     15260     15260     15262
     15260     15263     15260     15264     15264     15266     15264     15267
     15264     15268     15268     15270     15268     15271     15268     15272
     15272     15274     15272     15275     15272     15276     15276     15278
     15276     15279     15276     15280     15280     15282     15280     15283
     15280     15284     15284     15286     15284     15287     15284     15288
     15289     15290     15294     15295     15298     15299     15302     15303
     15304     15305     15306     15307     15308     15309     15310     15311
     15312     15313     15316     15317     15319     15320     15321     15322
     15323     15324     15325     15326     15333     15334     15337     15338
     15339     15340     15341     15342     15343     15344     15351     15352
     15355     15356     15359     15360     15363     15364     15367     15368
     15371     15372     15375     15376     15378     15379     15381     15382
     15385     15386     15389     15390     15393     15394     15397     15398
     15401     15402     15405     15406     15409     15410     15414     15415
     15418     15419     15422     15423     15426     15427     15430     15431
     15434     15435     15438     15439     15442     15443     15446     15447
     15450     15451     15454     15455     15458     15459     15462     15463
     15466     15467     15289     15291     15289     15292     15289     15293
     15289     15294     15294     15296     15294     15297     15294     15298
     15298     15300     15298     15301     15298     15310     15308     15312
     15310     15302     15302     15308     15302     15304     15302     15306
     15312     15314     15312     15315     15312     15316     15316     15318
     15316     15333     15316     15319     15333     15335     15333     15336
     15333     15337     15319     15321     15321     15325     15321     15323
     15329     15323     15330     15323     15331     15319     15332     15319
     15325     15327     15325     15328     15325     15351     15351     15353
     15351     15354     15351     15355     15355     15357     15355     15358
     15355     15359     15359     15361     15359     15362     15359     15363
     15363     15365     15363     15366     15363     15367     15367     15369
     15367     15370     15367     15371     15371     15373     15371     15374
     15371     15375     15375     15377     15375     15378     15378     15380
     15378     15381     15381     15383     15381     15384     15381     15385
     15385     15387     15385     15388     15385     15389     15389     15391
     15389     15392     15389     15393     15393     15395     15393     15396
     15393     15397     15397     15399     15397     15400     15397     15401
     15401     15403     15401     15404     15401     15405     15405     15407
     15405     15408     15405     15409     15409     15411     15409     15412
     15409     15413     15337     15339     15339     15343     15339     15341
     15347     15341     15348     15341     15349     15337     15350     15337
     15343     15345     15343     15346     15343     15414     15414     15416
     15414     15417     15414     15418     15418     15420     15418     15421
     15418     15422     15422     15424     15422     15425     15422     15426
     15426     15428     15426     15429     15426     15430     15430     15432
     15430     15433     15430     15434     15434     15436     15434     15437
     15434     15438     15438     15440     15438     15441     15438     15442
     15442     15444     15442     15445     15442     15446     15446     15448
     15446     15449     15446     15450     15450     15452     15450     15453
     15450     15454     15454     15456     15454     15457     15454     15458
     15458     15460     15458     15461     15458     15462     15462     15464
     15462     15465     15462     15466     15466     15468     15466     15469
     15466     15470     15471     15472     15476     15477     15480     15481
     15484     15485     15486     15487     15488     15489     15490     15491
     15492     15493     15494     15495     15498     15499     15501     15502
     15503     15504     15505     15506     15507     15508     15515     15516
     15519     15520     15521     15522     15523     15524     15525     15526
     15533     15534     15537     15538     15541     15542     15545     15546
     15549     15550     15553     15554     15557     15558     15560     15561
     15563     15564     15567     15568     15571     15572     15575     15576
     15579     15580     15583     15584     15587     15588     15591     15592
     15596     15597     15600     15601     15604     15605     15608     15609
     15612     15613     15616     15617     15620     15621     15624     15625
     15628     15629     15632     15633     15636     15637     15640     15641
     15644     15645     15648     15649     15471     15473     15471     15474
     15471     15475     15471     15476     15476     15478     15476     15479
     15476     15480     15480     15482     15480     15483     15480     15492
     15490     15494     15492     15484     15484     15490     15484     15486
     15484     15488     15494     15496     15494     15497     15494     15498
     15498     15500     15498     15515     15498     15501     15515     15517
     15515     15518     15515     15519     15501     15503     15503     15507
     15503     15505     15511     15505     15512     15505     15513     15501
     15514     15501     15507     15509     15507     15510     15507     15533
     15533     15535     15533     15536     15533     15537     15537     15539
     15537     15540     15537     15541     15541     15543     15541     15544
     15541     15545     15545     15547     15545     15548     15545     15549
     15549     15551     15549     15552     15549     15553     15553     15555
     15553     15556     15553     15557     15557     15559     15557     15560
     15560     15562     15560     15563     15563     15565     15563     15566
     15563     15567     15567     15569     15567     15570     15567     15571
     15571     15573     15571     15574     15571     15575     15575     15577
     15575     15578     15575     15579     15579     15581     15579     15582
     15579     15583     15583     15585     15583     15586     15583     15587
     15587     15589     15587     15590     15587     15591     15591     15593
     15591     15594     15591     15595     15519     15521     15521     15525
     15521     15523     15529     15523     15530     15523     15531     15519
     15532     15519     15525     15527     15525     15528     15525     15596
     15596     15598     15596     15599     15596     15600     15600     15602
     15600     15603     15600     15604     15604     15606     15604     15607
     15604     15608     15608     15610     15608     15611     15608     15612
     15612     15614     15612     15615     15612     15616     15616     15618
     15616     15619     15616     15620     15620     15622     15620     15623
     15620     15624     15624     15626     15624     15627     15624     15628
     15628     15630     15628     15631     15628     15632     15632     15634
     15632     15635     15632     15636     15636     15638     15636     15639
     15636     15640     15640     15642     15640     15643     15640     15644
     15644     15646     15644     15647     15644     15648     15648     15650
     15648     15651     15648     15652     15653     15654     15658     15659
     15662     15663     15666     15667     15668     15669     15670     15671
     15672     15673     15674     15675     15676     15677     15680     15681
     15683     15684     15685     15686     15687     15688     15689     15690
     15697     15698     15701     15702     15703     15704     15705     15706
     15707     15708     15715     15716     15719     15720     15723     15724
     15727     15728     15731     15732     15735     15736     15739     15740
     15742     15743     15745     15746     15749     15750     15753     15754
     15757     15758     15761     15762     15765     15766     15769     15770
     15773     15774     15778     15779     15782     15783     15786     15787
     15790     15791     15794     15795     15798     15799     15802     15803
     15806     15807     15810     15811     15814     15815     15818     15819
     15822     15823     15826     15827     15830     15831     15653     15655
     15653     15656     15653     15657     15653     15658     15658     15660
     15658     15661     15658     15662     15662     15664     15662     15665
     15662     15674     15672     15676     15674     15666     15666     15672
     15666     15668     15666     15670     15676     15678     15676     15679
     15676     15680     15680     15682     15680     15697     15680     15683
     15697     15699     15697     15700     15697     15701     15683     15685
     15685     15689     15685     15687     15693     15687     15694     15687
     15695     15683     15696     15683     15689     15691     15689     15692
     15689     15715     15715     15717     15715     15718     15715     15719
     15719     15721     15719     15722     15719     15723     15723     15725
     15723     15726     15723     15727     15727     15729     15727     15730
     15727     15731     15731     15733     15731     15734     15731     15735
     15735     15737     15735     15738     15735     15739     15739     15741
     15739     15742     15742     15744     15742     15745     15745     15747
     15745     15748     15745     15749     15749     15751     15749     15752
     15749     15753     15753     15755     15753     15756     15753     15757
     15757     15759     15757     15760     15757     15761     15761     15763
     15761     15764     15761     15765     15765     15767     15765     15768
     15765     15769     15769     15771     15769     15772     15769     15773
     15773     15775     15773     15776     15773     15777     15701     15703
     15703     15707     15703     15705     15711     15705     15712     15705
     15713     15701     15714     15701     15707     15709     15707     15710
     15707     15778     15778     15780     15778     15781     15778     15782
     15782     15784     15782     15785     15782     15786     15786     15788
     15786     15789     15786     15790     15790     15792     15790     15793
     15790     15794     15794     15796     15794     15797     15794     15798
     15798     15800     15798     15801     15798     15802     15802     15804
     15802     15805     15802     15806     15806     15808     15806     15809
     15806     15810     15810     15812     15810     15813     15810     15814
     15814     15816     15814     15817     15814     15818     15818     15820
     15818     15821     15818     15822     15822     15824     15822     15825
     15822     15826     15826     15828     15826     15829     15826     15830
     15830     15832     15830     15833     15830     15834     15835     15836
     15840     15841     15844     15845     15848     15849     15850     15851
     15852     15853     15854     15855     15856     15857     15858     15859
     15862     15863     15865     15866     15867     15868     15869     15870
     15871     15872     15879     15880     15883     15884     15885     15886
     15887     15888     15889     15890     15897     15898     15901     15902
     15905     15906     15909     15910     15913     15914     15917     15918
     15921     15922     15924     15925     15927     15928     15931     15932
     15935     15936     15939     15940     15943     15944     15947     15948
     15951     15952     15955     15956     15960     15961     15964     15965
     15968     15969     15972     15973     15976     15977     15980     15981
     15984     15985     15988     15989     15992     15993     15996     15997
     16000     16001     16004     16005     16008     16009     16012     16013
     15835     15837     15835     15838     15835     15839     15835     15840
     15840     15842     15840     15843     15840     15844     15844     15846
     15844     15847     15844     15856     15854     15858     15856     15848
     15848     15854     15848     15850     15848     15852     15858     15860
     15858     15861     15858     15862     15862     15864     15862     15879
     15862     15865     15879     15881     15879     15882     15879     15883
     15865     15867     15867     15871     15867     15869     15875     15869
     15876     15869     15877     15865     15878     15865     15871     15873
     15871     15874     15871     15897     15897     15899     15897     15900
     15897     15901     15901     15903     15901     15904     15901     15905
     15905     15907     15905     15908     15905     15909     15909     15911
     15909     15912     15909     15913     15913     15915     15913     15916
     15913     15917     15917     15919     15917     15920     15917     15921
     15921     15923     15921     15924     15924     15926     15924     15927
     15927     15929     15927     15930     15927     15931     15931     15933
     15931     15934     15931     15935     15935     15937     15935     15938
     15935     15939     15939     15941     15939     15942     15939     15943
     15943     15945     15943     15946     15943     15947     15947     15949
     15947     15950     15947     15951     15951     15953     15951     15954
     15951     15955     15955     15957     15955     15958     15955     15959
     15883     15885     15885     15889     15885     15887     15893     15887
     15894     15887     15895     15883     15896     15883     15889     15891
     15889     15892     15889     15960     15960     15962     15960     15963
     15960     15964     15964     15966     15964     15967     15964     15968
     15968     15970     15968     15971     15968     15972     15972     15974
     15972     15975     15972     15976     15976     15978     15976     15979
     15976     15980     15980     15982     15980     15983     15980     15984
     15984     15986     15984     15987     15984     15988     15988     15990
     15988     15991     15988     15992     15992     15994     15992     15995
     15992     15996     15996     15998     15996     15999     15996     16000
     16000     16002     16000     16003     16000     16004     16004     16006
     16004     16007     16004     16008     16008     16010     16008     16011
     16008     16012     16012     16014     16012     16015     16012     16016
     16017     16018     16022     16023     16026     16027     16030     16031
     16032     16033     16034     16035     16036     16037     16038     16039
     16040     16041     16044     16045     16047     16048     16049     16050
     16051     16052     16053     16054     16061     16062     16065     16066
     16067     16068     16069     16070     16071     16072     16079     16080
     16083     16084     16087     16088     16091     16092     16095     16096
     16099     16100     16103     16104     16106     16107     16109     16110
     16113     16114     16117     16118     16121     16122     16125     16126
     16129     16130     16133     16134     16137     16138     16142     16143
     16146     16147     16150     16151     16154     16155     16158     16159
     16162     16163     16166     16167     16170     16171     16174     16175
     16178     16179     16182     16183     16186     16187     16190     16191
     16194     16195     16017     16019     16017     16020     16017     16021
     16017     16022     16022     16024     16022     16025     16022     16026
     16026     16028     16026     16029     16026     16038     16036     16040
     16038     16030     16030     16036     16030     16032     16030     16034
     16040     16042     16040     16043     16040     16044     16044     16046
     16044     16061     16044     16047     16061     16063     16061     16064
     16061     16065     16047     16049     16049     16053     16049     16051
     16057     16051     16058     16051     16059     16047     16060     16047
     16053     16055     16053     16056     16053     16079     16079     16081
     16079     16082     16079     16083     16083     16085     16083     16086
     16083     16087     16087     16089     16087     16090     16087     16091
     16091     16093     16091     16094     16091     16095     16095     16097
     16095     16098     16095     16099     16099     16101     16099     16102
     16099     16103     16103     16105     16103     16106     16106     16108
     16106     16109     16109     16111     16109     16112     16109     16113
     16113     16115     16113     16116     16113     16117     16117     16119
     16117     16120     16117     16121     16121     16123     16121     16124
     16121     16125     16125     16127     16125     16128     16125     16129
     16129     16131     16129     16132     16129     16133     16133     16135
     16133     16136     16133     16137     16137     16139     16137     16140
     16137     16141     16065     16067     16067     16071     16067     16069
     16075     16069     16076     16069     16077     16065     16078     16065
     16071     16073     16071     16074     16071     16142     16142     16144
     16142     16145     16142     16146     16146     16148     16146     16149
     16146     16150     16150     16152     16150     16153     16150     16154
     16154     16156     16154     16157     16154     16158     16158     16160
     16158     16161     16158     16162     16162     16164     16162     16165
     16162     16166     16166     16168     16166     16169     16166     16170
     16170     16172     16170     16173     16170     16174     16174     16176
     16174     16177     16174     16178     16178     16180     16178     16181
     16178     16182     16182     16184     16182     16185     16182     16186
     16186     16188     16186     16189     16186     16190     16190     16192
     16190     16193     16190     16194     16194     16196     16194     16197
     16194     16198     16199     16200     16204     16205     16208     16209
     16212     16213     16214     16215     16216     16217     16218     16219
     16220     16221     16222     16223     16226     16227     16229     16230
     16231     16232     16233     16234     16235     16236     16243     16244
     16247     16248     16249     16250     16251     16252     16253     16254
     16261     16262     16265     16266     16269     16270     16273     16274
     16277     16278     16281     16282     16285     16286     16288     16289
     16291     16292     16295     16296     16299     16300     16303     16304
     16307     16308     16311     16312     16315     16316     16319     16320
     16324     16325     16328     16329     16332     16333     16336     16337
     16340     16341     16344     16345     16348     16349     16352     16353
     16356     16357     16360     16361     16364     16365     16368     16369
     16372     16373     16376     16377     16199     16201     16199     16202
     16199     16203     16199     16204     16204     16206     16204     16207
     16204     16208     16208     16210     16208     16211     16208     16220
     16218     16222     16220     16212     16212     16218     16212     16214
     16212     16216     16222     16224     16222     16225     16222     16226
     16226     16228     16226     16243     16226     16229     16243     16245
     16243     16246     16243     16247     16229     16231     16231     16235
     16231     16233     16239     16233     16240     16233     16241     16229
     16242     16229     16235     16237     16235     16238     16235     16261
     16261     16263     16261     16264     16261     16265     16265     16267
     16265     16268     16265     16269     16269     16271     16269     16272
     16269     16273     16273     16275     16273     16276     16273     16277
     16277     16279     16277     16280     16277     16281     16281     16283
     16281     16284     16281     16285     16285     16287     16285     16288
     16288     16290     16288     16291     16291     16293     16291     16294
     16291     16295     16295     16297     16295     16298     16295     16299
     16299     16301     16299     16302     16299     16303     16303     16305
     16303     16306     16303     16307     16307     16309     16307     16310
     16307     16311     16311     16313     16311     16314     16311     16315
     16315     16317     16315     16318     16315     16319     16319     16321
     16319     16322     16319     16323     16247     16249     16249     16253
     16249     16251     16257     16251     16258     16251     16259     16247
     16260     16247     16253     16255     16253     16256     16253     16324
     16324     16326     16324     16327     16324     16328     16328     16330
     16328     16331     16328     16332     16332     16334     16332     16335
     16332     16336     16336     16338     16336     16339     16336     16340
     16340     16342     16340     16343     16340     16344     16344     16346
     16344     16347     16344     16348     16348     16350     16348     16351
     16348     16352     16352     16354     16352     16355     16352     16356
     16356     16358     16356     16359     16356     16360     16360     16362
     16360     16363     16360     16364     16364     16366     16364     16367
     16364     16368     16368     16370     16368     16371     16368     16372
     16372     16374     16372     16375     16372     16376     16376     16378
     16376     16379     16376     16380     16381     16382     16386     16387
     16390     16391     16394     16395     16396     16397     16398     16399
     16400     16401     16402     16403     16404     16405     16408     16409
     16411     16412     16413     16414     16415     16416     16417     16418
     16425     16426     16429     16430     16431     16432     16433     16434
     16435     16436     16443     16444     16447     16448     16451     16452
     16455     16456     16459     16460     16463     16464     16467     16468
     16470     16471     16473     16474     16477     16478     16481     16482
     16485     16486     16489     16490     16493     16494     16497     16498
     16501     16502     16506     16507     16510     16511     16514     16515
     16518     16519     16522     16523     16526     16527     16530     16531
     16534     16535     16538     16539     16542     16543     16546     16547
     16550     16551     16554     16555     16558     16559     16381     16383
     16381     16384     16381     16385     16381     16386     16386     16388
     16386     16389     16386     16390     16390     16392     16390     16393
     16390     16402     16400     16404     16402     16394     16394     16400
     16394     16396     16394     16398     16404     16406     16404     16407
     16404     16408     16408     16410     16408     16425     16408     16411
     16425     16427     16425     16428     16425     16429     16411     16413
     16413     16417     16413     16415     16421     16415     16422     16415
     16423     16411     16424     16411     16417     16419     16417     16420
     16417     16443     16443     16445     16443     16446     16443     16447
     16447     16449     16447     16450     16447     16451     16451     16453
     16451     16454     16451     16455     16455     16457     16455     16458
     16455     16459     16459     16461     16459     16462     16459     16463
     16463     16465     16463     16466     16463     16467     16467     16469
     16467     16470     16470     16472     16470     16473     16473     16475
     16473     16476     16473     16477     16477     16479     16477     16480
     16477     16481     16481     16483     16481     16484     16481     16485
     16485     16487     16485     16488     16485     16489     16489     16491
     16489     16492     16489     16493     16493     16495     16493     16496
     16493     16497     16497     16499     16497     16500     16497     16501
     16501     16503     16501     16504     16501     16505     16429     16431
     16431     16435     16431     16433     16439     16433     16440     16433
     16441     16429     16442     16429     16435     16437     16435     16438
     16435     16506     16506     16508     16506     16509     16506     16510
     16510     16512     16510     16513     16510     16514     16514     16516
     16514     16517     16514     16518     16518     16520     16518     16521
     16518     16522     16522     16524     16522     16525     16522     16526
     16526     16528     16526     16529     16526     16530     16530     16532
     16530     16533     16530     16534     16534     16536     16534     16537
     16534     16538     16538     16540     16538     16541     16538     16542
     16542     16544     16542     16545     16542     16546     16546     16548
     16546     16549     16546     16550     16550     16552     16550     16553
     16550     16554     16554     16556     16554     16557     16554     16558
     16558     16560     16558     16561     16558     16562     16563     16564
     16568     16569     16572     16573     16576     16577     16578     16579
     16580     16581     16582     16583     16584     16585     16586     16587
     16590     16591     16593     16594     16595     16596     16597     16598
     16599     16600     16607     16608     16611     16612     16613     16614
     16615     16616     16617     16618     16625     16626     16629     16630
     16633     16634     16637     16638     16641     16642     16645     16646
     16649     16650     16652     16653     16655     16656     16659     16660
     16663     16664     16667     16668     16671     16672     16675     16676
     16679     16680     16683     16684     16688     16689     16692     16693
     16696     16697     16700     16701     16704     16705     16708     16709
     16712     16713     16716     16717     16720     16721     16724     16725
     16728     16729     16732     16733     16736     16737     16740     16741
     16563     16565     16563     16566     16563     16567     16563     16568
     16568     16570     16568     16571     16568     16572     16572     16574
     16572     16575     16572     16584     16582     16586     16584     16576
     16576     16582     16576     16578     16576     16580     16586     16588
     16586     16589     16586     16590     16590     16592     16590     16607
     16590     16593     16607     16609     16607     16610     16607     16611
     16593     16595     16595     16599     16595     16597     16603     16597
     16604     16597     16605     16593     16606     16593     16599     16601
     16599     16602     16599     16625     16625     16627     16625     16628
     16625     16629     16629     16631     16629     16632     16629     16633
     16633     16635     16633     16636     16633     16637     16637     16639
     16637     16640     16637     16641     16641     16643     16641     16644
     16641     16645     16645     16647     16645     16648     16645     16649
     16649     16651     16649     16652     16652     16654     16652     16655
     16655     16657     16655     16658     16655     16659     16659     16661
     16659     16662     16659     16663     16663     16665     16663     16666
     16663     16667     16667     16669     16667     16670     16667     16671
     16671     16673     16671     16674     16671     16675     16675     16677
     16675     16678     16675     16679     16679     16681     16679     16682
     16679     16683     16683     16685     16683     16686     16683     16687
     16611     16613     16613     16617     16613     16615     16621     16615
     16622     16615     16623     16611     16624     16611     16617     16619
     16617     16620     16617     16688     16688     16690     16688     16691
     16688     16692     16692     16694     16692     16695     16692     16696
     16696     16698     16696     16699     16696     16700     16700     16702
     16700     16703     16700     16704     16704     16706     16704     16707
     16704     16708     16708     16710     16708     16711     16708     16712
     16712     16714     16712     16715     16712     16716     16716     16718
     16716     16719     16716     16720     16720     16722     16720     16723
     16720     16724     16724     16726     16724     16727     16724     16728
     16728     16730     16728     16731     16728     16732     16732     16734
     16732     16735     16732     16736     16736     16738     16736     16739
     16736     16740     16740     16742     16740     16743     16740     16744
     16745     16746     16750     16751     16754     16755     16758     16759
     16760     16761     16762     16763     16764     16765     16766     16767
     16768     16769     16772     16773     16775     16776     16777     16778
     16779     16780     16781     16782     16789     16790     16793     16794
     16795     16796     16797     16798     16799     16800     16807     16808
     16811     16812     16815     16816     16819     16820     16823     16824
     16827     16828     16831     16832     16834     16835     16837     16838
     16841     16842     16845     16846     16849     16850     16853     16854
     16857     16858     16861     16862     16865     16866     16870     16871
     16874     16875     16878     16879     16882     16883     16886     16887
     16890     16891     16894     16895     16898     16899     16902     16903
     16906     16907     16910     16911     16914     16915     16918     16919
     16922     16923     16745     16747     16745     16748     16745     16749
     16745     16750     16750     16752     16750     16753     16750     16754
     16754     16756     16754     16757     16754     16766     16764     16768
     16766     16758     16758     16764     16758     16760     16758     16762
     16768     16770     16768     16771     16768     16772     16772     16774
     16772     16789     16772     16775     16789     16791     16789     16792
     16789     16793     16775     16777     16777     16781     16777     16779
     16785     16779     16786     16779     16787     16775     16788     16775
     16781     16783     16781     16784     16781     16807     16807     16809
     16807     16810     16807     16811     16811     16813     16811     16814
     16811     16815     16815     16817     16815     16818     16815     16819
     16819     16821     16819     16822     16819     16823     16823     16825
     16823     16826     16823     16827     16827     16829     16827     16830
     16827     16831     16831     16833     16831     16834     16834     16836
     16834     16837     16837     16839     16837     16840     16837     16841
     16841     16843     16841     16844     16841     16845     16845     16847
     16845     16848     16845     16849     16849     16851     16849     16852
     16849     16853     16853     16855     16853     16856     16853     16857
     16857     16859     16857     16860     16857     16861     16861     16863
     16861     16864     16861     16865     16865     16867     16865     16868
     16865     16869     16793     16795     16795     16799     16795     16797
     16803     16797     16804     16797     16805     16793     16806     16793
     16799     16801     16799     16802     16799     16870     16870     16872
     16870     16873     16870     16874     16874     16876     16874     16877
     16874     16878     16878     16880     16878     16881     16878     16882
     16882     16884     16882     16885     16882     16886     16886     16888
     16886     16889     16886     16890     16890     16892     16890     16893
     16890     16894     16894     16896     16894     16897     16894     16898
     16898     16900     16898     16901     16898     16902     16902     16904
     16902     16905     16902     16906     16906     16908     16906     16909
     16906     16910     16910     16912     16910     16913     16910     16914
     16914     16916     16914     16917     16914     16918     16918     16920
     16918     16921     16918     16922     16922     16924     16922     16925
     16922     16926     16927     16928     16932     16933     16936     16937
     16940     16941     16942     16943     16944     16945     16946     16947
     16948     16949     16950     16951     16954     16955     16957     16958
     16959     16960     16961     16962     16963     16964     16971     16972
     16975     16976     16977     16978     16979     16980     16981     16982
     16989     16990     16993     16994     16997     16998     17001     17002
     17005     17006     17009     17010     17013     17014     17016     17017
     17019     17020     17023     17024     17027     17028     17031     17032
     17035     17036     17039     17040     17043     17044     17047     17048
     17052     17053     17056     17057     17060     17061     17064     17065
     17068     17069     17072     17073     17076     17077     17080     17081
     17084     17085     17088     17089     17092     17093     17096     17097
     17100     17101     17104     17105     16927     16929     16927     16930
     16927     16931     16927     16932     16932     16934     16932     16935
     16932     16936     16936     16938     16936     16939     16936     16948
     16946     16950     16948     16940     16940     16946     16940     16942
     16940     16944     16950     16952     16950     16953     16950     16954
     16954     16956     16954     16971     16954     16957     16971     16973
     16971     16974     16971     16975     16957     16959     16959     16963
     16959     16961     16967     16961     16968     16961     16969     16957
     16970     16957     16963     16965     16963     16966     16963     16989
     16989     16991     16989     16992     16989     16993     16993     16995
     16993     16996     16993     16997     16997     16999     16997     17000
     16997     17001     17001     17003     17001     17004     17001     17005
     17005     17007     17005     17008     17005     17009     17009     17011
     17009     17012     17009     17013     17013     17015     17013     17016
     17016     17018     17016     17019     17019     17021     17019     17022
     17019     17023     17023     17025     17023     17026     17023     17027
     17027     17029     17027     17030     17027     17031     17031     17033
     17031     17034     17031     17035     17035     17037     17035     17038
     17035     17039     17039     17041     17039     17042     17039     17043
     17043     17045     17043     17046     17043     17047     17047     17049
     17047     17050     17047     17051     16975     16977     16977     16981
     16977     16979     16985     16979     16986     16979     16987     16975
     16988     16975     16981     16983     16981     16984     16981     17052
     17052     17054     17052     17055     17052     17056     17056     17058
     17056     17059     17056     17060     17060     17062     17060     17063
     17060     17064     17064     17066     17064     17067     17064     17068
     17068     17070     17068     17071     17068     17072     17072     17074
     17072     17075     17072     17076     17076     17078     17076     17079
     17076     17080     17080     17082     17080     17083     17080     17084
     17084     17086     17084     17087     17084     17088     17088     17090
     17088     17091     17088     17092     17092     17094     17092     17095
     17092     17096     17096     17098     17096     17099     17096     17100
     17100     17102     17100     17103     17100     17104     17104     17106
     17104     17107     17104     17108     17109     17110     17114     17115
     17118     17119     17122     17123     17124     17125     17126     17127
     17128     17129     17130     17131     17132     17133     17136     17137
     17139     17140     17141     17142     17143     17144     17145     17146
     17153     17154     17157     17158     17159     17160     17161     17162
     17163     17164     17171     17172     17175     17176     17179     17180
     17183     17184     17187     17188     17191     17192     17195     17196
     17198     17199     17201     17202     17205     17206     17209     17210
     17213     17214     17217     17218     17221     17222     17225     17226
     17229     17230     17234     17235     17238     17239     17242     17243
     17246     17247     17250     17251     17254     17255     17258     17259
     17262     17263     17266     17267     17270     17271     17274     17275
     17278     17279     17282     17283     17286     17287     17109     17111
     17109     17112     17109     17113     17109     17114     17114     17116
     17114     17117     17114     17118     17118     17120     17118     17121
     17118     17130     17128     17132     17130     17122     17122     17128
     17122     17124     17122     17126     17132     17134     17132     17135
     17132     17136     17136     17138     17136     17153     17136     17139
     17153     17155     17153     17156     17153     17157     17139     17141
     17141     17145     17141     17143     17149     17143     17150     17143
     17151     17139     17152     17139     17145     17147     17145     17148
     17145     17171     17171     17173     17171     17174     17171     17175
     17175     17177     17175     17178     17175     17179     17179     17181
     17179     17182     17179     17183     17183     17185     17183     17186
     17183     17187     17187     17189     17187     17190     17187     17191
     17191     17193     17191     17194     17191     17195     17195     17197
     17195     17198     17198     17200     17198     17201     17201     17203
     17201     17204     17201     17205     17205     17207     17205     17208
     17205     17209     17209     17211     17209     17212     17209     17213
     17213     17215     17213     17216     17213     17217     17217     17219
     17217     17220     17217     17221     17221     17223     17221     17224
     17221     17225     17225     17227     17225     17228     17225     17229
     17229     17231     17229     17232     17229     17233     17157     17159
     17159     17163     17159     17161     17167     17161     17168     17161
     17169     17157     17170     17157     17163     17165     17163     17166
     17163     17234     17234     17236     17234     17237     17234     17238
     17238     17240     17238     17241     17238     17242     17242     17244
     17242     17245     17242     17246     17246     17248     17246     17249
     17246     17250     17250     17252     17250     17253     17250     17254
     17254     17256     17254     17257     17254     17258     17258     17260
     17258     17261     17258     17262     17262     17264     17262     17265
     17262     17266     17266     17268     17266     17269     17266     17270
     17270     17272     17270     17273     17270     17274     17274     17276
     17274     17277     17274     17278     17278     17280     17278     17281
     17278     17282     17282     17284     17282     17285     17282     17286
     17286     17288     17286     17289     17286     17290     17291     17292
     17296     17297     17300     17301     17304     17305     17306     17307
     17308     17309     17310     17311     17312     17313     17314     17315
     17318     17319     17321     17322     17323     17324     17325     17326
     17327     17328     17335     17336     17339     17340     17341     17342
     17343     17344     17345     17346     17353     17354     17357     17358
     17361     17362     17365     17366     17369     17370     17373     17374
     17377     17378     17380     17381     17383     17384     17387     17388
     17391     17392     17395     17396     17399     17400     17403     17404
     17407     17408     17411     17412     17416     17417     17420     17421
     17424     17425     17428     17429     17432     17433     17436     17437
     17440     17441     17444     17445     17448     17449     17452     17453
     17456     17457     17460     17461     17464     17465     17468     17469
     17291     17293     17291     17294     17291     17295     17291     17296
     17296     17298     17296     17299     17296     17300     17300     17302
     17300     17303     17300     17312     17310     17314     17312     17304
     17304     17310     17304     17306     17304     17308     17314     17316
     17314     17317     17314     17318     17318     17320     17318     17335
     17318     17321     17335     17337     17335     17338     17335     17339
     17321     17323     17323     17327     17323     17325     17331     17325
     17332     17325     17333     17321     17334     17321     17327     17329
     17327     17330     17327     17353     17353     17355     17353     17356
     17353     17357     17357     17359     17357     17360     17357     17361
     17361     17363     17361     17364     17361     17365     17365     17367
     17365     17368     17365     17369     17369     17371     17369     17372
     17369     17373     17373     17375     17373     17376     17373     17377
     17377     17379     17377     17380     17380     17382     17380     17383
     17383     17385     17383     17386     17383     17387     17387     17389
     17387     17390     17387     17391     17391     17393     17391     17394
     17391     17395     17395     17397     17395     17398     17395     17399
     17399     17401     17399     17402     17399     17403     17403     17405
     17403     17406     17403     17407     17407     17409     17407     17410
     17407     17411     17411     17413     17411     17414     17411     17415
     17339     17341     17341     17345     17341     17343     17349     17343
     17350     17343     17351     17339     17352     17339     17345     17347
     17345     17348     17345     17416     17416     17418     17416     17419
     17416     17420     17420     17422     17420     17423     17420     17424
     17424     17426     17424     17427     17424     17428     17428     17430
     17428     17431     17428     17432     17432     17434     17432     17435
     17432     17436     17436     17438     17436     17439     17436     17440
     17440     17442     17440     17443     17440     17444     17444     17446
     17444     17447     17444     17448     17448     17450     17448     17451
     17448     17452     17452     17454     17452     17455     17452     17456
     17456     17458     17456     17459     17456     17460     17460     17462
     17460     17463     17460     17464     17464     17466     17464     17467
     17464     17468     17468     17470     17468     17471     17468     17472
     17473     17474     17478     17479     17482     17483     17486     17487
     17488     17489     17490     17491     17492     17493     17494     17495
     17496     17497     17500     17501     17503     17504     17505     17506
     17507     17508     17509     17510     17517     17518     17521     17522
     17523     17524     17525     17526     17527     17528     17535     17536
     17539     17540     17543     17544     17547     17548     17551     17552
     17555     17556     17559     17560     17562     17563     17565     17566
     17569     17570     17573     17574     17577     17578     17581     17582
     17585     17586     17589     17590     17593     17594     17598     17599
     17602     17603     17606     17607     17610     17611     17614     17615
     17618     17619     17622     17623     17626     17627     17630     17631
     17634     17635     17638     17639     17642     17643     17646     17647
     17650     17651     17473     17475     17473     17476     17473     17477
     17473     17478     17478     17480     17478     17481     17478     17482
     17482     17484     17482     17485     17482     17494     17492     17496
     17494     17486     17486     17492     17486     17488     17486     17490
     17496     17498     17496     17499     17496     17500     17500     17502
     17500     17517     17500     17503     17517     17519     17517     17520
     17517     17521     17503     17505     17505     17509     17505     17507
     17513     17507     17514     17507     17515     17503     17516     17503
     17509     17511     17509     17512     17509     17535     17535     17537
     17535     17538     17535     17539     17539     17541     17539     17542
     17539     17543     17543     17545     17543     17546     17543     17547
     17547     17549     17547     17550     17547     17551     17551     17553
     17551     17554     17551     17555     17555     17557     17555     17558
     17555     17559     17559     17561     17559     17562     17562     17564
     17562     17565     17565     17567     17565     17568     17565     17569
     17569     17571     17569     17572     17569     17573     17573     17575
     17573     17576     17573     17577     17577     17579     17577     17580
     17577     17581     17581     17583     17581     17584     17581     17585
     17585     17587     17585     17588     17585     17589     17589     17591
     17589     17592     17589     17593     17593     17595     17593     17596
     17593     17597     17521     17523     17523     17527     17523     17525
     17531     17525     17532     17525     17533     17521     17534     17521
     17527     17529     17527     17530     17527     17598     17598     17600
     17598     17601     17598     17602     17602     17604     17602     17605
     17602     17606     17606     17608     17606     17609     17606     17610
     17610     17612     17610     17613     17610     17614     17614     17616
     17614     17617     17614     17618     17618     17620     17618     17621
     17618     17622     17622     17624     17622     17625     17622     17626
     17626     17628     17626     17629     17626     17630     17630     17632
     17630     17633     17630     17634     17634     17636     17634     17637
     17634     17638     17638     17640     17638     17641     17638     17642
     17642     17644     17642     17645     17642     17646     17646     17648
     17646     17649     17646     17650     17650     17652     17650     17653
     17650     17654     17655     17656     17660     17661     17664     17665
     17668     17669     17670     17671     17672     17673     17674     17675
     17676     17677     17678     17679     17682     17683     17685     17686
     17687     17688     17689     17690     17691     17692     17699     17700
     17703     17704     17705     17706     17707     17708     17709     17710
     17717     17718     17721     17722     17725     17726     17729     17730
     17733     17734     17737     17738     17741     17742     17744     17745
     17747     17748     17751     17752     17755     17756     17759     17760
     17763     17764     17767     17768     17771     17772     17775     17776
     17780     17781     17784     17785     17788     17789     17792     17793
     17796     17797     17800     17801     17804     17805     17808     17809
     17812     17813     17816     17817     17820     17821     17824     17825
     17828     17829     17832     17833     17655     17657     17655     17658
     17655     17659     17655     17660     17660     17662     17660     17663
     17660     17664     17664     17666     17664     17667     17664     17676
     17674     17678     17676     17668     17668     17674     17668     17670
     17668     17672     17678     17680     17678     17681     17678     17682
     17682     17684     17682     17699     17682     17685     17699     17701
     17699     17702     17699     17703     17685     17687     17687     17691
     17687     17689     17695     17689     17696     17689     17697     17685
     17698     17685     17691     17693     17691     17694     17691     17717
     17717     17719     17717     17720     17717     17721     17721     17723
     17721     17724     17721     17725     17725     17727     17725     17728
     17725     17729     17729     17731     17729     17732     17729     17733
     17733     17735     17733     17736     17733     17737     17737     17739
     17737     17740     17737     17741     17741     17743     17741     17744
     17744     17746     17744     17747     17747     17749     17747     17750
     17747     17751     17751     17753     17751     17754     17751     17755
     17755     17757     17755     17758     17755     17759     17759     17761
     17759     17762     17759     17763     17763     17765     17763     17766
     17763     17767     17767     17769     17767     17770     17767     17771
     17771     17773     17771     17774     17771     17775     17775     17777
     17775     17778     17775     17779     17703     17705     17705     17709
     17705     17707     17713     17707     17714     17707     17715     17703
     17716     17703     17709     17711     17709     17712     17709     17780
     17780     17782     17780     17783     17780     17784     17784     17786
     17784     17787     17784     17788     17788     17790     17788     17791
     17788     17792     17792     17794     17792     17795     17792     17796
     17796     17798     17796     17799     17796     17800     17800     17802
     17800     17803     17800     17804     17804     17806     17804     17807
     17804     17808     17808     17810     17808     17811     17808     17812
     17812     17814     17812     17815     17812     17816     17816     17818
     17816     17819     17816     17820     17820     17822     17820     17823
     17820     17824     17824     17826     17824     17827     17824     17828
     17828     17830     17828     17831     17828     17832     17832     17834
     17832     17835     17832     17836     17837     17838     17842     17843
     17846     17847     17850     17851     17852     17853     17854     17855
     17856     17857     17858     17859     17860     17861     17864     17865
     17867     17868     17869     17870     17871     17872     17873     17874
     17881     17882     17885     17886     17887     17888     17889     17890
     17891     17892     17899     17900     17903     17904     17907     17908
     17911     17912     17915     17916     17919     17920     17923     17924
     17926     17927     17929     17930     17933     17934     17937     17938
     17941     17942     17945     17946     17949     17950     17953     17954
     17957     17958     17962     17963     17966     17967     17970     17971
     17974     17975     17978     17979     17982     17983     17986     17987
     17990     17991     17994     17995     17998     17999     18002     18003
     18006     18007     18010     18011     18014     18015     17837     17839
     17837     17840     17837     17841     17837     17842     17842     17844
     17842     17845     17842     17846     17846     17848     17846     17849
     17846     17858     17856     17860     17858     17850     17850     17856
     17850     17852     17850     17854     17860     17862     17860     17863
     17860     17864     17864     17866     17864     17881     17864     17867
     17881     17883     17881     17884     17881     17885     17867     17869
     17869     17873     17869     17871     17877     17871     17878     17871
     17879     17867     17880     17867     17873     17875     17873     17876
     17873     17899     17899     17901     17899     17902     17899     17903
     17903     17905     17903     17906     17903     17907     17907     17909
     17907     17910     17907     17911     17911     17913     17911     17914
     17911     17915     17915     17917     17915     17918     17915     17919
     17919     17921     17919     17922     17919     17923     17923     17925
     17923     17926     17926     17928     17926     17929     17929     17931
     17929     17932     17929     17933     17933     17935     17933     17936
     17933     17937     17937     17939     17937     17940     17937     17941
     17941     17943     17941     17944     17941     17945     17945     17947
     17945     17948     17945     17949     17949     17951     17949     17952
     17949     17953     17953     17955     17953     17956     17953     17957
     17957     17959     17957     17960     17957     17961     17885     17887
     17887     17891     17887     17889     17895     17889     17896     17889
     17897     17885     17898     17885     17891     17893     17891     17894
     17891     17962     17962     17964     17962     17965     17962     17966
     17966     17968     17966     17969     17966     17970     17970     17972
     17970     17973     17970     17974     17974     17976     17974     17977
     17974     17978     17978     17980     17978     17981     17978     17982
     17982     17984     17982     17985     17982     17986     17986     17988
     17986     17989     17986     17990     17990     17992     17990     17993
     17990     17994     17994     17996     17994     17997     17994     17998
     17998     18000     17998     18001     17998     18002     18002     18004
     18002     18005     18002     18006     18006     18008     18006     18009
     18006     18010     18010     18012     18010     18013     18010     18014
     18014     18016     18014     18017     18014     18018     18019     18020
     18024     18025     18028     18029     18032     18033     18034     18035
     18036     18037     18038     18039     18040     18041     18042     18043
     18046     18047     18049     18050     18051     18052     18053     18054
     18055     18056     18063     18064     18067     18068     18069     18070
     18071     18072     18073     18074     18081     18082     18085     18086
     18089     18090     18093     18094     18097     18098     18101     18102
     18105     18106     18108     18109     18111     18112     18115     18116
     18119     18120     18123     18124     18127     18128     18131     18132
     18135     18136     18139     18140     18144     18145     18148     18149
     18152     18153     18156     18157     18160     18161     18164     18165
     18168     18169     18172     18173     18176     18177     18180     18181
     18184     18185     18188     18189     18192     18193     18196     18197
     18019     18021     18019     18022     18019     18023     18019     18024
     18024     18026     18024     18027     18024     18028     18028     18030
     18028     18031     18028     18040     18038     18042     18040     18032
     18032     18038     18032     18034     18032     18036     18042     18044
     18042     18045     18042     18046     18046     18048     18046     18063
     18046     18049     18063     18065     18063     18066     18063     18067
     18049     18051     18051     18055     18051     18053     18059     18053
     18060     18053     18061     18049     18062     18049     18055     18057
     18055     18058     18055     18081     18081     18083     18081     18084
     18081     18085     18085     18087     18085     18088     18085     18089
     18089     18091     18089     18092     18089     18093     18093     18095
     18093     18096     18093     18097     18097     18099     18097     18100
     18097     18101     18101     18103     18101     18104     18101     18105
     18105     18107     18105     18108     18108     18110     18108     18111
     18111     18113     18111     18114     18111     18115     18115     18117
     18115     18118     18115     18119     18119     18121     18119     18122
     18119     18123     18123     18125     18123     18126     18123     18127
     18127     18129     18127     18130     18127     18131     18131     18133
     18131     18134     18131     18135     18135     18137     18135     18138
     18135     18139     18139     18141     18139     18142     18139     18143
     18067     18069     18069     18073     18069     18071     18077     18071
     18078     18071     18079     18067     18080     18067     18073     18075
     18073     18076     18073     18144     18144     18146     18144     18147
     18144     18148     18148     18150     18148     18151     18148     18152
     18152     18154     18152     18155     18152     18156     18156     18158
     18156     18159     18156     18160     18160     18162     18160     18163
     18160     18164     18164     18166     18164     18167     18164     18168
     18168     18170     18168     18171     18168     18172     18172     18174
     18172     18175     18172     18176     18176     18178     18176     18179
     18176     18180     18180     18182     18180     18183     18180     18184
     18184     18186     18184     18187     18184     18188     18188     18190
     18188     18191     18188     18192     18192     18194     18192     18195
     18192     18196     18196     18198     18196     18199     18196     18200
     18201     18202     18206     18207     18210     18211     18214     18215
     18216     18217     18218     18219     18220     18221     18222     18223
     18224     18225     18228     18229     18231     18232     18233     18234
     18235     18236     18237     18238     18245     18246     18249     18250
     18251     18252     18253     18254     18255     18256     18263     18264
     18267     18268     18271     18272     18275     18276     18279     18280
     18283     18284     18287     18288     18290     18291     18293     18294
     18297     18298     18301     18302     18305     18306     18309     18310
     18313     18314     18317     18318     18321     18322     18326     18327
     18330     18331     18334     18335     18338     18339     18342     18343
     18346     18347     18350     18351     18354     18355     18358     18359
     18362     18363     18366     18367     18370     18371     18374     18375
     18378     18379     18201     18203     18201     18204     18201     18205
     18201     18206     18206     18208     18206     18209     18206     18210
     18210     18212     18210     18213     18210     18222     18220     18224
     18222     18214     18214     18220     18214     18216     18214     18218
     18224     18226     18224     18227     18224     18228     18228     18230
     18228     18245     18228     18231     18245     18247     18245     18248
     18245     18249     18231     18233     18233     18237     18233     18235
     18241     18235     18242     18235     18243     18231     18244     18231
     18237     18239     18237     18240     18237     18263     18263     18265
     18263     18266     18263     18267     18267     18269     18267     18270
     18267     18271     18271     18273     18271     18274     18271     18275
     18275     18277     18275     18278     18275     18279     18279     18281
     18279     18282     18279     18283     18283     18285     18283     18286
     18283     18287     18287     18289     18287     18290     18290     18292
     18290     18293     18293     18295     18293     18296     18293     18297
     18297     18299     18297     18300     18297     18301     18301     18303
     18301     18304     18301     18305     18305     18307     18305     18308
     18305     18309     18309     18311     18309     18312     18309     18313
     18313     18315     18313     18316     18313     18317     18317     18319
     18317     18320     18317     18321     18321     18323     18321     18324
     18321     18325     18249     18251     18251     18255     18251     18253
     18259     18253     18260     18253     18261     18249     18262     18249
     18255     18257     18255     18258     18255     18326     18326     18328
     18326     18329     18326     18330     18330     18332     18330     18333
     18330     18334     18334     18336     18334     18337     18334     18338
     18338     18340     18338     18341     18338     18342     18342     18344
     18342     18345     18342     18346     18346     18348     18346     18349
     18346     18350     18350     18352     18350     18353     18350     18354
     18354     18356     18354     18357     18354     18358     18358     18360
     18358     18361     18358     18362     18362     18364     18362     18365
     18362     18366     18366     18368     18366     18369     18366     18370
     18370     18372     18370     18373     18370     18374     18374     18376
     18374     18377     18374     18378     18378     18380     18378     18381
     18378     18382     18383     18384     18388     18389     18392     18393
     18396     18397     18398     18399     18400     18401     18402     18403
     18404     18405     18406     18407     18410     18411     18413     18414
     18415     18416     18417     18418     18419     18420     18427     18428
     18431     18432     18433     18434     18435     18436     18437     18438
     18445     18446     18449     18450     18453     18454     18457     18458
     18461     18462     18465     18466     18469     18470     18472     18473
     18475     18476     18479     18480     18483     18484     18487     18488
     18491     18492     18495     18496     18499     18500     18503     18504
     18508     18509     18512     18513     18516     18517     18520     18521
     18524     18525     18528     18529     18532     18533     18536     18537
     18540     18541     18544     18545     18548     18549     18552     18553
     18556     18557     18560     18561     18383     18385     18383     18386
     18383     18387     18383     18388     18388     18390     18388     18391
     18388     18392     18392     18394     18392     18395     18392     18404
     18402     18406     18404     18396     18396     18402     18396     18398
     18396     18400     18406     18408     18406     18409     18406     18410
     18410     18412     18410     18427     18410     18413     18427     18429
     18427     18430     18427     18431     18413     18415     18415     18419
     18415     18417     18423     18417     18424     18417     18425     18413
     18426     18413     18419     18421     18419     18422     18419     18445
     18445     18447     18445     18448     18445     18449     18449     18451
     18449     18452     18449     18453     18453     18455     18453     18456
     18453     18457     18457     18459     18457     18460     18457     18461
     18461     18463     18461     18464     18461     18465     18465     18467
     18465     18468     18465     18469     18469     18471     18469     18472
     18472     18474     18472     18475     18475     18477     18475     18478
     18475     18479     18479     18481     18479     18482     18479     18483
     18483     18485     18483     18486     18483     18487     18487     18489
     18487     18490     18487     18491     18491     18493     18491     18494
     18491     18495     18495     18497     18495     18498     18495     18499
     18499     18501     18499     18502     18499     18503     18503     18505
     18503     18506     18503     18507     18431     18433     18433     18437
     18433     18435     18441     18435     18442     18435     18443     18431
     18444     18431     18437     18439     18437     18440     18437     18508
     18508     18510     18508     18511     18508     18512     18512     18514
     18512     18515     18512     18516     18516     18518     18516     18519
     18516     18520     18520     18522     18520     18523     18520     18524
     18524     18526     18524     18527     18524     18528     18528     18530
     18528     18531     18528     18532     18532     18534     18532     18535
     18532     18536     18536     18538     18536     18539     18536     18540
     18540     18542     18540     18543     18540     18544     18544     18546
     18544     18547     18544     18548     18548     18550     18548     18551
     18548     18552     18552     18554     18552     18555     18552     18556
     18556     18558     18556     18559     18556     18560     18560     18562
     18560     18563     18560     18564     18565     18566     18570     18571
     18574     18575     18578     18579     18580     18581     18582     18583
     18584     18585     18586     18587     18588     18589     18592     18593
     18595     18596     18597     18598     18599     18600     18601     18602
     18609     18610     18613     18614     18615     18616     18617     18618
     18619     18620     18627     18628     18631     18632     18635     18636
     18639     18640     18643     18644     18647     18648     18651     18652
     18654     18655     18657     18658     18661     18662     18665     18666
     18669     18670     18673     18674     18677     18678     18681     18682
     18685     18686     18690     18691     18694     18695     18698     18699
     18702     18703     18706     18707     18710     18711     18714     18715
     18718     18719     18722     18723     18726     18727     18730     18731
     18734     18735     18738     18739     18742     18743     18565     18567
     18565     18568     18565     18569     18565     18570     18570     18572
     18570     18573     18570     18574     18574     18576     18574     18577
     18574     18586     18584     18588     18586     18578     18578     18584
     18578     18580     18578     18582     18588     18590     18588     18591
     18588     18592     18592     18594     18592     18609     18592     18595
     18609     18611     18609     18612     18609     18613     18595     18597
     18597     18601     18597     18599     18605     18599     18606     18599
     18607     18595     18608     18595     18601     18603     18601     18604
     18601     18627     18627     18629     18627     18630     18627     18631
     18631     18633     18631     18634     18631     18635     18635     18637
     18635     18638     18635     18639     18639     18641     18639     18642
     18639     18643     18643     18645     18643     18646     18643     18647
     18647     18649     18647     18650     18647     18651     18651     18653
     18651     18654     18654     18656     18654     18657     18657     18659
     18657     18660     18657     18661     18661     18663     18661     18664
     18661     18665     18665     18667     18665     18668     18665     18669
     18669     18671     18669     18672     18669     18673     18673     18675
     18673     18676     18673     18677     18677     18679     18677     18680
     18677     18681     18681     18683     18681     18684     18681     18685
     18685     18687     18685     18688     18685     18689     18613     18615
     18615     18619     18615     18617     18623     18617     18624     18617
     18625     18613     18626     18613     18619     18621     18619     18622
     18619     18690     18690     18692     18690     18693     18690     18694
     18694     18696     18694     18697     18694     18698     18698     18700
     18698     18701     18698     18702     18702     18704     18702     18705
     18702     18706     18706     18708     18706     18709     18706     18710
     18710     18712     18710     18713     18710     18714     18714     18716
     18714     18717     18714     18718     18718     18720     18718     18721
     18718     18722     18722     18724     18722     18725     18722     18726
     18726     18728     18726     18729     18726     18730     18730     18732
     18730     18733     18730     18734     18734     18736     18734     18737
     18734     18738     18738     18740     18738     18741     18738     18742
     18742     18744     18742     18745     18742     18746     18747     18748
     18752     18753     18756     18757     18760     18761     18762     18763
     18764     18765     18766     18767     18768     18769     18770     18771
     18774     18775     18777     18778     18779     18780     18781     18782
     18783     18784     18791     18792     18795     18796     18797     18798
     18799     18800     18801     18802     18809     18810     18813     18814
     18817     18818     18821     18822     18825     18826     18829     18830
     18833     18834     18836     18837     18839     18840     18843     18844
     18847     18848     18851     18852     18855     18856     18859     18860
     18863     18864     18867     18868     18872     18873     18876     18877
     18880     18881     18884     18885     18888     18889     18892     18893
     18896     18897     18900     18901     18904     18905     18908     18909
     18912     18913     18916     18917     18920     18921     18924     18925
     18747     18749     18747     18750     18747     18751     18747     18752
     18752     18754     18752     18755     18752     18756     18756     18758
     18756     18759     18756     18768     18766     18770     18768     18760
     18760     18766     18760     18762     18760     18764     18770     18772
     18770     18773     18770     18774     18774     18776     18774     18791
     18774     18777     18791     18793     18791     18794     18791     18795
     18777     18779     18779     18783     18779     18781     18787     18781
     18788     18781     18789     18777     18790     18777     18783     18785
     18783     18786     18783     18809     18809     18811     18809     18812
     18809     18813     18813     18815     18813     18816     18813     18817
     18817     18819     18817     18820     18817     18821     18821     18823
     18821     18824     18821     18825     18825     18827     18825     18828
     18825     18829     18829     18831     18829     18832     18829     18833
     18833     18835     18833     18836     18836     18838     18836     18839
     18839     18841     18839     18842     18839     18843     18843     18845
     18843     18846     18843     18847     18847     18849     18847     18850
     18847     18851     18851     18853     18851     18854     18851     18855
     18855     18857     18855     18858     18855     18859     18859     18861
     18859     18862     18859     18863     18863     18865     18863     18866
     18863     18867     18867     18869     18867     18870     18867     18871
     18795     18797     18797     18801     18797     18799     18805     18799
     18806     18799     18807     18795     18808     18795     18801     18803
     18801     18804     18801     18872     18872     18874     18872     18875
     18872     18876     18876     18878     18876     18879     18876     18880
     18880     18882     18880     18883     18880     18884     18884     18886
     18884     18887     18884     18888     18888     18890     18888     18891
     18888     18892     18892     18894     18892     18895     18892     18896
     18896     18898     18896     18899     18896     18900     18900     18902
     18900     18903     18900     18904     18904     18906     18904     18907
     18904     18908     18908     18910     18908     18911     18908     18912
     18912     18914     18912     18915     18912     18916     18916     18918
     18916     18919     18916     18920     18920     18922     18920     18923
     18920     18924     18924     18926     18924     18927     18924     18928
     18929     18930     18934     18935     18938     18939     18942     18943
     18944     18945     18946     18947     18948     18949     18950     18951
     18952     18953     18956     18957     18959     18960     18961     18962
     18963     18964     18965     18966     18973     18974     18977     18978
     18979     18980     18981     18982     18983     18984     18991     18992
     18995     18996     18999     19000     19003     19004     19007     19008
     19011     19012     19015     19016     19018     19019     19021     19022
     19025     19026     19029     19030     19033     19034     19037     19038
     19041     19042     19045     19046     19049     19050     19054     19055
     19058     19059     19062     19063     19066     19067     19070     19071
     19074     19075     19078     19079     19082     19083     19086     19087
     19090     19091     19094     19095     19098     19099     19102     19103
     19106     19107     18929     18931     18929     18932     18929     18933
     18929     18934     18934     18936     18934     18937     18934     18938
     18938     18940     18938     18941     18938     18950     18948     18952
     18950     18942     18942     18948     18942     18944     18942     18946
     18952     18954     18952     18955     18952     18956     18956     18958
     18956     18973     18956     18959     18973     18975     18973     18976
     18973     18977     18959     18961     18961     18965     18961     18963
     18969     18963     18970     18963     18971     18959     18972     18959
     18965     18967     18965     18968     18965     18991     18991     18993
     18991     18994     18991     18995     18995     18997     18995     18998
     18995     18999     18999     19001     18999     19002     18999     19003
     19003     19005     19003     19006     19003     19007     19007     19009
     19007     19010     19007     19011     19011     19013     19011     19014
     19011     19015     19015     19017     19015     19018     19018     19020
     19018     19021     19021     19023     19021     19024     19021     19025
     19025     19027     19025     19028     19025     19029     19029     19031
     19029     19032     19029     19033     19033     19035     19033     19036
     19033     19037     19037     19039     19037     19040     19037     19041
     19041     19043     19041     19044     19041     19045     19045     19047
     19045     19048     19045     19049     19049     19051     19049     19052
     19049     19053     18977     18979     18979     18983     18979     18981
     18987     18981     18988     18981     18989     18977     18990     18977
     18983     18985     18983     18986     18983     19054     19054     19056
     19054     19057     19054     19058     19058     19060     19058     19061
     19058     19062     19062     19064     19062     19065     19062     19066
     19066     19068     19066     19069     19066     19070     19070     19072
     19070     19073     19070     19074     19074     19076     19074     19077
     19074     19078     19078     19080     19078     19081     19078     19082
     19082     19084     19082     19085     19082     19086     19086     19088
     19086     19089     19086     19090     19090     19092     19090     19093
     19090     19094     19094     19096     19094     19097     19094     19098
     19098     19100     19098     19101     19098     19102     19102     19104
     19102     19105     19102     19106     19106     19108     19106     19109
     19106     19110     19111     19112     19116     19117     19120     19121
     19124     19125     19126     19127     19128     19129     19130     19131
     19132     19133     19134     19135     19138     19139     19141     19142
     19143     19144     19145     19146     19147     19148     19155     19156
     19159     19160     19161     19162     19163     19164     19165     19166
     19173     19174     19177     19178     19181     19182     19185     19186
     19189     19190     19193     19194     19197     19198     19200     19201
     19203     19204     19207     19208     19211     19212     19215     19216
     19219     19220     19223     19224     19227     19228     19231     19232
     19236     19237     19240     19241     19244     19245     19248     19249
     19252     19253     19256     19257     19260     19261     19264     19265
     19268     19269     19272     19273     19276     19277     19280     19281
     19284     19285     19288     19289     19111     19113     19111     19114
     19111     19115     19111     19116     19116     19118     19116     19119
     19116     19120     19120     19122     19120     19123     19120     19132
     19130     19134     19132     19124     19124     19130     19124     19126
     19124     19128     19134     19136     19134     19137     19134     19138
     19138     19140     19138     19155     19138     19141     19155     19157
     19155     19158     19155     19159     19141     19143     19143     19147
     19143     19145     19151     19145     19152     19145     19153     19141
     19154     19141     19147     19149     19147     19150     19147     19173
     19173     19175     19173     19176     19173     19177     19177     19179
     19177     19180     19177     19181     19181     19183     19181     19184
     19181     19185     19185     19187     19185     19188     19185     19189
     19189     19191     19189     19192     19189     19193     19193     19195
     19193     19196     19193     19197     19197     19199     19197     19200
     19200     19202     19200     19203     19203     19205     19203     19206
     19203     19207     19207     19209     19207     19210     19207     19211
     19211     19213     19211     19214     19211     19215     19215     19217
     19215     19218     19215     19219     19219     19221     19219     19222
     19219     19223     19223     19225     19223     19226     19223     19227
     19227     19229     19227     19230     19227     19231     19231     19233
     19231     19234     19231     19235     19159     19161     19161     19165
     19161     19163     19169     19163     19170     19163     19171     19159
     19172     19159     19165     19167     19165     19168     19165     19236
     19236     19238     19236     19239     19236     19240     19240     19242
     19240     19243     19240     19244     19244     19246     19244     19247
     19244     19248     19248     19250     19248     19251     19248     19252
     19252     19254     19252     19255     19252     19256     19256     19258
     19256     19259     19256     19260     19260     19262     19260     19263
     19260     19264     19264     19266     19264     19267     19264     19268
     19268     19270     19268     19271     19268     19272     19272     19274
     19272     19275     19272     19276     19276     19278     19276     19279
     19276     19280     19280     19282     19280     19283     19280     19284
     19284     19286     19284     19287     19284     19288     19288     19290
     19288     19291     19288     19292     19293     19294     19298     19299
     19302     19303     19306     19307     19308     19309     19310     19311
     19312     19313     19314     19315     19316     19317     19320     19321
     19323     19324     19325     19326     19327     19328     19329     19330
     19337     19338     19341     19342     19343     19344     19345     19346
     19347     19348     19355     19356     19359     19360     19363     19364
     19367     19368     19371     19372     19375     19376     19379     19380
     19382     19383     19385     19386     19389     19390     19393     19394
     19397     19398     19401     19402     19405     19406     19409     19410
     19413     19414     19418     19419     19422     19423     19426     19427
     19430     19431     19434     19435     19438     19439     19442     19443
     19446     19447     19450     19451     19454     19455     19458     19459
     19462     19463     19466     19467     19470     19471     19293     19295
     19293     19296     19293     19297     19293     19298     19298     19300
     19298     19301     19298     19302     19302     19304     19302     19305
     19302     19314     19312     19316     19314     19306     19306     19312
     19306     19308     19306     19310     19316     19318     19316     19319
     19316     19320     19320     19322     19320     19337     19320     19323
     19337     19339     19337     19340     19337     19341     19323     19325
     19325     19329     19325     19327     19333     19327     19334     19327
     19335     19323     19336     19323     19329     19331     19329     19332
     19329     19355     19355     19357     19355     19358     19355     19359
     19359     19361     19359     19362     19359     19363     19363     19365
     19363     19366     19363     19367     19367     19369     19367     19370
     19367     19371     19371     19373     19371     19374     19371     19375
     19375     19377     19375     19378     19375     19379     19379     19381
     19379     19382     19382     19384     19382     19385     19385     19387
     19385     19388     19385     19389     19389     19391     19389     19392
     19389     19393     19393     19395     19393     19396     19393     19397
     19397     19399     19397     19400     19397     19401     19401     19403
     19401     19404     19401     19405     19405     19407     19405     19408
     19405     19409     19409     19411     19409     19412     19409     19413
     19413     19415     19413     19416     19413     19417     19341     19343
     19343     19347     19343     19345     19351     19345     19352     19345
     19353     19341     19354     19341     19347     19349     19347     19350
     19347     19418     19418     19420     19418     19421     19418     19422
     19422     19424     19422     19425     19422     19426     19426     19428
     19426     19429     19426     19430     19430     19432     19430     19433
     19430     19434     19434     19436     19434     19437     19434     19438
     19438     19440     19438     19441     19438     19442     19442     19444
     19442     19445     19442     19446     19446     19448     19446     19449
     19446     19450     19450     19452     19450     19453     19450     19454
     19454     19456     19454     19457     19454     19458     19458     19460
     19458     19461     19458     19462     19462     19464     19462     19465
     19462     19466     19466     19468     19466     19469     19466     19470
     19470     19472     19470     19473     19470     19474     19475     19476
     19480     19481     19484     19485     19488     19489     19490     19491
     19492     19493     19494     19495     19496     19497     19498     19499
     19502     19503     19505     19506     19507     19508     19509     19510
     19511     19512     19519     19520     19523     19524     19525     19526
     19527     19528     19529     19530     19537     19538     19541     19542
     19545     19546     19549     19550     19553     19554     19557     19558
     19561     19562     19564     19565     19567     19568     19571     19572
     19575     19576     19579     19580     19583     19584     19587     19588
     19591     19592     19595     19596     19600     19601     19604     19605
     19608     19609     19612     19613     19616     19617     19620     19621
     19624     19625     19628     19629     19632     19633     19636     19637
     19640     19641     19644     19645     19648     19649     19652     19653
     19475     19477     19475     19478     19475     19479     19475     19480
     19480     19482     19480     19483     19480     19484     19484     19486
     19484     19487     19484     19496     19494     19498     19496     19488
     19488     19494     19488     19490     19488     19492     19498     19500
     19498     19501     19498     19502     19502     19504     19502     19519
     19502     19505     19519     19521     19519     19522     19519     19523
     19505     19507     19507     19511     19507     19509     19515     19509
     19516     19509     19517     19505     19518     19505     19511     19513
     19511     19514     19511     19537     19537     19539     19537     19540
     19537     19541     19541     19543     19541     19544     19541     19545
     19545     19547     19545     19548     19545     19549     19549     19551
     19549     19552     19549     19553     19553     19555     19553     19556
     19553     19557     19557     19559     19557     19560     19557     19561
     19561     19563     19561     19564     19564     19566     19564     19567
     19567     19569     19567     19570     19567     19571     19571     19573
     19571     19574     19571     19575     19575     19577     19575     19578
     19575     19579     19579     19581     19579     19582     19579     19583
     19583     19585     19583     19586     19583     19587     19587     19589
     19587     19590     19587     19591     19591     19593     19591     19594
     19591     19595     19595     19597     19595     19598     19595     19599
     19523     19525     19525     19529     19525     19527     19533     19527
     19534     19527     19535     19523     19536     19523     19529     19531
     19529     19532     19529     19600     19600     19602     19600     19603
     19600     19604     19604     19606     19604     19607     19604     19608
     19608     19610     19608     19611     19608     19612     19612     19614
     19612     19615     19612     19616     19616     19618     19616     19619
     19616     19620     19620     19622     19620     19623     19620     19624
     19624     19626     19624     19627     19624     19628     19628     19630
     19628     19631     19628     19632     19632     19634     19632     19635
     19632     19636     19636     19638     19636     19639     19636     19640
     19640     19642     19640     19643     19640     19644     19644     19646
     19644     19647     19644     19648     19648     19650     19648     19651
     19648     19652     19652     19654     19652     19655     19652     19656
     19657     19658     19662     19663     19666     19667     19670     19671
     19672     19673     19674     19675     19676     19677     19678     19679
     19680     19681     19684     19685     19687     19688     19689     19690
     19691     19692     19693     19694     19701     19702     19705     19706
     19707     19708     19709     19710     19711     19712     19719     19720
     19723     19724     19727     19728     19731     19732     19735     19736
     19739     19740     19743     19744     19746     19747     19749     19750
     19753     19754     19757     19758     19761     19762     19765     19766
     19769     19770     19773     19774     19777     19778     19782     19783
     19786     19787     19790     19791     19794     19795     19798     19799
     19802     19803     19806     19807     19810     19811     19814     19815
     19818     19819     19822     19823     19826     19827     19830     19831
     19834     19835     19657     19659     19657     19660     19657     19661
     19657     19662     19662     19664     19662     19665     19662     19666
     19666     19668     19666     19669     19666     19678     19676     19680
     19678     19670     19670     19676     19670     19672     19670     19674
     19680     19682     19680     19683     19680     19684     19684     19686
     19684     19701     19684     19687     19701     19703     19701     19704
     19701     19705     19687     19689     19689     19693     19689     19691
     19697     19691     19698     19691     19699     19687     19700     19687
     19693     19695     19693     19696     19693     19719     19719     19721
     19719     19722     19719     19723     19723     19725     19723     19726
     19723     19727     19727     19729     19727     19730     19727     19731
     19731     19733     19731     19734     19731     19735     19735     19737
     19735     19738     19735     19739     19739     19741     19739     19742
     19739     19743     19743     19745     19743     19746     19746     19748
     19746     19749     19749     19751     19749     19752     19749     19753
     19753     19755     19753     19756     19753     19757     19757     19759
     19757     19760     19757     19761     19761     19763     19761     19764
     19761     19765     19765     19767     19765     19768     19765     19769
     19769     19771     19769     19772     19769     19773     19773     19775
     19773     19776     19773     19777     19777     19779     19777     19780
     19777     19781     19705     19707     19707     19711     19707     19709
     19715     19709     19716     19709     19717     19705     19718     19705
     19711     19713     19711     19714     19711     19782     19782     19784
     19782     19785     19782     19786     19786     19788     19786     19789
     19786     19790     19790     19792     19790     19793     19790     19794
     19794     19796     19794     19797     19794     19798     19798     19800
     19798     19801     19798     19802     19802     19804     19802     19805
     19802     19806     19806     19808     19806     19809     19806     19810
     19810     19812     19810     19813     19810     19814     19814     19816
     19814     19817     19814     19818     19818     19820     19818     19821
     19818     19822     19822     19824     19822     19825     19822     19826
     19826     19828     19826     19829     19826     19830     19830     19832
     19830     19833     19830     19834     19834     19836     19834     19837
     19834     19838     19839     19840     19844     19845     19848     19849
     19852     19853     19854     19855     19856     19857     19858     19859
     19860     19861     19862     19863     19866     19867     19869     19870
     19871     19872     19873     19874     19875     19876     19883     19884
     19887     19888     19889     19890     19891     19892     19893     19894
     19901     19902     19905     19906     19909     19910     19913     19914
     19917     19918     19921     19922     19925     19926     19928     19929
     19931     19932     19935     19936     19939     19940     19943     19944
     19947     19948     19951     19952     19955     19956     19959     19960
     19964     19965     19968     19969     19972     19973     19976     19977
     19980     19981     19984     19985     19988     19989     19992     19993
     19996     19997     20000     20001     20004     20005     20008     20009
     20012     20013     20016     20017     19839     19841     19839     19842
     19839     19843     19839     19844     19844     19846     19844     19847
     19844     19848     19848     19850     19848     19851     19848     19860
     19858     19862     19860     19852     19852     19858     19852     19854
     19852     19856     19862     19864     19862     19865     19862     19866
     19866     19868     19866     19883     19866     19869     19883     19885
     19883     19886     19883     19887     19869     19871     19871     19875
     19871     19873     19879     19873     19880     19873     19881     19869
     19882     19869     19875     19877     19875     19878     19875     19901
     19901     19903     19901     19904     19901     19905     19905     19907
     19905     19908     19905     19909     19909     19911     19909     19912
     19909     19913     19913     19915     19913     19916     19913     19917
     19917     19919     19917     19920     19917     19921     19921     19923
     19921     19924     19921     19925     19925     19927     19925     19928
     19928     19930     19928     19931     19931     19933     19931     19934
     19931     19935     19935     19937     19935     19938     19935     19939
     19939     19941     19939     19942     19939     19943     19943     19945
     19943     19946     19943     19947     19947     19949     19947     19950
     19947     19951     19951     19953     19951     19954     19951     19955
     19955     19957     19955     19958     19955     19959     19959     19961
     19959     19962     19959     19963     19887     19889     19889     19893
     19889     19891     19897     19891     19898     19891     19899     19887
     19900     19887     19893     19895     19893     19896     19893     19964
     19964     19966     19964     19967     19964     19968     19968     19970
     19968     19971     19968     19972     19972     19974     19972     19975
     19972     19976     19976     19978     19976     19979     19976     19980
     19980     19982     19980     19983     19980     19984     19984     19986
     19984     19987     19984     19988     19988     19990     19988     19991
     19988     19992     19992     19994     19992     19995     19992     19996
     19996     19998     19996     19999     19996     20000     20000     20002
     20000     20003     20000     20004     20004     20006     20004     20007
     20004     20008     20008     20010     20008     20011     20008     20012
     20012     20014     20012     20015     20012     20016     20016     20018
     20016     20019     20016     20020     20021     20022     20026     20027
     20030     20031     20034     20035     20036     20037     20038     20039
     20040     20041     20042     20043     20044     20045     20048     20049
     20051     20052     20053     20054     20055     20056     20057     20058
     20065     20066     20069     20070     20071     20072     20073     20074
     20075     20076     20083     20084     20087     20088     20091     20092
     20095     20096     20099     20100     20103     20104     20107     20108
     20110     20111     20113     20114     20117     20118     20121     20122
     20125     20126     20129     20130     20133     20134     20137     20138
     20141     20142     20146     20147     20150     20151     20154     20155
     20158     20159     20162     20163     20166     20167     20170     20171
     20174     20175     20178     20179     20182     20183     20186     20187
     20190     20191     20194     20195     20198     20199     20021     20023
     20021     20024     20021     20025     20021     20026     20026     20028
     20026     20029     20026     20030     20030     20032     20030     20033
     20030     20042     20040     20044     20042     20034     20034     20040
     20034     20036     20034     20038     20044     20046     20044     20047
     20044     20048     20048     20050     20048     20065     20048     20051
     20065     20067     20065     20068     20065     20069     20051     20053
     20053     20057     20053     20055     20061     20055     20062     20055
     20063     20051     20064     20051     20057     20059     20057     20060
     20057     20083     20083     20085     20083     20086     20083     20087
     20087     20089     20087     20090     20087     20091     20091     20093
     20091     20094     20091     20095     20095     20097     20095     20098
     20095     20099     20099     20101     20099     20102     20099     20103
     20103     20105     20103     20106     20103     20107     20107     20109
     20107     20110     20110     20112     20110     20113     20113     20115
     20113     20116     20113     20117     20117     20119     20117     20120
     20117     20121     20121     20123     20121     20124     20121     20125
     20125     20127     20125     20128     20125     20129     20129     20131
     20129     20132     20129     20133     20133     20135     20133     20136
     20133     20137     20137     20139     20137     20140     20137     20141
     20141     20143     20141     20144     20141     20145     20069     20071
     20071     20075     20071     20073     20079     20073     20080     20073
     20081     20069     20082     20069     20075     20077     20075     20078
     20075     20146     20146     20148     20146     20149     20146     20150
     20150     20152     20150     20153     20150     20154     20154     20156
     20154     20157     20154     20158     20158     20160     20158     20161
     20158     20162     20162     20164     20162     20165     20162     20166
     20166     20168     20166     20169     20166     20170     20170     20172
     20170     20173     20170     20174     20174     20176     20174     20177
     20174     20178     20178     20180     20178     20181     20178     20182
     20182     20184     20182     20185     20182     20186     20186     20188
     20186     20189     20186     20190     20190     20192     20190     20193
     20190     20194     20194     20196     20194     20197     20194     20198
     20198     20200     20198     20201     20198     20202     20203     20204
     20208     20209     20212     20213     20216     20217     20218     20219
     20220     20221     20222     20223     20224     20225     20226     20227
     20230     20231     20233     20234     20235     20236     20237     20238
     20239     20240     20247     20248     20251     20252     20253     20254
     20255     20256     20257     20258     20265     20266     20269     20270
     20273     20274     20277     20278     20281     20282     20285     20286
     20289     20290     20292     20293     20295     20296     20299     20300
     20303     20304     20307     20308     20311     20312     20315     20316
     20319     20320     20323     20324     20328     20329     20332     20333
     20336     20337     20340     20341     20344     20345     20348     20349
     20352     20353     20356     20357     20360     20361     20364     20365
     20368     20369     20372     20373     20376     20377     20380     20381
     20203     20205     20203     20206     20203     20207     20203     20208
     20208     20210     20208     20211     20208     20212     20212     20214
     20212     20215     20212     20224     20222     20226     20224     20216
     20216     20222     20216     20218     20216     20220     20226     20228
     20226     20229     20226     20230     20230     20232     20230     20247
     20230     20233     20247     20249     20247     20250     20247     20251
     20233     20235     20235     20239     20235     20237     20243     20237
     20244     20237     20245     20233     20246     20233     20239     20241
     20239     20242     20239     20265     20265     20267     20265     20268
     20265     20269     20269     20271     20269     20272     20269     20273
     20273     20275     20273     20276     20273     20277     20277     20279
     20277     20280     20277     20281     20281     20283     20281     20284
     20281     20285     20285     20287     20285     20288     20285     20289
     20289     20291     20289     20292     20292     20294     20292     20295
     20295     20297     20295     20298     20295     20299     20299     20301
     20299     20302     20299     20303     20303     20305     20303     20306
     20303     20307     20307     20309     20307     20310     20307     20311
     20311     20313     20311     20314     20311     20315     20315     20317
     20315     20318     20315     20319     20319     20321     20319     20322
     20319     20323     20323     20325     20323     20326     20323     20327
     20251     20253     20253     20257     20253     20255     20261     20255
     20262     20255     20263     20251     20264     20251     20257     20259
     20257     20260     20257     20328     20328     20330     20328     20331
     20328     20332     20332     20334     20332     20335     20332     20336
     20336     20338     20336     20339     20336     20340     20340     20342
     20340     20343     20340     20344     20344     20346     20344     20347
     20344     20348     20348     20350     20348     20351     20348     20352
     20352     20354     20352     20355     20352     20356     20356     20358
     20356     20359     20356     20360     20360     20362     20360     20363
     20360     20364     20364     20366     20364     20367     20364     20368
     20368     20370     20368     20371     20368     20372     20372     20374
     20372     20375     20372     20376     20376     20378     20376     20379
     20376     20380     20380     20382     20380     20383     20380     20384
     20385     20386     20390     20391     20394     20395     20398     20399
     20400     20401     20402     20403     20404     20405     20406     20407
     20408     20409     20412     20413     20415     20416     20417     20418
     20419     20420     20421     20422     20429     20430     20433     20434
     20435     20436     20437     20438     20439     20440     20447     20448
     20451     20452     20455     20456     20459     20460     20463     20464
     20467     20468     20471     20472     20474     20475     20477     20478
     20481     20482     20485     20486     20489     20490     20493     20494
     20497     20498     20501     20502     20505     20506     20510     20511
     20514     20515     20518     20519     20522     20523     20526     20527
     20530     20531     20534     20535     20538     20539     20542     20543
     20546     20547     20550     20551     20554     20555     20558     20559
     20562     20563     20385     20387     20385     20388     20385     20389
     20385     20390     20390     20392     20390     20393     20390     20394
     20394     20396     20394     20397     20394     20406     20404     20408
     20406     20398     20398     20404     20398     20400     20398     20402
     20408     20410     20408     20411     20408     20412     20412     20414
     20412     20429     20412     20415     20429     20431     20429     20432
     20429     20433     20415     20417     20417     20421     20417     20419
     20425     20419     20426     20419     20427     20415     20428     20415
     20421     20423     20421     20424     20421     20447     20447     20449
     20447     20450     20447     20451     20451     20453     20451     20454
     20451     20455     20455     20457     20455     20458     20455     20459
     20459     20461     20459     20462     20459     20463     20463     20465
     20463     20466     20463     20467     20467     20469     20467     20470
     20467     20471     20471     20473     20471     20474     20474     20476
     20474     20477     20477     20479     20477     20480     20477     20481
     20481     20483     20481     20484     20481     20485     20485     20487
     20485     20488     20485     20489     20489     20491     20489     20492
     20489     20493     20493     20495     20493     20496     20493     20497
     20497     20499     20497     20500     20497     20501     20501     20503
     20501     20504     20501     20505     20505     20507     20505     20508
     20505     20509     20433     20435     20435     20439     20435     20437
     20443     20437     20444     20437     20445     20433     20446     20433
     20439     20441     20439     20442     20439     20510     20510     20512
     20510     20513     20510     20514     20514     20516     20514     20517
     20514     20518     20518     20520     20518     20521     20518     20522
     20522     20524     20522     20525     20522     20526     20526     20528
     20526     20529     20526     20530     20530     20532     20530     20533
     20530     20534     20534     20536     20534     20537     20534     20538
     20538     20540     20538     20541     20538     20542     20542     20544
     20542     20545     20542     20546     20546     20548     20546     20549
     20546     20550     20550     20552     20550     20553     20550     20554
     20554     20556     20554     20557     20554     20558     20558     20560
     20558     20561     20558     20562     20562     20564     20562     20565
     20562     20566     20567     20568     20572     20573     20576     20577
     20580     20581     20582     20583     20584     20585     20586     20587
     20588     20589     20590     20591     20594     20595     20597     20598
     20599     20600     20601     20602     20603     20604     20611     20612
     20615     20616     20617     20618     20619     20620     20621     20622
     20629     20630     20633     20634     20637     20638     20641     20642
     20645     20646     20649     20650     20653     20654     20656     20657
     20659     20660     20663     20664     20667     20668     20671     20672
     20675     20676     20679     20680     20683     20684     20687     20688
     20692     20693     20696     20697     20700     20701     20704     20705
     20708     20709     20712     20713     20716     20717     20720     20721
     20724     20725     20728     20729     20732     20733     20736     20737
     20740     20741     20744     20745     20567     20569     20567     20570
     20567     20571     20567     20572     20572     20574     20572     20575
     20572     20576     20576     20578     20576     20579     20576     20588
     20586     20590     20588     20580     20580     20586     20580     20582
     20580     20584     20590     20592     20590     20593     20590     20594
     20594     20596     20594     20611     20594     20597     20611     20613
     20611     20614     20611     20615     20597     20599     20599     20603
     20599     20601     20607     20601     20608     20601     20609     20597
     20610     20597     20603     20605     20603     20606     20603     20629
     20629     20631     20629     20632     20629     20633     20633     20635
     20633     20636     20633     20637     20637     20639     20637     20640
     20637     20641     20641     20643     20641     20644     20641     20645
     20645     20647     20645     20648     20645     20649     20649     20651
     20649     20652     20649     20653     20653     20655     20653     20656
     20656     20658     20656     20659     20659     20661     20659     20662
     20659     20663     20663     20665     20663     20666     20663     20667
     20667     20669     20667     20670     20667     20671     20671     20673
     20671     20674     20671     20675     20675     20677     20675     20678
     20675     20679     20679     20681     20679     20682     20679     20683
     20683     20685     20683     20686     20683     20687     20687     20689
     20687     20690     20687     20691     20615     20617     20617     20621
     20617     20619     20625     20619     20626     20619     20627     20615
     20628     20615     20621     20623     20621     20624     20621     20692
     20692     20694     20692     20695     20692     20696     20696     20698
     20696     20699     20696     20700     20700     20702     20700     20703
     20700     20704     20704     20706     20704     20707     20704     20708
     20708     20710     20708     20711     20708     20712     20712     20714
     20712     20715     20712     20716     20716     20718     20716     20719
     20716     20720     20720     20722     20720     20723     20720     20724
     20724     20726     20724     20727     20724     20728     20728     20730
     20728     20731     20728     20732     20732     20734     20732     20735
     20732     20736     20736     20738     20736     20739     20736     20740
     20740     20742     20740     20743     20740     20744     20744     20746
     20744     20747     20744     20748     20749     20750     20754     20755
     20758     20759     20762     20763     20764     20765     20766     20767
     20768     20769     20770     20771     20772     20773     20776     20777
     20779     20780     20781     20782     20783     20784     20785     20786
     20793     20794     20797     20798     20799     20800     20801     20802
     20803     20804     20811     20812     20815     20816     20819     20820
     20823     20824     20827     20828     20831     20832     20835     20836
     20838     20839     20841     20842     20845     20846     20849     20850
     20853     20854     20857     20858     20861     20862     20865     20866
     20869     20870     20874     20875     20878     20879     20882     20883
     20886     20887     20890     20891     20894     20895     20898     20899
     20902     20903     20906     20907     20910     20911     20914     20915
     20918     20919     20922     20923     20926     20927     20749     20751
     20749     20752     20749     20753     20749     20754     20754     20756
     20754     20757     20754     20758     20758     20760     20758     20761
     20758     20770     20768     20772     20770     20762     20762     20768
     20762     20764     20762     20766     20772     20774     20772     20775
     20772     20776     20776     20778     20776     20793     20776     20779
     20793     20795     20793     20796     20793     20797     20779     20781
     20781     20785     20781     20783     20789     20783     20790     20783
     20791     20779     20792     20779     20785     20787     20785     20788
     20785     20811     20811     20813     20811     20814     20811     20815
     20815     20817     20815     20818     20815     20819     20819     20821
     20819     20822     20819     20823     20823     20825     20823     20826
     20823     20827     20827     20829     20827     20830     20827     20831
     20831     20833     20831     20834     20831     20835     20835     20837
     20835     20838     20838     20840     20838     20841     20841     20843
     20841     20844     20841     20845     20845     20847     20845     20848
     20845     20849     20849     20851     20849     20852     20849     20853
     20853     20855     20853     20856     20853     20857     20857     20859
     20857     20860     20857     20861     20861     20863     20861     20864
     20861     20865     20865     20867     20865     20868     20865     20869
     20869     20871     20869     20872     20869     20873     20797     20799
     20799     20803     20799     20801     20807     20801     20808     20801
     20809     20797     20810     20797     20803     20805     20803     20806
     20803     20874     20874     20876     20874     20877     20874     20878
     20878     20880     20878     20881     20878     20882     20882     20884
     20882     20885     20882     20886     20886     20888     20886     20889
     20886     20890     20890     20892     20890     20893     20890     20894
     20894     20896     20894     20897     20894     20898     20898     20900
     20898     20901     20898     20902     20902     20904     20902     20905
     20902     20906     20906     20908     20906     20909     20906     20910
     20910     20912     20910     20913     20910     20914     20914     20916
     20914     20917     20914     20918     20918     20920     20918     20921
     20918     20922     20922     20924     20922     20925     20922     20926
     20926     20928     20926     20929     20926     20930     20931     20932
     20936     20937     20940     20941     20944     20945     20946     20947
     20948     20949     20950     20951     20952     20953     20954     20955
     20958     20959     20961     20962     20963     20964     20965     20966
     20967     20968     20975     20976     20979     20980     20981     20982
     20983     20984     20985     20986     20993     20994     20997     20998
     21001     21002     21005     21006     21009     21010     21013     21014
     21017     21018     21020     21021     21023     21024     21027     21028
     21031     21032     21035     21036     21039     21040     21043     21044
     21047     21048     21051     21052     21056     21057     21060     21061
     21064     21065     21068     21069     21072     21073     21076     21077
     21080     21081     21084     21085     21088     21089     21092     21093
     21096     21097     21100     21101     21104     21105     21108     21109
     20931     20933     20931     20934     20931     20935     20931     20936
     20936     20938     20936     20939     20936     20940     20940     20942
     20940     20943     20940     20952     20950     20954     20952     20944
     20944     20950     20944     20946     20944     20948     20954     20956
     20954     20957     20954     20958     20958     20960     20958     20975
     20958     20961     20975     20977     20975     20978     20975     20979
     20961     20963     20963     20967     20963     20965     20971     20965
     20972     20965     20973     20961     20974     20961     20967     20969
     20967     20970     20967     20993     20993     20995     20993     20996
     20993     20997     20997     20999     20997     21000     20997     21001
     21001     21003     21001     21004     21001     21005     21005     21007
     21005     21008     21005     21009     21009     21011     21009     21012
     21009     21013     21013     21015     21013     21016     21013     21017
     21017     21019     21017     21020     21020     21022     21020     21023
     21023     21025     21023     21026     21023     21027     21027     21029
     21027     21030     21027     21031     21031     21033     21031     21034
     21031     21035     21035     21037     21035     21038     21035     21039
     21039     21041     21039     21042     21039     21043     21043     21045
     21043     21046     21043     21047     21047     21049     21047     21050
     21047     21051     21051     21053     21051     21054     21051     21055
     20979     20981     20981     20985     20981     20983     20989     20983
     20990     20983     20991     20979     20992     20979     20985     20987
     20985     20988     20985     21056     21056     21058     21056     21059
     21056     21060     21060     21062     21060     21063     21060     21064
     21064     21066     21064     21067     21064     21068     21068     21070
     21068     21071     21068     21072     21072     21074     21072     21075
     21072     21076     21076     21078     21076     21079     21076     21080
     21080     21082     21080     21083     21080     21084     21084     21086
     21084     21087     21084     21088     21088     21090     21088     21091
     21088     21092     21092     21094     21092     21095     21092     21096
     21096     21098     21096     21099     21096     21100     21100     21102
     21100     21103     21100     21104     21104     21106     21104     21107
     21104     21108     21108     21110     21108     21111     21108     21112
     21113     21114     21118     21119     21122     21123     21126     21127
     21128     21129     21130     21131     21132     21133     21134     21135
     21136     21137     21140     21141     21143     21144     21145     21146
     21147     21148     21149     21150     21157     21158     21161     21162
     21163     21164     21165     21166     21167     21168     21175     21176
     21179     21180     21183     21184     21187     21188     21191     21192
     21195     21196     21199     21200     21202     21203     21205     21206
     21209     21210     21213     21214     21217     21218     21221     21222
     21225     21226     21229     21230     21233     21234     21238     21239
     21242     21243     21246     21247     21250     21251     21254     21255
     21258     21259     21262     21263     21266     21267     21270     21271
     21274     21275     21278     21279     21282     21283     21286     21287
     21290     21291     21113     21115     21113     21116     21113     21117
     21113     21118     21118     21120     21118     21121     21118     21122
     21122     21124     21122     21125     21122     21134     21132     21136
     21134     21126     21126     21132     21126     21128     21126     21130
     21136     21138     21136     21139     21136     21140     21140     21142
     21140     21157     21140     21143     21157     21159     21157     21160
     21157     21161     21143     21145     21145     21149     21145     21147
     21153     21147     21154     21147     21155     21143     21156     21143
     21149     21151     21149     21152     21149     21175     21175     21177
     21175     21178     21175     21179     21179     21181     21179     21182
     21179     21183     21183     21185     21183     21186     21183     21187
     21187     21189     21187     21190     21187     21191     21191     21193
     21191     21194     21191     21195     21195     21197     21195     21198
     21195     21199     21199     21201     21199     21202     21202     21204
     21202     21205     21205     21207     21205     21208     21205     21209
     21209     21211     21209     21212     21209     21213     21213     21215
     21213     21216     21213     21217     21217     21219     21217     21220
     21217     21221     21221     21223     21221     21224     21221     21225
     21225     21227     21225     21228     21225     21229     21229     21231
     21229     21232     21229     21233     21233     21235     21233     21236
     21233     21237     21161     21163     21163     21167     21163     21165
     21171     21165     21172     21165     21173     21161     21174     21161
     21167     21169     21167     21170     21167     21238     21238     21240
     21238     21241     21238     21242     21242     21244     21242     21245
     21242     21246     21246     21248     21246     21249     21246     21250
     21250     21252     21250     21253     21250     21254     21254     21256
     21254     21257     21254     21258     21258     21260     21258     21261
     21258     21262     21262     21264     21262     21265     21262     21266
     21266     21268     21266     21269     21266     21270     21270     21272
     21270     21273     21270     21274     21274     21276     21274     21277
     21274     21278     21278     21280     21278     21281     21278     21282
     21282     21284     21282     21285     21282     21286     21286     21288
     21286     21289     21286     21290     21290     21292     21290     21293
     21290     21294     21295     21296     21300     21301     21304     21305
     21308     21309     21310     21311     21312     21313     21314     21315
     21316     21317     21318     21319     21322     21323     21325     21326
     21327     21328     21329     21330     21331     21332     21339     21340
     21343     21344     21345     21346     21347     21348     21349     21350
     21357     21358     21361     21362     21365     21366     21369     21370
     21373     21374     21377     21378     21381     21382     21384     21385
     21387     21388     21391     21392     21395     21396     21399     21400
     21403     21404     21407     21408     21411     21412     21415     21416
     21420     21421     21424     21425     21428     21429     21432     21433
     21436     21437     21440     21441     21444     21445     21448     21449
     21452     21453     21456     21457     21460     21461     21464     21465
     21468     21469     21472     21473     21295     21297     21295     21298
     21295     21299     21295     21300     21300     21302     21300     21303
     21300     21304     21304     21306     21304     21307     21304     21316
     21314     21318     21316     21308     21308     21314     21308     21310
     21308     21312     21318     21320     21318     21321     21318     21322
     21322     21324     21322     21339     21322     21325     21339     21341
     21339     21342     21339     21343     21325     21327     21327     21331
     21327     21329     21335     21329     21336     21329     21337     21325
     21338     21325     21331     21333     21331     21334     21331     21357
     21357     21359     21357     21360     21357     21361     21361     21363
     21361     21364     21361     21365     21365     21367     21365     21368
     21365     21369     21369     21371     21369     21372     21369     21373
     21373     21375     21373     21376     21373     21377     21377     21379
     21377     21380     21377     21381     21381     21383     21381     21384
     21384     21386     21384     21387     21387     21389     21387     21390
     21387     21391     21391     21393     21391     21394     21391     21395
     21395     21397     21395     21398     21395     21399     21399     21401
     21399     21402     21399     21403     21403     21405     21403     21406
     21403     21407     21407     21409     21407     21410     21407     21411
     21411     21413     21411     21414     21411     21415     21415     21417
     21415     21418     21415     21419     21343     21345     21345     21349
     21345     21347     21353     21347     21354     21347     21355     21343
     21356     21343     21349     21351     21349     21352     21349     21420
     21420     21422     21420     21423     21420     21424     21424     21426
     21424     21427     21424     21428     21428     21430     21428     21431
     21428     21432     21432     21434     21432     21435     21432     21436
     21436     21438     21436     21439     21436     21440     21440     21442
     21440     21443     21440     21444     21444     21446     21444     21447
     21444     21448     21448     21450     21448     21451     21448     21452
     21452     21454     21452     21455     21452     21456     21456     21458
     21456     21459     21456     21460     21460     21462     21460     21463
     21460     21464     21464     21466     21464     21467     21464     21468
     21468     21470     21468     21471     21468     21472     21472     21474
     21472     21475     21472     21476     21477     21478     21482     21483
     21486     21487     21490     21491     21492     21493     21494     21495
     21496     21497     21498     21499     21500     21501     21504     21505
     21507     21508     21509     21510     21511     21512     21513     21514
     21521     21522     21525     21526     21527     21528     21529     21530
     21531     21532     21539     21540     21543     21544     21547     21548
     21551     21552     21555     21556     21559     21560     21563     21564
     21566     21567     21569     21570     21573     21574     21577     21578
     21581     21582     21585     21586     21589     21590     21593     21594
     21597     21598     21602     21603     21606     21607     21610     21611
     21614     21615     21618     21619     21622     21623     21626     21627
     21630     21631     21634     21635     21638     21639     21642     21643
     21646     21647     21650     21651     21654     21655     21477     21479
     21477     21480     21477     21481     21477     21482     21482     21484
     21482     21485     21482     21486     21486     21488     21486     21489
     21486     21498     21496     21500     21498     21490     21490     21496
     21490     21492     21490     21494     21500     21502     21500     21503
     21500     21504     21504     21506     21504     21521     21504     21507
     21521     21523     21521     21524     21521     21525     21507     21509
     21509     21513     21509     21511     21517     21511     21518     21511
     21519     21507     21520     21507     21513     21515     21513     21516
     21513     21539     21539     21541     21539     21542     21539     21543
     21543     21545     21543     21546     21543     21547     21547     21549
     21547     21550     21547     21551     21551     21553     21551     21554
     21551     21555     21555     21557     21555     21558     21555     21559
     21559     21561     21559     21562     21559     21563     21563     21565
     21563     21566     21566     21568     21566     21569     21569     21571
     21569     21572     21569     21573     21573     21575     21573     21576
     21573     21577     21577     21579     21577     21580     21577     21581
     21581     21583     21581     21584     21581     21585     21585     21587
     21585     21588     21585     21589     21589     21591     21589     21592
     21589     21593     21593     21595     21593     21596     21593     21597
     21597     21599     21597     21600     21597     21601     21525     21527
     21527     21531     21527     21529     21535     21529     21536     21529
     21537     21525     21538     21525     21531     21533     21531     21534
     21531     21602     21602     21604     21602     21605     21602     21606
     21606     21608     21606     21609     21606     21610     21610     21612
     21610     21613     21610     21614     21614     21616     21614     21617
     21614     21618     21618     21620     21618     21621     21618     21622
     21622     21624     21622     21625     21622     21626     21626     21628
     21626     21629     21626     21630     21630     21632     21630     21633
     21630     21634     21634     21636     21634     21637     21634     21638
     21638     21640     21638     21641     21638     21642     21642     21644
     21642     21645     21642     21646     21646     21648     21646     21649
     21646     21650     21650     21652     21650     21653     21650     21654
     21654     21656     21654     21657     21654     21658     21659     21660
     21664     21665     21668     21669     21672     21673     21674     21675
     21676     21677     21678     21679     21680     21681     21682     21683
     21686     21687     21689     21690     21691     21692     21693     21694
     21695     21696     21703     21704     21707     21708     21709     21710
     21711     21712     21713     21714     21721     21722     21725     21726
     21729     21730     21733     21734     21737     21738     21741     21742
     21745     21746     21748     21749     21751     21752     21755     21756
     21759     21760     21763     21764     21767     21768     21771     21772
     21775     21776     21779     21780     21784     21785     21788     21789
     21792     21793     21796     21797     21800     21801     21804     21805
     21808     21809     21812     21813     21816     21817     21820     21821
     21824     21825     21828     21829     21832     21833     21836     21837
     21659     21661     21659     21662     21659     21663     21659     21664
     21664     21666     21664     21667     21664     21668     21668     21670
     21668     21671     21668     21680     21678     21682     21680     21672
     21672     21678     21672     21674     21672     21676     21682     21684
     21682     21685     21682     21686     21686     21688     21686     21703
     21686     21689     21703     21705     21703     21706     21703     21707
     21689     21691     21691     21695     21691     21693     21699     21693
     21700     21693     21701     21689     21702     21689     21695     21697
     21695     21698     21695     21721     21721     21723     21721     21724
     21721     21725     21725     21727     21725     21728     21725     21729
     21729     21731     21729     21732     21729     21733     21733     21735
     21733     21736     21733     21737     21737     21739     21737     21740
     21737     21741     21741     21743     21741     21744     21741     21745
     21745     21747     21745     21748     21748     21750     21748     21751
     21751     21753     21751     21754     21751     21755     21755     21757
     21755     21758     21755     21759     21759     21761     21759     21762
     21759     21763     21763     21765     21763     21766     21763     21767
     21767     21769     21767     21770     21767     21771     21771     21773
     21771     21774     21771     21775     21775     21777     21775     21778
     21775     21779     21779     21781     21779     21782     21779     21783
     21707     21709     21709     21713     21709     21711     21717     21711
     21718     21711     21719     21707     21720     21707     21713     21715
     21713     21716     21713     21784     21784     21786     21784     21787
     21784     21788     21788     21790     21788     21791     21788     21792
     21792     21794     21792     21795     21792     21796     21796     21798
     21796     21799     21796     21800     21800     21802     21800     21803
     21800     21804     21804     21806     21804     21807     21804     21808
     21808     21810     21808     21811     21808     21812     21812     21814
     21812     21815     21812     21816     21816     21818     21816     21819
     21816     21820     21820     21822     21820     21823     21820     21824
     21824     21826     21824     21827     21824     21828     21828     21830
     21828     21831     21828     21832     21832     21834     21832     21835
     21832     21836     21836     21838     21836     21839     21836     21840
     21841     21842     21846     21847     21850     21851     21854     21855
     21856     21857     21858     21859     21860     21861     21862     21863
     21864     21865     21868     21869     21871     21872     21873     21874
     21875     21876     21877     21878     21885     21886     21889     21890
     21891     21892     21893     21894     21895     21896     21903     21904
     21907     21908     21911     21912     21915     21916     21919     21920
     21923     21924     21927     21928     21930     21931     21933     21934
     21937     21938     21941     21942     21945     21946     21949     21950
     21953     21954     21957     21958     21961     21962     21966     21967
     21970     21971     21974     21975     21978     21979     21982     21983
     21986     21987     21990     21991     21994     21995     21998     21999
     22002     22003     22006     22007     22010     22011     22014     22015
     22018     22019     21841     21843     21841     21844     21841     21845
     21841     21846     21846     21848     21846     21849     21846     21850
     21850     21852     21850     21853     21850     21862     21860     21864
     21862     21854     21854     21860     21854     21856     21854     21858
     21864     21866     21864     21867     21864     21868     21868     21870
     21868     21885     21868     21871     21885     21887     21885     21888
     21885     21889     21871     21873     21873     21877     21873     21875
     21881     21875     21882     21875     21883     21871     21884     21871
     21877     21879     21877     21880     21877     21903     21903     21905
     21903     21906     21903     21907     21907     21909     21907     21910
     21907     21911     21911     21913     21911     21914     21911     21915
     21915     21917     21915     21918     21915     21919     21919     21921
     21919     21922     21919     21923     21923     21925     21923     21926
     21923     21927     21927     21929     21927     21930     21930     21932
     21930     21933     21933     21935     21933     21936     21933     21937
     21937     21939     21937     21940     21937     21941     21941     21943
     21941     21944     21941     21945     21945     21947     21945     21948
     21945     21949     21949     21951     21949     21952     21949     21953
     21953     21955     21953     21956     21953     21957     21957     21959
     21957     21960     21957     21961     21961     21963     21961     21964
     21961     21965     21889     21891     21891     21895     21891     21893
     21899     21893     21900     21893     21901     21889     21902     21889
     21895     21897     21895     21898     21895     21966     21966     21968
     21966     21969     21966     21970     21970     21972     21970     21973
     21970     21974     21974     21976     21974     21977     21974     21978
     21978     21980     21978     21981     21978     21982     21982     21984
     21982     21985     21982     21986     21986     21988     21986     21989
     21986     21990     21990     21992     21990     21993     21990     21994
     21994     21996     21994     21997     21994     21998     21998     22000
     21998     22001     21998     22002     22002     22004     22002     22005
     22002     22006     22006     22008     22006     22009     22006     22010
     22010     22012     22010     22013     22010     22014     22014     22016
     22014     22017     22014     22018     22018     22020     22018     22021
     22018     22022     22023     22024     22028     22029     22032     22033
     22036     22037     22038     22039     22040     22041     22042     22043
     22044     22045     22046     22047     22050     22051     22053     22054
     22055     22056     22057     22058     22059     22060     22067     22068
     22071     22072     22073     22074     22075     22076     22077     22078
     22085     22086     22089     22090     22093     22094     22097     22098
     22101     22102     22105     22106     22109     22110     22112     22113
     22115     22116     22119     22120     22123     22124     22127     22128
     22131     22132     22135     22136     22139     22140     22143     22144
     22148     22149     22152     22153     22156     22157     22160     22161
     22164     22165     22168     22169     22172     22173     22176     22177
     22180     22181     22184     22185     22188     22189     22192     22193
     22196     22197     22200     22201     22023     22025     22023     22026
     22023     22027     22023     22028     22028     22030     22028     22031
     22028     22032     22032     22034     22032     22035     22032     22044
     22042     22046     22044     22036     22036     22042     22036     22038
     22036     22040     22046     22048     22046     22049     22046     22050
     22050     22052     22050     22067     22050     22053     22067     22069
     22067     22070     22067     22071     22053     22055     22055     22059
     22055     22057     22063     22057     22064     22057     22065     22053
     22066     22053     22059     22061     22059     22062     22059     22085
     22085     22087     22085     22088     22085     22089     22089     22091
     22089     22092     22089     22093     22093     22095     22093     22096
     22093     22097     22097     22099     22097     22100     22097     22101
     22101     22103     22101     22104     22101     22105     22105     22107
     22105     22108     22105     22109     22109     22111     22109     22112
     22112     22114     22112     22115     22115     22117     22115     22118
     22115     22119     22119     22121     22119     22122     22119     22123
     22123     22125     22123     22126     22123     22127     22127     22129
     22127     22130     22127     22131     22131     22133     22131     22134
     22131     22135     22135     22137     22135     22138     22135     22139
     22139     22141     22139     22142     22139     22143     22143     22145
     22143     22146     22143     22147     22071     22073     22073     22077
     22073     22075     22081     22075     22082     22075     22083     22071
     22084     22071     22077     22079     22077     22080     22077     22148
     22148     22150     22148     22151     22148     22152     22152     22154
     22152     22155     22152     22156     22156     22158     22156     22159
     22156     22160     22160     22162     22160     22163     22160     22164
     22164     22166     22164     22167     22164     22168     22168     22170
     22168     22171     22168     22172     22172     22174     22172     22175
     22172     22176     22176     22178     22176     22179     22176     22180
     22180     22182     22180     22183     22180     22184     22184     22186
     22184     22187     22184     22188     22188     22190     22188     22191
     22188     22192     22192     22194     22192     22195     22192     22196
     22196     22198     22196     22199     22196     22200     22200     22202
     22200     22203     22200     22204     22205     22206     22210     22211
     22214     22215     22218     22219     22220     22221     22222     22223
     22224     22225     22226     22227     22228     22229     22232     22233
     22235     22236     22237     22238     22239     22240     22241     22242
     22249     22250     22253     22254     22255     22256     22257     22258
     22259     22260     22267     22268     22271     22272     22275     22276
     22279     22280     22283     22284     22287     22288     22291     22292
     22294     22295     22297     22298     22301     22302     22305     22306
     22309     22310     22313     22314     22317     22318     22321     22322
     22325     22326     22330     22331     22334     22335     22338     22339
     22342     22343     22346     22347     22350     22351     22354     22355
     22358     22359     22362     22363     22366     22367     22370     22371
     22374     22375     22378     22379     22382     22383     22205     22207
     22205     22208     22205     22209     22205     22210     22210     22212
     22210     22213     22210     22214     22214     22216     22214     22217
     22214     22226     22224     22228     22226     22218     22218     22224
     22218     22220     22218     22222     22228     22230     22228     22231
     22228     22232     22232     22234     22232     22249     22232     22235
     22249     22251     22249     22252     22249     22253     22235     22237
     22237     22241     22237     22239     22245     22239     22246     22239
     22247     22235     22248     22235     22241     22243     22241     22244
     22241     22267     22267     22269     22267     22270     22267     22271
     22271     22273     22271     22274     22271     22275     22275     22277
     22275     22278     22275     22279     22279     22281     22279     22282
     22279     22283     22283     22285     22283     22286     22283     22287
     22287     22289     22287     22290     22287     22291     22291     22293
     22291     22294     22294     22296     22294     22297     22297     22299
     22297     22300     22297     22301     22301     22303     22301     22304
     22301     22305     22305     22307     22305     22308     22305     22309
     22309     22311     22309     22312     22309     22313     22313     22315
     22313     22316     22313     22317     22317     22319     22317     22320
     22317     22321     22321     22323     22321     22324     22321     22325
     22325     22327     22325     22328     22325     22329     22253     22255
     22255     22259     22255     22257     22263     22257     22264     22257
     22265     22253     22266     22253     22259     22261     22259     22262
     22259     22330     22330     22332     22330     22333     22330     22334
     22334     22336     22334     22337     22334     22338     22338     22340
     22338     22341     22338     22342     22342     22344     22342     22345
     22342     22346     22346     22348     22346     22349     22346     22350
     22350     22352     22350     22353     22350     22354     22354     22356
     22354     22357     22354     22358     22358     22360     22358     22361
     22358     22362     22362     22364     22362     22365     22362     22366
     22366     22368     22366     22369     22366     22370     22370     22372
     22370     22373     22370     22374     22374     22376     22374     22377
     22374     22378     22378     22380     22378     22381     22378     22382
     22382     22384     22382     22385     22382     22386     22387     22388
     22392     22393     22396     22397     22400     22401     22402     22403
     22404     22405     22406     22407     22408     22409     22410     22411
     22414     22415     22417     22418     22419     22420     22421     22422
     22423     22424     22431     22432     22435     22436     22437     22438
     22439     22440     22441     22442     22449     22450     22453     22454
     22457     22458     22461     22462     22465     22466     22469     22470
     22473     22474     22476     22477     22479     22480     22483     22484
     22487     22488     22491     22492     22495     22496     22499     22500
     22503     22504     22507     22508     22512     22513     22516     22517
     22520     22521     22524     22525     22528     22529     22532     22533
     22536     22537     22540     22541     22544     22545     22548     22549
     22552     22553     22556     22557     22560     22561     22564     22565
     22387     22389     22387     22390     22387     22391     22387     22392
     22392     22394     22392     22395     22392     22396     22396     22398
     22396     22399     22396     22408     22406     22410     22408     22400
     22400     22406     22400     22402     22400     22404     22410     22412
     22410     22413     22410     22414     22414     22416     22414     22431
     22414     22417     22431     22433     22431     22434     22431     22435
     22417     22419     22419     22423     22419     22421     22427     22421
     22428     22421     22429     22417     22430     22417     22423     22425
     22423     22426     22423     22449     22449     22451     22449     22452
     22449     22453     22453     22455     22453     22456     22453     22457
     22457     22459     22457     22460     22457     22461     22461     22463
     22461     22464     22461     22465     22465     22467     22465     22468
     22465     22469     22469     22471     22469     22472     22469     22473
     22473     22475     22473     22476     22476     22478     22476     22479
     22479     22481     22479     22482     22479     22483     22483     22485
     22483     22486     22483     22487     22487     22489     22487     22490
     22487     22491     22491     22493     22491     22494     22491     22495
     22495     22497     22495     22498     22495     22499     22499     22501
     22499     22502     22499     22503     22503     22505     22503     22506
     22503     22507     22507     22509     22507     22510     22507     22511
     22435     22437     22437     22441     22437     22439     22445     22439
     22446     22439     22447     22435     22448     22435     22441     22443
     22441     22444     22441     22512     22512     22514     22512     22515
     22512     22516     22516     22518     22516     22519     22516     22520
     22520     22522     22520     22523     22520     22524     22524     22526
     22524     22527     22524     22528     22528     22530     22528     22531
     22528     22532     22532     22534     22532     22535     22532     22536
     22536     22538     22536     22539     22536     22540     22540     22542
     22540     22543     22540     22544     22544     22546     22544     22547
     22544     22548     22548     22550     22548     22551     22548     22552
     22552     22554     22552     22555     22552     22556     22556     22558
     22556     22559     22556     22560     22560     22562     22560     22563
     22560     22564     22564     22566     22564     22567     22564     22568
     22569     22570     22574     22575     22578     22579     22582     22583
     22584     22585     22586     22587     22588     22589     22590     22591
     22592     22593     22596     22597     22599     22600     22601     22602
     22603     22604     22605     22606     22613     22614     22617     22618
     22619     22620     22621     22622     22623     22624     22631     22632
     22635     22636     22639     22640     22643     22644     22647     22648
     22651     22652     22655     22656     22658     22659     22661     22662
     22665     22666     22669     22670     22673     22674     22677     22678
     22681     22682     22685     22686     22689     22690     22694     22695
     22698     22699     22702     22703     22706     22707     22710     22711
     22714     22715     22718     22719     22722     22723     22726     22727
     22730     22731     22734     22735     22738     22739     22742     22743
     22746     22747     22569     22571     22569     22572     22569     22573
     22569     22574     22574     22576     22574     22577     22574     22578
     22578     22580     22578     22581     22578     22590     22588     22592
     22590     22582     22582     22588     22582     22584     22582     22586
     22592     22594     22592     22595     22592     22596     22596     22598
     22596     22613     22596     22599     22613     22615     22613     22616
     22613     22617     22599     22601     22601     22605     22601     22603
     22609     22603     22610     22603     22611     22599     22612     22599
     22605     22607     22605     22608     22605     22631     22631     22633
     22631     22634     22631     22635     22635     22637     22635     22638
     22635     22639     22639     22641     22639     22642     22639     22643
     22643     22645     22643     22646     22643     22647     22647     22649
     22647     22650     22647     22651     22651     22653     22651     22654
     22651     22655     22655     22657     22655     22658     22658     22660
     22658     22661     22661     22663     22661     22664     22661     22665
     22665     22667     22665     22668     22665     22669     22669     22671
     22669     22672     22669     22673     22673     22675     22673     22676
     22673     22677     22677     22679     22677     22680     22677     22681
     22681     22683     22681     22684     22681     22685     22685     22687
     22685     22688     22685     22689     22689     22691     22689     22692
     22689     22693     22617     22619     22619     22623     22619     22621
     22627     22621     22628     22621     22629     22617     22630     22617
     22623     22625     22623     22626     22623     22694     22694     22696
     22694     22697     22694     22698     22698     22700     22698     22701
     22698     22702     22702     22704     22702     22705     22702     22706
     22706     22708     22706     22709     22706     22710     22710     22712
     22710     22713     22710     22714     22714     22716     22714     22717
     22714     22718     22718     22720     22718     22721     22718     22722
     22722     22724     22722     22725     22722     22726     22726     22728
     22726     22729     22726     22730     22730     22732     22730     22733
     22730     22734     22734     22736     22734     22737     22734     22738
     22738     22740     22738     22741     22738     22742     22742     22744
     22742     22745     22742     22746     22746     22748     22746     22749
     22746     22750     22751     22752     22756     22757     22760     22761
     22764     22765     22766     22767     22768     22769     22770     22771
     22772     22773     22774     22775     22778     22779     22781     22782
     22783     22784     22785     22786     22787     22788     22795     22796
     22799     22800     22801     22802     22803     22804     22805     22806
     22813     22814     22817     22818     22821     22822     22825     22826
     22829     22830     22833     22834     22837     22838     22840     22841
     22843     22844     22847     22848     22851     22852     22855     22856
     22859     22860     22863     22864     22867     22868     22871     22872
     22876     22877     22880     22881     22884     22885     22888     22889
     22892     22893     22896     22897     22900     22901     22904     22905
     22908     22909     22912     22913     22916     22917     22920     22921
     22924     22925     22928     22929     22751     22753     22751     22754
     22751     22755     22751     22756     22756     22758     22756     22759
     22756     22760     22760     22762     22760     22763     22760     22772
     22770     22774     22772     22764     22764     22770     22764     22766
     22764     22768     22774     22776     22774     22777     22774     22778
     22778     22780     22778     22795     22778     22781     22795     22797
     22795     22798     22795     22799     22781     22783     22783     22787
     22783     22785     22791     22785     22792     22785     22793     22781
     22794     22781     22787     22789     22787     22790     22787     22813
     22813     22815     22813     22816     22813     22817     22817     22819
     22817     22820     22817     22821     22821     22823     22821     22824
     22821     22825     22825     22827     22825     22828     22825     22829
     22829     22831     22829     22832     22829     22833     22833     22835
     22833     22836     22833     22837     22837     22839     22837     22840
     22840     22842     22840     22843     22843     22845     22843     22846
     22843     22847     22847     22849     22847     22850     22847     22851
     22851     22853     22851     22854     22851     22855     22855     22857
     22855     22858     22855     22859     22859     22861     22859     22862
     22859     22863     22863     22865     22863     22866     22863     22867
     22867     22869     22867     22870     22867     22871     22871     22873
     22871     22874     22871     22875     22799     22801     22801     22805
     22801     22803     22809     22803     22810     22803     22811     22799
     22812     22799     22805     22807     22805     22808     22805     22876
     22876     22878     22876     22879     22876     22880     22880     22882
     22880     22883     22880     22884     22884     22886     22884     22887
     22884     22888     22888     22890     22888     22891     22888     22892
     22892     22894     22892     22895     22892     22896     22896     22898
     22896     22899     22896     22900     22900     22902     22900     22903
     22900     22904     22904     22906     22904     22907     22904     22908
     22908     22910     22908     22911     22908     22912     22912     22914
     22912     22915     22912     22916     22916     22918     22916     22919
     22916     22920     22920     22922     22920     22923     22920     22924
     22924     22926     22924     22927     22924     22928     22928     22930
     22928     22931     22928     22932     22933     22934     22938     22939
     22942     22943     22946     22947     22948     22949     22950     22951
     22952     22953     22954     22955     22956     22957     22960     22961
     22963     22964     22965     22966     22967     22968     22969     22970
     22977     22978     22981     22982     22983     22984     22985     22986
     22987     22988     22995     22996     22999     23000     23003     23004
     23007     23008     23011     23012     23015     23016     23019     23020
     23022     23023     23025     23026     23029     23030     23033     23034
     23037     23038     23041     23042     23045     23046     23049     23050
     23053     23054     23058     23059     23062     23063     23066     23067
     23070     23071     23074     23075     23078     23079     23082     23083
     23086     23087     23090     23091     23094     23095     23098     23099
     23102     23103     23106     23107     23110     23111     22933     22935
     22933     22936     22933     22937     22933     22938     22938     22940
     22938     22941     22938     22942     22942     22944     22942     22945
     22942     22954     22952     22956     22954     22946     22946     22952
     22946     22948     22946     22950     22956     22958     22956     22959
     22956     22960     22960     22962     22960     22977     22960     22963
     22977     22979     22977     22980     22977     22981     22963     22965
     22965     22969     22965     22967     22973     22967     22974     22967
     22975     22963     22976     22963     22969     22971     22969     22972
     22969     22995     22995     22997     22995     22998     22995     22999
     22999     23001     22999     23002     22999     23003     23003     23005
     23003     23006     23003     23007     23007     23009     23007     23010
     23007     23011     23011     23013     23011     23014     23011     23015
     23015     23017     23015     23018     23015     23019     23019     23021
     23019     23022     23022     23024     23022     23025     23025     23027
     23025     23028     23025     23029     23029     23031     23029     23032
     23029     23033     23033     23035     23033     23036     23033     23037
     23037     23039     23037     23040     23037     23041     23041     23043
     23041     23044     23041     23045     23045     23047     23045     23048
     23045     23049     23049     23051     23049     23052     23049     23053
     23053     23055     23053     23056     23053     23057     22981     22983
     22983     22987     22983     22985     22991     22985     22992     22985
     22993     22981     22994     22981     22987     22989     22987     22990
     22987     23058     23058     23060     23058     23061     23058     23062
     23062     23064     23062     23065     23062     23066     23066     23068
     23066     23069     23066     23070     23070     23072     23070     23073
     23070     23074     23074     23076     23074     23077     23074     23078
     23078     23080     23078     23081     23078     23082     23082     23084
     23082     23085     23082     23086     23086     23088     23086     23089
     23086     23090     23090     23092     23090     23093     23090     23094
     23094     23096     23094     23097     23094     23098     23098     23100
     23098     23101     23098     23102     23102     23104     23102     23105
     23102     23106     23106     23108     23106     23109     23106     23110
     23110     23112     23110     23113     23110     23114     23115     23116
     23120     23121     23124     23125     23128     23129     23130     23131
     23132     23133     23134     23135     23136     23137     23138     23139
     23142     23143     23145     23146     23147     23148     23149     23150
     23151     23152     23159     23160     23163     23164     23165     23166
     23167     23168     23169     23170     23177     23178     23181     23182
     23185     23186     23189     23190     23193     23194     23197     23198
     23201     23202     23204     23205     23207     23208     23211     23212
     23215     23216     23219     23220     23223     23224     23227     23228
     23231     23232     23235     23236     23240     23241     23244     23245
     23248     23249     23252     23253     23256     23257     23260     23261
     23264     23265     23268     23269     23272     23273     23276     23277
     23280     23281     23284     23285     23288     23289     23292     23293
     23115     23117     23115     23118     23115     23119     23115     23120
     23120     23122     23120     23123     23120     23124     23124     23126
     23124     23127     23124     23136     23134     23138     23136     23128
     23128     23134     23128     23130     23128     23132     23138     23140
     23138     23141     23138     23142     23142     23144     23142     23159
     23142     23145     23159     23161     23159     23162     23159     23163
     23145     23147     23147     23151     23147     23149     23155     23149
     23156     23149     23157     23145     23158     23145     23151     23153
     23151     23154     23151     23177     23177     23179     23177     23180
     23177     23181     23181     23183     23181     23184     23181     23185
     23185     23187     23185     23188     23185     23189     23189     23191
     23189     23192     23189     23193     23193     23195     23193     23196
     23193     23197     23197     23199     23197     23200     23197     23201
     23201     23203     23201     23204     23204     23206     23204     23207
     23207     23209     23207     23210     23207     23211     23211     23213
     23211     23214     23211     23215     23215     23217     23215     23218
     23215     23219     23219     23221     23219     23222     23219     23223
     23223     23225     23223     23226     23223     23227     23227     23229
     23227     23230     23227     23231     23231     23233     23231     23234
     23231     23235     23235     23237     23235     23238     23235     23239
     23163     23165     23165     23169     23165     23167     23173     23167
     23174     23167     23175     23163     23176     23163     23169     23171
     23169     23172     23169     23240     23240     23242     23240     23243
     23240     23244     23244     23246     23244     23247     23244     23248
     23248     23250     23248     23251     23248     23252     23252     23254
     23252     23255     23252     23256     23256     23258     23256     23259
     23256     23260     23260     23262     23260     23263     23260     23264
     23264     23266     23264     23267     23264     23268     23268     23270
     23268     23271     23268     23272     23272     23274     23272     23275
     23272     23276     23276     23278     23276     23279     23276     23280
     23280     23282     23280     23283     23280     23284     23284     23286
     23284     23287     23284     23288     23288     23290     23288     23291
     23288     23292     23292     23294     23292     23295     23292     23296
     23297     23298     23302     23303     23306     23307     23310     23311
     23312     23313     23314     23315     23316     23317     23318     23319
     23320     23321     23324     23325     23327     23328     23329     23330
     23331     23332     23333     23334     23341     23342     23345     23346
     23347     23348     23349     23350     23351     23352     23359     23360
     23363     23364     23367     23368     23371     23372     23375     23376
     23379     23380     23383     23384     23386     23387     23389     23390
     23393     23394     23397     23398     23401     23402     23405     23406
     23409     23410     23413     23414     23417     23418     23422     23423
     23426     23427     23430     23431     23434     23435     23438     23439
     23442     23443     23446     23447     23450     23451     23454     23455
     23458     23459     23462     23463     23466     23467     23470     23471
     23474     23475     23297     23299     23297     23300     23297     23301
     23297     23302     23302     23304     23302     23305     23302     23306
     23306     23308     23306     23309     23306     23318     23316     23320
     23318     23310     23310     23316     23310     23312     23310     23314
     23320     23322     23320     23323     23320     23324     23324     23326
     23324     23341     23324     23327     23341     23343     23341     23344
     23341     23345     23327     23329     23329     23333     23329     23331
     23337     23331     23338     23331     23339     23327     23340     23327
     23333     23335     23333     23336     23333     23359     23359     23361
     23359     23362     23359     23363     23363     23365     23363     23366
     23363     23367     23367     23369     23367     23370     23367     23371
     23371     23373     23371     23374     23371     23375     23375     23377
     23375     23378     23375     23379     23379     23381     23379     23382
     23379     23383     23383     23385     23383     23386     23386     23388
     23386     23389     23389     23391     23389     23392     23389     23393
     23393     23395     23393     23396     23393     23397     23397     23399
     23397     23400     23397     23401     23401     23403     23401     23404
     23401     23405     23405     23407     23405     23408     23405     23409
     23409     23411     23409     23412     23409     23413     23413     23415
     23413     23416     23413     23417     23417     23419     23417     23420
     23417     23421     23345     23347     23347     23351     23347     23349
     23355     23349     23356     23349     23357     23345     23358     23345
     23351     23353     23351     23354     23351     23422     23422     23424
     23422     23425     23422     23426     23426     23428     23426     23429
     23426     23430     23430     23432     23430     23433     23430     23434
     23434     23436     23434     23437     23434     23438     23438     23440
     23438     23441     23438     23442     23442     23444     23442     23445
     23442     23446     23446     23448     23446     23449     23446     23450
     23450     23452     23450     23453     23450     23454     23454     23456
     23454     23457     23454     23458     23458     23460     23458     23461
     23458     23462     23462     23464     23462     23465     23462     23466
     23466     23468     23466     23469     23466     23470     23470     23472
     23470     23473     23470     23474     23474     23476     23474     23477
     23474     23478     23479     23480     23484     23485     23488     23489
     23492     23493     23494     23495     23496     23497     23498     23499
     23500     23501     23502     23503     23506     23507     23509     23510
     23511     23512     23513     23514     23515     23516     23523     23524
     23527     23528     23529     23530     23531     23532     23533     23534
     23541     23542     23545     23546     23549     23550     23553     23554
     23557     23558     23561     23562     23565     23566     23568     23569
     23571     23572     23575     23576     23579     23580     23583     23584
     23587     23588     23591     23592     23595     23596     23599     23600
     23604     23605     23608     23609     23612     23613     23616     23617
     23620     23621     23624     23625     23628     23629     23632     23633
     23636     23637     23640     23641     23644     23645     23648     23649
     23652     23653     23656     23657     23479     23481     23479     23482
     23479     23483     23479     23484     23484     23486     23484     23487
     23484     23488     23488     23490     23488     23491     23488     23500
     23498     23502     23500     23492     23492     23498     23492     23494
     23492     23496     23502     23504     23502     23505     23502     23506
     23506     23508     23506     23523     23506     23509     23523     23525
     23523     23526     23523     23527     23509     23511     23511     23515
     23511     23513     23519     23513     23520     23513     23521     23509
     23522     23509     23515     23517     23515     23518     23515     23541
     23541     23543     23541     23544     23541     23545     23545     23547
     23545     23548     23545     23549     23549     23551     23549     23552
     23549     23553     23553     23555     23553     23556     23553     23557
     23557     23559     23557     23560     23557     23561     23561     23563
     23561     23564     23561     23565     23565     23567     23565     23568
     23568     23570     23568     23571     23571     23573     23571     23574
     23571     23575     23575     23577     23575     23578     23575     23579
     23579     23581     23579     23582     23579     23583     23583     23585
     23583     23586     23583     23587     23587     23589     23587     23590
     23587     23591     23591     23593     23591     23594     23591     23595
     23595     23597     23595     23598     23595     23599     23599     23601
     23599     23602     23599     23603     23527     23529     23529     23533
     23529     23531     23537     23531     23538     23531     23539     23527
     23540     23527     23533     23535     23533     23536     23533     23604
     23604     23606     23604     23607     23604     23608     23608     23610
     23608     23611     23608     23612     23612     23614     23612     23615
     23612     23616     23616     23618     23616     23619     23616     23620
     23620     23622     23620     23623     23620     23624     23624     23626
     23624     23627     23624     23628     23628     23630     23628     23631
     23628     23632     23632     23634     23632     23635     23632     23636
     23636     23638     23636     23639     23636     23640     23640     23642
     23640     23643     23640     23644     23644     23646     23644     23647
     23644     23648     23648     23650     23648     23651     23648     23652
     23652     23654     23652     23655     23652     23656     23656     23658
     23656     23659     23656     23660     23661     23662     23666     23667
     23670     23671     23674     23675     23676     23677     23678     23679
     23680     23681     23682     23683     23684     23685     23688     23689
     23691     23692     23693     23694     23695     23696     23697     23698
     23705     23706     23709     23710     23711     23712     23713     23714
     23715     23716     23723     23724     23727     23728     23731     23732
     23735     23736     23739     23740     23743     23744     23747     23748
     23750     23751     23753     23754     23757     23758     23761     23762
     23765     23766     23769     23770     23773     23774     23777     23778
     23781     23782     23786     23787     23790     23791     23794     23795
     23798     23799     23802     23803     23806     23807     23810     23811
     23814     23815     23818     23819     23822     23823     23826     23827
     23830     23831     23834     23835     23838     23839     23661     23663
     23661     23664     23661     23665     23661     23666     23666     23668
     23666     23669     23666     23670     23670     23672     23670     23673
     23670     23682     23680     23684     23682     23674     23674     23680
     23674     23676     23674     23678     23684     23686     23684     23687
     23684     23688     23688     23690     23688     23705     23688     23691
     23705     23707     23705     23708     23705     23709     23691     23693
     23693     23697     23693     23695     23701     23695     23702     23695
     23703     23691     23704     23691     23697     23699     23697     23700
     23697     23723     23723     23725     23723     23726     23723     23727
     23727     23729     23727     23730     23727     23731     23731     23733
     23731     23734     23731     23735     23735     23737     23735     23738
     23735     23739     23739     23741     23739     23742     23739     23743
     23743     23745     23743     23746     23743     23747     23747     23749
     23747     23750     23750     23752     23750     23753     23753     23755
     23753     23756     23753     23757     23757     23759     23757     23760
     23757     23761     23761     23763     23761     23764     23761     23765
     23765     23767     23765     23768     23765     23769     23769     23771
     23769     23772     23769     23773     23773     23775     23773     23776
     23773     23777     23777     23779     23777     23780     23777     23781
     23781     23783     23781     23784     23781     23785     23709     23711
     23711     23715     23711     23713     23719     23713     23720     23713
     23721     23709     23722     23709     23715     23717     23715     23718
     23715     23786     23786     23788     23786     23789     23786     23790
     23790     23792     23790     23793     23790     23794     23794     23796
     23794     23797     23794     23798     23798     23800     23798     23801
     23798     23802     23802     23804     23802     23805     23802     23806
     23806     23808     23806     23809     23806     23810     23810     23812
     23810     23813     23810     23814     23814     23816     23814     23817
     23814     23818     23818     23820     23818     23821     23818     23822
     23822     23824     23822     23825     23822     23826     23826     23828
     23826     23829     23826     23830     23830     23832     23830     23833
     23830     23834     23834     23836     23834     23837     23834     23838
     23838     23840     23838     23841     23838     23842     23843     23844
     23848     23849     23852     23853     23856     23857     23858     23859
     23860     23861     23862     23863     23864     23865     23866     23867
     23870     23871     23873     23874     23875     23876     23877     23878
     23879     23880     23887     23888     23891     23892     23893     23894
     23895     23896     23897     23898     23905     23906     23909     23910
     23913     23914     23917     23918     23921     23922     23925     23926
     23929     23930     23932     23933     23935     23936     23939     23940
     23943     23944     23947     23948     23951     23952     23955     23956
     23959     23960     23963     23964     23968     23969     23972     23973
     23976     23977     23980     23981     23984     23985     23988     23989
     23992     23993     23996     23997     24000     24001     24004     24005
     24008     24009     24012     24013     24016     24017     24020     24021
     23843     23845     23843     23846     23843     23847     23843     23848
     23848     23850     23848     23851     23848     23852     23852     23854
     23852     23855     23852     23864     23862     23866     23864     23856
     23856     23862     23856     23858     23856     23860     23866     23868
     23866     23869     23866     23870     23870     23872     23870     23887
     23870     23873     23887     23889     23887     23890     23887     23891
     23873     23875     23875     23879     23875     23877     23883     23877
     23884     23877     23885     23873     23886     23873     23879     23881
     23879     23882     23879     23905     23905     23907     23905     23908
     23905     23909     23909     23911     23909     23912     23909     23913
     23913     23915     23913     23916     23913     23917     23917     23919
     23917     23920     23917     23921     23921     23923     23921     23924
     23921     23925     23925     23927     23925     23928     23925     23929
     23929     23931     23929     23932     23932     23934     23932     23935
     23935     23937     23935     23938     23935     23939     23939     23941
     23939     23942     23939     23943     23943     23945     23943     23946
     23943     23947     23947     23949     23947     23950     23947     23951
     23951     23953     23951     23954     23951     23955     23955     23957
     23955     23958     23955     23959     23959     23961     23959     23962
     23959     23963     23963     23965     23963     23966     23963     23967
     23891     23893     23893     23897     23893     23895     23901     23895
     23902     23895     23903     23891     23904     23891     23897     23899
     23897     23900     23897     23968     23968     23970     23968     23971
     23968     23972     23972     23974     23972     23975     23972     23976
     23976     23978     23976     23979     23976     23980     23980     23982
     23980     23983     23980     23984     23984     23986     23984     23987
     23984     23988     23988     23990     23988     23991     23988     23992
     23992     23994     23992     23995     23992     23996     23996     23998
     23996     23999     23996     24000     24000     24002     24000     24003
     24000     24004     24004     24006     24004     24007     24004     24008
     24008     24010     24008     24011     24008     24012     24012     24014
     24012     24015     24012     24016     24016     24018     24016     24019
     24016     24020     24020     24022     24020     24023     24020     24024
     24025     24026     24030     24031     24034     24035     24038     24039
     24040     24041     24042     24043     24044     24045     24046     24047
     24048     24049     24052     24053     24055     24056     24057     24058
     24059     24060     24061     24062     24069     24070     24073     24074
     24075     24076     24077     24078     24079     24080     24087     24088
     24091     24092     24095     24096     24099     24100     24103     24104
     24107     24108     24111     24112     24114     24115     24117     24118
     24121     24122     24125     24126     24129     24130     24133     24134
     24137     24138     24141     24142     24145     24146     24150     24151
     24154     24155     24158     24159     24162     24163     24166     24167
     24170     24171     24174     24175     24178     24179     24182     24183
     24186     24187     24190     24191     24194     24195     24198     24199
     24202     24203     24025     24027     24025     24028     24025     24029
     24025     24030     24030     24032     24030     24033     24030     24034
     24034     24036     24034     24037     24034     24046     24044     24048
     24046     24038     24038     24044     24038     24040     24038     24042
     24048     24050     24048     24051     24048     24052     24052     24054
     24052     24069     24052     24055     24069     24071     24069     24072
     24069     24073     24055     24057     24057     24061     24057     24059
     24065     24059     24066     24059     24067     24055     24068     24055
     24061     24063     24061     24064     24061     24087     24087     24089
     24087     24090     24087     24091     24091     24093     24091     24094
     24091     24095     24095     24097     24095     24098     24095     24099
     24099     24101     24099     24102     24099     24103     24103     24105
     24103     24106     24103     24107     24107     24109     24107     24110
     24107     24111     24111     24113     24111     24114     24114     24116
     24114     24117     24117     24119     24117     24120     24117     24121
     24121     24123     24121     24124     24121     24125     24125     24127
     24125     24128     24125     24129     24129     24131     24129     24132
     24129     24133     24133     24135     24133     24136     24133     24137
     24137     24139     24137     24140     24137     24141     24141     24143
     24141     24144     24141     24145     24145     24147     24145     24148
     24145     24149     24073     24075     24075     24079     24075     24077
     24083     24077     24084     24077     24085     24073     24086     24073
     24079     24081     24079     24082     24079     24150     24150     24152
     24150     24153     24150     24154     24154     24156     24154     24157
     24154     24158     24158     24160     24158     24161     24158     24162
     24162     24164     24162     24165     24162     24166     24166     24168
     24166     24169     24166     24170     24170     24172     24170     24173
     24170     24174     24174     24176     24174     24177     24174     24178
     24178     24180     24178     24181     24178     24182     24182     24184
     24182     24185     24182     24186     24186     24188     24186     24189
     24186     24190     24190     24192     24190     24193     24190     24194
     24194     24196     24194     24197     24194     24198     24198     24200
     24198     24201     24198     24202     24202     24204     24202     24205
     24202     24206     24207     24208     24212     24213     24216     24217
     24220     24221     24222     24223     24224     24225     24226     24227
     24228     24229     24230     24231     24234     24235     24237     24238
     24239     24240     24241     24242     24243     24244     24251     24252
     24255     24256     24257     24258     24259     24260     24261     24262
     24269     24270     24273     24274     24277     24278     24281     24282
     24285     24286     24289     24290     24293     24294     24296     24297
     24299     24300     24303     24304     24307     24308     24311     24312
     24315     24316     24319     24320     24323     24324     24327     24328
     24332     24333     24336     24337     24340     24341     24344     24345
     24348     24349     24352     24353     24356     24357     24360     24361
     24364     24365     24368     24369     24372     24373     24376     24377
     24380     24381     24384     24385     24207     24209     24207     24210
     24207     24211     24207     24212     24212     24214     24212     24215
     24212     24216     24216     24218     24216     24219     24216     24228
     24226     24230     24228     24220     24220     24226     24220     24222
     24220     24224     24230     24232     24230     24233     24230     24234
     24234     24236     24234     24251     24234     24237     24251     24253
     24251     24254     24251     24255     24237     24239     24239     24243
     24239     24241     24247     24241     24248     24241     24249     24237
     24250     24237     24243     24245     24243     24246     24243     24269
     24269     24271     24269     24272     24269     24273     24273     24275
     24273     24276     24273     24277     24277     24279     24277     24280
     24277     24281     24281     24283     24281     24284     24281     24285
     24285     24287     24285     24288     24285     24289     24289     24291
     24289     24292     24289     24293     24293     24295     24293     24296
     24296     24298     24296     24299     24299     24301     24299     24302
     24299     24303     24303     24305     24303     24306     24303     24307
     24307     24309     24307     24310     24307     24311     24311     24313
     24311     24314     24311     24315     24315     24317     24315     24318
     24315     24319     24319     24321     24319     24322     24319     24323
     24323     24325     24323     24326     24323     24327     24327     24329
     24327     24330     24327     24331     24255     24257     24257     24261
     24257     24259     24265     24259     24266     24259     24267     24255
     24268     24255     24261     24263     24261     24264     24261     24332
     24332     24334     24332     24335     24332     24336     24336     24338
     24336     24339     24336     24340     24340     24342     24340     24343
     24340     24344     24344     24346     24344     24347     24344     24348
     24348     24350     24348     24351     24348     24352     24352     24354
     24352     24355     24352     24356     24356     24358     24356     24359
     24356     24360     24360     24362     24360     24363     24360     24364
     24364     24366     24364     24367     24364     24368     24368     24370
     24368     24371     24368     24372     24372     24374     24372     24375
     24372     24376     24376     24378     24376     24379     24376     24380
     24380     24382     24380     24383     24380     24384     24384     24386
     24384     24387     24384     24388     24389     24390     24394     24395
     24398     24399     24402     24403     24404     24405     24406     24407
     24408     24409     24410     24411     24412     24413     24416     24417
     24419     24420     24421     24422     24423     24424     24425     24426
     24433     24434     24437     24438     24439     24440     24441     24442
     24443     24444     24451     24452     24455     24456     24459     24460
     24463     24464     24467     24468     24471     24472     24475     24476
     24478     24479     24481     24482     24485     24486     24489     24490
     24493     24494     24497     24498     24501     24502     24505     24506
     24509     24510     24514     24515     24518     24519     24522     24523
     24526     24527     24530     24531     24534     24535     24538     24539
     24542     24543     24546     24547     24550     24551     24554     24555
     24558     24559     24562     24563     24566     24567     24389     24391
     24389     24392     24389     24393     24389     24394     24394     24396
     24394     24397     24394     24398     24398     24400     24398     24401
     24398     24410     24408     24412     24410     24402     24402     24408
     24402     24404     24402     24406     24412     24414     24412     24415
     24412     24416     24416     24418     24416     24433     24416     24419
     24433     24435     24433     24436     24433     24437     24419     24421
     24421     24425     24421     24423     24429     24423     24430     24423
     24431     24419     24432     24419     24425     24427     24425     24428
     24425     24451     24451     24453     24451     24454     24451     24455
     24455     24457     24455     24458     24455     24459     24459     24461
     24459     24462     24459     24463     24463     24465     24463     24466
     24463     24467     24467     24469     24467     24470     24467     24471
     24471     24473     24471     24474     24471     24475     24475     24477
     24475     24478     24478     24480     24478     24481     24481     24483
     24481     24484     24481     24485     24485     24487     24485     24488
     24485     24489     24489     24491     24489     24492     24489     24493
     24493     24495     24493     24496     24493     24497     24497     24499
     24497     24500     24497     24501     24501     24503     24501     24504
     24501     24505     24505     24507     24505     24508     24505     24509
     24509     24511     24509     24512     24509     24513     24437     24439
     24439     24443     24439     24441     24447     24441     24448     24441
     24449     24437     24450     24437     24443     24445     24443     24446
     24443     24514     24514     24516     24514     24517     24514     24518
     24518     24520     24518     24521     24518     24522     24522     24524
     24522     24525     24522     24526     24526     24528     24526     24529
     24526     24530     24530     24532     24530     24533     24530     24534
     24534     24536     24534     24537     24534     24538     24538     24540
     24538     24541     24538     24542     24542     24544     24542     24545
     24542     24546     24546     24548     24546     24549     24546     24550
     24550     24552     24550     24553     24550     24554     24554     24556
     24554     24557     24554     24558     24558     24560     24558     24561
     24558     24562     24562     24564     24562     24565     24562     24566
     24566     24568     24566     24569     24566     24570     24571     24572
     24576     24577     24580     24581     24584     24585     24586     24587
     24588     24589     24590     24591     24592     24593     24594     24595
     24598     24599     24601     24602     24603     24604     24605     24606
     24607     24608     24615     24616     24619     24620     24621     24622
     24623     24624     24625     24626     24633     24634     24637     24638
     24641     24642     24645     24646     24649     24650     24653     24654
     24657     24658     24660     24661     24663     24664     24667     24668
     24671     24672     24675     24676     24679     24680     24683     24684
     24687     24688     24691     24692     24696     24697     24700     24701
     24704     24705     24708     24709     24712     24713     24716     24717
     24720     24721     24724     24725     24728     24729     24732     24733
     24736     24737     24740     24741     24744     24745     24748     24749
     24571     24573     24571     24574     24571     24575     24571     24576
     24576     24578     24576     24579     24576     24580     24580     24582
     24580     24583     24580     24592     24590     24594     24592     24584
     24584     24590     24584     24586     24584     24588     24594     24596
     24594     24597     24594     24598     24598     24600     24598     24615
     24598     24601     24615     24617     24615     24618     24615     24619
     24601     24603     24603     24607     24603     24605     24611     24605
     24612     24605     24613     24601     24614     24601     24607     24609
     24607     24610     24607     24633     24633     24635     24633     24636
     24633     24637     24637     24639     24637     24640     24637     24641
     24641     24643     24641     24644     24641     24645     24645     24647
     24645     24648     24645     24649     24649     24651     24649     24652
     24649     24653     24653     24655     24653     24656     24653     24657
     24657     24659     24657     24660     24660     24662     24660     24663
     24663     24665     24663     24666     24663     24667     24667     24669
     24667     24670     24667     24671     24671     24673     24671     24674
     24671     24675     24675     24677     24675     24678     24675     24679
     24679     24681     24679     24682     24679     24683     24683     24685
     24683     24686     24683     24687     24687     24689     24687     24690
     24687     24691     24691     24693     24691     24694     24691     24695
     24619     24621     24621     24625     24621     24623     24629     24623
     24630     24623     24631     24619     24632     24619     24625     24627
     24625     24628     24625     24696     24696     24698     24696     24699
     24696     24700     24700     24702     24700     24703     24700     24704
     24704     24706     24704     24707     24704     24708     24708     24710
     24708     24711     24708     24712     24712     24714     24712     24715
     24712     24716     24716     24718     24716     24719     24716     24720
     24720     24722     24720     24723     24720     24724     24724     24726
     24724     24727     24724     24728     24728     24730     24728     24731
     24728     24732     24732     24734     24732     24735     24732     24736
     24736     24738     24736     24739     24736     24740     24740     24742
     24740     24743     24740     24744     24744     24746     24744     24747
     24744     24748     24748     24750     24748     24751     24748     24752
     24753     24754     24758     24759     24762     24763     24766     24767
     24768     24769     24770     24771     24772     24773     24774     24775
     24776     24777     24780     24781     24783     24784     24785     24786
     24787     24788     24789     24790     24797     24798     24801     24802
     24803     24804     24805     24806     24807     24808     24815     24816
     24819     24820     24823     24824     24827     24828     24831     24832
     24835     24836     24839     24840     24842     24843     24845     24846
     24849     24850     24853     24854     24857     24858     24861     24862
     24865     24866     24869     24870     24873     24874     24878     24879
     24882     24883     24886     24887     24890     24891     24894     24895
     24898     24899     24902     24903     24906     24907     24910     24911
     24914     24915     24918     24919     24922     24923     24926     24927
     24930     24931     24753     24755     24753     24756     24753     24757
     24753     24758     24758     24760     24758     24761     24758     24762
     24762     24764     24762     24765     24762     24774     24772     24776
     24774     24766     24766     24772     24766     24768     24766     24770
     24776     24778     24776     24779     24776     24780     24780     24782
     24780     24797     24780     24783     24797     24799     24797     24800
     24797     24801     24783     24785     24785     24789     24785     24787
     24793     24787     24794     24787     24795     24783     24796     24783
     24789     24791     24789     24792     24789     24815     24815     24817
     24815     24818     24815     24819     24819     24821     24819     24822
     24819     24823     24823     24825     24823     24826     24823     24827
     24827     24829     24827     24830     24827     24831     24831     24833
     24831     24834     24831     24835     24835     24837     24835     24838
     24835     24839     24839     24841     24839     24842     24842     24844
     24842     24845     24845     24847     24845     24848     24845     24849
     24849     24851     24849     24852     24849     24853     24853     24855
     24853     24856     24853     24857     24857     24859     24857     24860
     24857     24861     24861     24863     24861     24864     24861     24865
     24865     24867     24865     24868     24865     24869     24869     24871
     24869     24872     24869     24873     24873     24875     24873     24876
     24873     24877     24801     24803     24803     24807     24803     24805
     24811     24805     24812     24805     24813     24801     24814     24801
     24807     24809     24807     24810     24807     24878     24878     24880
     24878     24881     24878     24882     24882     24884     24882     24885
     24882     24886     24886     24888     24886     24889     24886     24890
     24890     24892     24890     24893     24890     24894     24894     24896
     24894     24897     24894     24898     24898     24900     24898     24901
     24898     24902     24902     24904     24902     24905     24902     24906
     24906     24908     24906     24909     24906     24910     24910     24912
     24910     24913     24910     24914     24914     24916     24914     24917
     24914     24918     24918     24920     24918     24921     24918     24922
     24922     24924     24922     24925     24922     24926     24926     24928
     24926     24929     24926     24930     24930     24932     24930     24933
     24930     24934     24935     24936     24940     24941     24944     24945
     24948     24949     24950     24951     24952     24953     24954     24955
     24956     24957     24958     24959     24962     24963     24965     24966
     24967     24968     24969     24970     24971     24972     24979     24980
     24983     24984     24985     24986     24987     24988     24989     24990
     24997     24998     25001     25002     25005     25006     25009     25010
     25013     25014     25017     25018     25021     25022     25024     25025
     25027     25028     25031     25032     25035     25036     25039     25040
     25043     25044     25047     25048     25051     25052     25055     25056
     25060     25061     25064     25065     25068     25069     25072     25073
     25076     25077     25080     25081     25084     25085     25088     25089
     25092     25093     25096     25097     25100     25101     25104     25105
     25108     25109     25112     25113     24935     24937     24935     24938
     24935     24939     24935     24940     24940     24942     24940     24943
     24940     24944     24944     24946     24944     24947     24944     24956
     24954     24958     24956     24948     24948     24954     24948     24950
     24948     24952     24958     24960     24958     24961     24958     24962
     24962     24964     24962     24979     24962     24965     24979     24981
     24979     24982     24979     24983     24965     24967     24967     24971
     24967     24969     24975     24969     24976     24969     24977     24965
     24978     24965     24971     24973     24971     24974     24971     24997
     24997     24999     24997     25000     24997     25001     25001     25003
     25001     25004     25001     25005     25005     25007     25005     25008
     25005     25009     25009     25011     25009     25012     25009     25013
     25013     25015     25013     25016     25013     25017     25017     25019
     25017     25020     25017     25021     25021     25023     25021     25024
     25024     25026     25024     25027     25027     25029     25027     25030
     25027     25031     25031     25033     25031     25034     25031     25035
     25035     25037     25035     25038     25035     25039     25039     25041
     25039     25042     25039     25043     25043     25045     25043     25046
     25043     25047     25047     25049     25047     25050     25047     25051
     25051     25053     25051     25054     25051     25055     25055     25057
     25055     25058     25055     25059     24983     24985     24985     24989
     24985     24987     24993     24987     24994     24987     24995     24983
     24996     24983     24989     24991     24989     24992     24989     25060
     25060     25062     25060     25063     25060     25064     25064     25066
     25064     25067     25064     25068     25068     25070     25068     25071
     25068     25072     25072     25074     25072     25075     25072     25076
     25076     25078     25076     25079     25076     25080     25080     25082
     25080     25083     25080     25084     25084     25086     25084     25087
     25084     25088     25088     25090     25088     25091     25088     25092
     25092     25094     25092     25095     25092     25096     25096     25098
     25096     25099     25096     25100     25100     25102     25100     25103
     25100     25104     25104     25106     25104     25107     25104     25108
     25108     25110     25108     25111     25108     25112     25112     25114
     25112     25115     25112     25116     25117     25118     25122     25123
     25126     25127     25130     25131     25132     25133     25134     25135
     25136     25137     25138     25139     25140     25141     25144     25145
     25147     25148     25149     25150     25151     25152     25153     25154
     25161     25162     25165     25166     25167     25168     25169     25170
     25171     25172     25179     25180     25183     25184     25187     25188
     25191     25192     25195     25196     25199     25200     25203     25204
     25206     25207     25209     25210     25213     25214     25217     25218
     25221     25222     25225     25226     25229     25230     25233     25234
     25237     25238     25242     25243     25246     25247     25250     25251
     25254     25255     25258     25259     25262     25263     25266     25267
     25270     25271     25274     25275     25278     25279     25282     25283
     25286     25287     25290     25291     25294     25295     25117     25119
     25117     25120     25117     25121     25117     25122     25122     25124
     25122     25125     25122     25126     25126     25128     25126     25129
     25126     25138     25136     25140     25138     25130     25130     25136
     25130     25132     25130     25134     25140     25142     25140     25143
     25140     25144     25144     25146     25144     25161     25144     25147
     25161     25163     25161     25164     25161     25165     25147     25149
     25149     25153     25149     25151     25157     25151     25158     25151
     25159     25147     25160     25147     25153     25155     25153     25156
     25153     25179     25179     25181     25179     25182     25179     25183
     25183     25185     25183     25186     25183     25187     25187     25189
     25187     25190     25187     25191     25191     25193     25191     25194
     25191     25195     25195     25197     25195     25198     25195     25199
     25199     25201     25199     25202     25199     25203     25203     25205
     25203     25206     25206     25208     25206     25209     25209     25211
     25209     25212     25209     25213     25213     25215     25213     25216
     25213     25217     25217     25219     25217     25220     25217     25221
     25221     25223     25221     25224     25221     25225     25225     25227
     25225     25228     25225     25229     25229     25231     25229     25232
     25229     25233     25233     25235     25233     25236     25233     25237
     25237     25239     25237     25240     25237     25241     25165     25167
     25167     25171     25167     25169     25175     25169     25176     25169
     25177     25165     25178     25165     25171     25173     25171     25174
     25171     25242     25242     25244     25242     25245     25242     25246
     25246     25248     25246     25249     25246     25250     25250     25252
     25250     25253     25250     25254     25254     25256     25254     25257
     25254     25258     25258     25260     25258     25261     25258     25262
     25262     25264     25262     25265     25262     25266     25266     25268
     25266     25269     25266     25270     25270     25272     25270     25273
     25270     25274     25274     25276     25274     25277     25274     25278
     25278     25280     25278     25281     25278     25282     25282     25284
     25282     25285     25282     25286     25286     25288     25286     25289
     25286     25290     25290     25292     25290     25293     25290     25294
     25294     25296     25294     25297     25294     25298     25299     25300
     25304     25305     25308     25309     25312     25313     25314     25315
     25316     25317     25318     25319     25320     25321     25322     25323
     25326     25327     25329     25330     25331     25332     25333     25334
     25335     25336     25343     25344     25347     25348     25349     25350
     25351     25352     25353     25354     25361     25362     25365     25366
     25369     25370     25373     25374     25377     25378     25381     25382
     25385     25386     25388     25389     25391     25392     25395     25396
     25399     25400     25403     25404     25407     25408     25411     25412
     25415     25416     25419     25420     25424     25425     25428     25429
     25432     25433     25436     25437     25440     25441     25444     25445
     25448     25449     25452     25453     25456     25457     25460     25461
     25464     25465     25468     25469     25472     25473     25476     25477
     25299     25301     25299     25302     25299     25303     25299     25304
     25304     25306     25304     25307     25304     25308     25308     25310
     25308     25311     25308     25320     25318     25322     25320     25312
     25312     25318     25312     25314     25312     25316     25322     25324
     25322     25325     25322     25326     25326     25328     25326     25343
     25326     25329     25343     25345     25343     25346     25343     25347
     25329     25331     25331     25335     25331     25333     25339     25333
     25340     25333     25341     25329     25342     25329     25335     25337
     25335     25338     25335     25361     25361     25363     25361     25364
     25361     25365     25365     25367     25365     25368     25365     25369
     25369     25371     25369     25372     25369     25373     25373     25375
     25373     25376     25373     25377     25377     25379     25377     25380
     25377     25381     25381     25383     25381     25384     25381     25385
     25385     25387     25385     25388     25388     25390     25388     25391
     25391     25393     25391     25394     25391     25395     25395     25397
     25395     25398     25395     25399     25399     25401     25399     25402
     25399     25403     25403     25405     25403     25406     25403     25407
     25407     25409     25407     25410     25407     25411     25411     25413
     25411     25414     25411     25415     25415     25417     25415     25418
     25415     25419     25419     25421     25419     25422     25419     25423
     25347     25349     25349     25353     25349     25351     25357     25351
     25358     25351     25359     25347     25360     25347     25353     25355
     25353     25356     25353     25424     25424     25426     25424     25427
     25424     25428     25428     25430     25428     25431     25428     25432
     25432     25434     25432     25435     25432     25436     25436     25438
     25436     25439     25436     25440     25440     25442     25440     25443
     25440     25444     25444     25446     25444     25447     25444     25448
     25448     25450     25448     25451     25448     25452     25452     25454
     25452     25455     25452     25456     25456     25458     25456     25459
     25456     25460     25460     25462     25460     25463     25460     25464
     25464     25466     25464     25467     25464     25468     25468     25470
     25468     25471     25468     25472     25472     25474     25472     25475
     25472     25476     25476     25478     25476     25479     25476     25480
     25481     25482     25486     25487     25490     25491     25494     25495
     25496     25497     25498     25499     25500     25501     25502     25503
     25504     25505     25508     25509     25511     25512     25513     25514
     25515     25516     25517     25518     25525     25526     25529     25530
     25531     25532     25533     25534     25535     25536     25543     25544
     25547     25548     25551     25552     25555     25556     25559     25560
     25563     25564     25567     25568     25570     25571     25573     25574
     25577     25578     25581     25582     25585     25586     25589     25590
     25593     25594     25597     25598     25601     25602     25606     25607
     25610     25611     25614     25615     25618     25619     25622     25623
     25626     25627     25630     25631     25634     25635     25638     25639
     25642     25643     25646     25647     25650     25651     25654     25655
     25658     25659     25481     25483     25481     25484     25481     25485
     25481     25486     25486     25488     25486     25489     25486     25490
     25490     25492     25490     25493     25490     25502     25500     25504
     25502     25494     25494     25500     25494     25496     25494     25498
     25504     25506     25504     25507     25504     25508     25508     25510
     25508     25525     25508     25511     25525     25527     25525     25528
     25525     25529     25511     25513     25513     25517     25513     25515
     25521     25515     25522     25515     25523     25511     25524     25511
     25517     25519     25517     25520     25517     25543     25543     25545
     25543     25546     25543     25547     25547     25549     25547     25550
     25547     25551     25551     25553     25551     25554     25551     25555
     25555     25557     25555     25558     25555     25559     25559     25561
     25559     25562     25559     25563     25563     25565     25563     25566
     25563     25567     25567     25569     25567     25570     25570     25572
     25570     25573     25573     25575     25573     25576     25573     25577
     25577     25579     25577     25580     25577     25581     25581     25583
     25581     25584     25581     25585     25585     25587     25585     25588
     25585     25589     25589     25591     25589     25592     25589     25593
     25593     25595     25593     25596     25593     25597     25597     25599
     25597     25600     25597     25601     25601     25603     25601     25604
     25601     25605     25529     25531     25531     25535     25531     25533
     25539     25533     25540     25533     25541     25529     25542     25529
     25535     25537     25535     25538     25535     25606     25606     25608
     25606     25609     25606     25610     25610     25612     25610     25613
     25610     25614     25614     25616     25614     25617     25614     25618
     25618     25620     25618     25621     25618     25622     25622     25624
     25622     25625     25622     25626     25626     25628     25626     25629
     25626     25630     25630     25632     25630     25633     25630     25634
     25634     25636     25634     25637     25634     25638     25638     25640
     25638     25641     25638     25642     25642     25644     25642     25645
     25642     25646     25646     25648     25646     25649     25646     25650
     25650     25652     25650     25653     25650     25654     25654     25656
     25654     25657     25654     25658     25658     25660     25658     25661
     25658     25662     25663     25664     25668     25669     25672     25673
     25676     25677     25678     25679     25680     25681     25682     25683
     25684     25685     25686     25687     25690     25691     25693     25694
     25695     25696     25697     25698     25699     25700     25707     25708
     25711     25712     25713     25714     25715     25716     25717     25718
     25725     25726     25729     25730     25733     25734     25737     25738
     25741     25742     25745     25746     25749     25750     25752     25753
     25755     25756     25759     25760     25763     25764     25767     25768
     25771     25772     25775     25776     25779     25780     25783     25784
     25788     25789     25792     25793     25796     25797     25800     25801
     25804     25805     25808     25809     25812     25813     25816     25817
     25820     25821     25824     25825     25828     25829     25832     25833
     25836     25837     25840     25841     25663     25665     25663     25666
     25663     25667     25663     25668     25668     25670     25668     25671
     25668     25672     25672     25674     25672     25675     25672     25684
     25682     25686     25684     25676     25676     25682     25676     25678
     25676     25680     25686     25688     25686     25689     25686     25690
     25690     25692     25690     25707     25690     25693     25707     25709
     25707     25710     25707     25711     25693     25695     25695     25699
     25695     25697     25703     25697     25704     25697     25705     25693
     25706     25693     25699     25701     25699     25702     25699     25725
     25725     25727     25725     25728     25725     25729     25729     25731
     25729     25732     25729     25733     25733     25735     25733     25736
     25733     25737     25737     25739     25737     25740     25737     25741
     25741     25743     25741     25744     25741     25745     25745     25747
     25745     25748     25745     25749     25749     25751     25749     25752
     25752     25754     25752     25755     25755     25757     25755     25758
     25755     25759     25759     25761     25759     25762     25759     25763
     25763     25765     25763     25766     25763     25767     25767     25769
     25767     25770     25767     25771     25771     25773     25771     25774
     25771     25775     25775     25777     25775     25778     25775     25779
     25779     25781     25779     25782     25779     25783     25783     25785
     25783     25786     25783     25787     25711     25713     25713     25717
     25713     25715     25721     25715     25722     25715     25723     25711
     25724     25711     25717     25719     25717     25720     25717     25788
     25788     25790     25788     25791     25788     25792     25792     25794
     25792     25795     25792     25796     25796     25798     25796     25799
     25796     25800     25800     25802     25800     25803     25800     25804
     25804     25806     25804     25807     25804     25808     25808     25810
     25808     25811     25808     25812     25812     25814     25812     25815
     25812     25816     25816     25818     25816     25819     25816     25820
     25820     25822     25820     25823     25820     25824     25824     25826
     25824     25827     25824     25828     25828     25830     25828     25831
     25828     25832     25832     25834     25832     25835     25832     25836
     25836     25838     25836     25839     25836     25840     25840     25842
     25840     25843     25840     25844     25845     25846     25850     25851
     25854     25855     25858     25859     25860     25861     25862     25863
     25864     25865     25866     25867     25868     25869     25872     25873
     25875     25876     25877     25878     25879     25880     25881     25882
     25889     25890     25893     25894     25895     25896     25897     25898
     25899     25900     25907     25908     25911     25912     25915     25916
     25919     25920     25923     25924     25927     25928     25931     25932
     25934     25935     25937     25938     25941     25942     25945     25946
     25949     25950     25953     25954     25957     25958     25961     25962
     25965     25966     25970     25971     25974     25975     25978     25979
     25982     25983     25986     25987     25990     25991     25994     25995
     25998     25999     26002     26003     26006     26007     26010     26011
     26014     26015     26018     26019     26022     26023     25845     25847
     25845     25848     25845     25849     25845     25850     25850     25852
     25850     25853     25850     25854     25854     25856     25854     25857
     25854     25866     25864     25868     25866     25858     25858     25864
     25858     25860     25858     25862     25868     25870     25868     25871
     25868     25872     25872     25874     25872     25889     25872     25875
     25889     25891     25889     25892     25889     25893     25875     25877
     25877     25881     25877     25879     25885     25879     25886     25879
     25887     25875     25888     25875     25881     25883     25881     25884
     25881     25907     25907     25909     25907     25910     25907     25911
     25911     25913     25911     25914     25911     25915     25915     25917
     25915     25918     25915     25919     25919     25921     25919     25922
     25919     25923     25923     25925     25923     25926     25923     25927
     25927     25929     25927     25930     25927     25931     25931     25933
     25931     25934     25934     25936     25934     25937     25937     25939
     25937     25940     25937     25941     25941     25943     25941     25944
     25941     25945     25945     25947     25945     25948     25945     25949
     25949     25951     25949     25952     25949     25953     25953     25955
     25953     25956     25953     25957     25957     25959     25957     25960
     25957     25961     25961     25963     25961     25964     25961     25965
     25965     25967     25965     25968     25965     25969     25893     25895
     25895     25899     25895     25897     25903     25897     25904     25897
     25905     25893     25906     25893     25899     25901     25899     25902
     25899     25970     25970     25972     25970     25973     25970     25974
     25974     25976     25974     25977     25974     25978     25978     25980
     25978     25981     25978     25982     25982     25984     25982     25985
     25982     25986     25986     25988     25986     25989     25986     25990
     25990     25992     25990     25993     25990     25994     25994     25996
     25994     25997     25994     25998     25998     26000     25998     26001
     25998     26002     26002     26004     26002     26005     26002     26006
     26006     26008     26006     26009     26006     26010     26010     26012
     26010     26013     26010     26014     26014     26016     26014     26017
     26014     26018     26018     26020     26018     26021     26018     26022
     26022     26024     26022     26025     26022     26026     26027     26028
     26032     26033     26036     26037     26040     26041     26042     26043
     26044     26045     26046     26047     26048     26049     26050     26051
     26054     26055     26057     26058     26059     26060     26061     26062
     26063     26064     26071     26072     26075     26076     26077     26078
     26079     26080     26081     26082     26089     26090     26093     26094
     26097     26098     26101     26102     26105     26106     26109     26110
     26113     26114     26116     26117     26119     26120     26123     26124
     26127     26128     26131     26132     26135     26136     26139     26140
     26143     26144     26147     26148     26152     26153     26156     26157
     26160     26161     26164     26165     26168     26169     26172     26173
     26176     26177     26180     26181     26184     26185     26188     26189
     26192     26193     26196     26197     26200     26201     26204     26205
     26027     26029     26027     26030     26027     26031     26027     26032
     26032     26034     26032     26035     26032     26036     26036     26038
     26036     26039     26036     26048     26046     26050     26048     26040
     26040     26046     26040     26042     26040     26044     26050     26052
     26050     26053     26050     26054     26054     26056     26054     26071
     26054     26057     26071     26073     26071     26074     26071     26075
     26057     26059     26059     26063     26059     26061     26067     26061
     26068     26061     26069     26057     26070     26057     26063     26065
     26063     26066     26063     26089     26089     26091     26089     26092
     26089     26093     26093     26095     26093     26096     26093     26097
     26097     26099     26097     26100     26097     26101     26101     26103
     26101     26104     26101     26105     26105     26107     26105     26108
     26105     26109     26109     26111     26109     26112     26109     26113
     26113     26115     26113     26116     26116     26118     26116     26119
     26119     26121     26119     26122     26119     26123     26123     26125
     26123     26126     26123     26127     26127     26129     26127     26130
     26127     26131     26131     26133     26131     26134     26131     26135
     26135     26137     26135     26138     26135     26139     26139     26141
     26139     26142     26139     26143     26143     26145     26143     26146
     26143     26147     26147     26149     26147     26150     26147     26151
     26075     26077     26077     26081     26077     26079     26085     26079
     26086     26079     26087     26075     26088     26075     26081     26083
     26081     26084     26081     26152     26152     26154     26152     26155
     26152     26156     26156     26158     26156     26159     26156     26160
     26160     26162     26160     26163     26160     26164     26164     26166
     26164     26167     26164     26168     26168     26170     26168     26171
     26168     26172     26172     26174     26172     26175     26172     26176
     26176     26178     26176     26179     26176     26180     26180     26182
     26180     26183     26180     26184     26184     26186     26184     26187
     26184     26188     26188     26190     26188     26191     26188     26192
     26192     26194     26192     26195     26192     26196     26196     26198
     26196     26199     26196     26200     26200     26202     26200     26203
     26200     26204     26204     26206     26204     26207     26204     26208
     26209     26210     26209     26212     26209     26213     26209     26211
     26212     26213     26214     26215     26214     26217     26214     26218
     26214     26216     26217     26218     26219     26220     26219     26222
     26219     26223     26219     26221     26222     26223     26224     26225
     26224     26227     26224     26228     26224     26226     26227     26228
     26229     26230     26229     26232     26229     26233     26229     26231
     26232     26233     26234     26235     26234     26237     26234     26238
     26234     26236     26237     26238     26239     26240     26239     26242
     26239     26243     26239     26241     26242     26243     26244     26245
     26244     26247     26244     26248     26244     26246     26247     26248
     26249     26250     26249     26252     26249     26253     26249     26251
     26252     26253     26254     26255     26254     26257     26254     26258
     26254     26256     26257     26258     26259     26260     26259     26262
     26259     26263     26259     26261     26262     26263     26264     26265
     26264     26267     26264     26268     26264     26266     26267     26268
     26269     26270     26269     26272     26269     26273     26269     26271
     26272     26273     26274     26275     26274     26277     26274     26278
     26274     26276     26277     26278     26279     26280     26279     26282
     26279     26283     26279     26281     26282     26283     26284     26285
     26284     26287     26284     26288     26284     26286     26287     26288
     26289     26290     26289     26292     26289     26293     26289     26291
     26292     26293     26294     26295     26294     26297     26294     26298
     26294     26296     26297     26298     26299     26300     26299     26302
     26299     26303     26299     26301     26302     26303     26304     26305
     26304     26307     26304     26308     26304     26306     26307     26308
     26309     26310     26309     26312     26309     26313     26309     26311
     26312     26313     26314     26315     26314     26317     26314     26318
     26314     26316     26317     26318     26319     26320     26319     26322
     26319     26323     26319     26321     26322     26323     26324     26325
     26324     26327     26324     26328     26324     26326     26327     26328
     26329     26330     26329     26332     26329     26333     26329     26331
     26332     26333     26334     26335     26334     26337     26334     26338
     26334     26336     26337     26338     26339     26340     26339     26342
     26339     26343     26339     26341     26342     26343     26344     26345
     26344     26347     26344     26348     26344     26346     26347     26348
     26349     26350     26349     26352     26349     26353     26349     26351
     26352     26353     26354     26355     26354     26357     26354     26358
     26354     26356     26357     26358     26359     26360     26359     26362
     26359     26363     26359     26361     26362     26363     26364     26365
     26364     26367     26364     26368     26364     26366     26367     26368
     26369     26370     26369     26372     26369     26373     26369     26371
     26372     26373     26374     26375     26374     26377     26374     26378
     26374     26376     26377     26378     26379     26380     26379     26382
     26379     26383     26379     26381     26382     26383     26384     26385
     26384     26387     26384     26388     26384     26386     26387     26388
     26389     26390     26389     26392     26389     26393     26389     26391
     26392     26393     26394     26395     26394     26397     26394     26398
     26394     26396     26397     26398     26399     26400     26399     26402
     26399     26403     26399     26401     26402     26403     26404     26405
     26404     26407     26404     26408     26404     26406     26407     26408
     26409     26410     26409     26412     26409     26413     26409     26411
     26412     26413     26414     26415     26414     26417     26414     26418
     26414     26416     26417     26418     26419     26420     26419     26422
     26419     26423     26419     26421     26422     26423     26424     26425
     26424     26427     26424     26428     26424     26426     26427     26428
     26429     26430     26429     26432     26429     26433     26429     26431
     26432     26433     26434     26435     26434     26437     26434     26438
     26434     26436     26437     26438     26439     26440     26439     26442
     26439     26443     26439     26441     26442     26443     26444     26445
     26444     26447     26444     26448     26444     26446     26447     26448
     26449     26450     26449     26452     26449     26453     26449     26451
     26452     26453     26454     26455     26454     26457     26454     26458
     26454     26456     26457     26458     26459     26460     26459     26462
     26459     26463     26459     26461     26462     26463     26464     26465
     26464     26467     26464     26468     26464     26466     26467     26468
     26469     26470     26469     26472     26469     26473     26469     26471
     26472     26473     26474     26475     26474     26477     26474     26478
     26474     26476     26477     26478     26479     26480     26479     26482
     26479     26483     26479     26481     26482     26483     26484     26485
     26484     26487     26484     26488     26484     26486     26487     26488
     26489     26490     26489     26492     26489     26493     26489     26491
     26492     26493     26494     26495     26494     26497     26494     26498
     26494     26496     26497     26498     26499     26500     26499     26502
     26499     26503     26499     26501     26502     26503     26504     26505
     26504     26507     26504     26508     26504     26506     26507     26508
     26509     26510     26509     26512     26509     26513     26509     26511
     26512     26513     26514     26515     26514     26517     26514     26518
     26514     26516     26517     26518     26519     26520     26519     26522
     26519     26523     26519     26521     26522     26523     26524     26525
     26524     26527     26524     26528     26524     26526     26527     26528
     26529     26530     26529     26532     26529     26533     26529     26531
     26532     26533     26534     26535     26534     26537     26534     26538
     26534     26536     26537     26538     26539     26540     26539     26542
     26539     26543     26539     26541     26542     26543     26544     26545
     26544     26547     26544     26548     26544     26546     26547     26548
     26549     26550     26549     26552     26549     26553     26549     26551
     26552     26553     26554     26555     26554     26557     26554     26558
     26554     26556     26557     26558     26559     26560     26559     26562
     26559     26563     26559     26561     26562     26563     26564     26565
     26564     26567     26564     26568     26564     26566     26567     26568
     26569     26570     26569     26572     26569     26573     26569     26571
     26572     26573     26574     26575     26574     26577     26574     26578
     26574     26576     26577     26578     26579     26580     26579     26582
     26579     26583     26579     26581     26582     26583     26584     26585
     26584     26587     26584     26588     26584     26586     26587     26588
     26589     26590     26589     26592     26589     26593     26589     26591
     26592     26593     26594     26595     26594     26597     26594     26598
     26594     26596     26597     26598     26599     26600     26599     26602
     26599     26603     26599     26601     26602     26603     26604     26605
     26604     26607     26604     26608     26604     26606     26607     26608
     26609     26610     26609     26612     26609     26613     26609     26611
     26612     26613     26614     26615     26614     26617     26614     26618
     26614     26616     26617     26618     26619     26620     26619     26622
     26619     26623     26619     26621     26622     26623     26624     26625
     26624     26627     26624     26628     26624     26626     26627     26628
     26629     26630     26629     26632     26629     26633     26629     26631
     26632     26633     26634     26635     26634     26637     26634     26638
     26634     26636     26637     26638     26639     26640     26639     26642
     26639     26643     26639     26641     26642     26643     26644     26645
     26644     26647     26644     26648     26644     26646     26647     26648
     26649     26650     26649     26652     26649     26653     26649     26651
     26652     26653     26654     26655     26654     26657     26654     26658
     26654     26656     26657     26658     26659     26660     26659     26662
     26659     26663     26659     26661     26662     26663     26664     26665
     26664     26667     26664     26668     26664     26666     26667     26668
     26669     26670     26669     26672     26669     26673     26669     26671
     26672     26673     26674     26675     26674     26677     26674     26678
     26674     26676     26677     26678     26679     26680     26679     26682
     26679     26683     26679     26681     26682     26683     26684     26685
     26684     26687     26684     26688     26684     26686     26687     26688
     26689     26690     26689     26692     26689     26693     26689     26691
     26692     26693     26694     26695     26694     26697     26694     26698
     26694     26696     26697     26698     26699     26700     26699     26702
     26699     26703     26699     26701     26702     26703     26704     26705
     26704     26707     26704     26708     26704     26706     26707     26708
     26709     26710     26709     26712     26709     26713     26709     26711
     26712     26713     26714     26715     26714     26717     26714     26718
     26714     26716     26717     26718     26719     26720     26719     26722
     26719     26723     26719     26721     26722     26723     26724     26725
     26724     26727     26724     26728     26724     26726     26727     26728
     26729     26730     26729     26732     26729     26733     26729     26731
     26732     26733     26734     26735     26734     26737     26734     26738
     26734     26736     26737     26738     26739     26740     26739     26742
     26739     26743     26739     26741     26742     26743     26744     26745
     26744     26747     26744     26748     26744     26746     26747     26748
     26749     26750     26749     26752     26749     26753     26749     26751
     26752     26753     26754     26755     26754     26757     26754     26758
     26754     26756     26757     26758     26759     26760     26759     26762
     26759     26763     26759     26761     26762     26763     26764     26765
     26764     26767     26764     26768     26764     26766     26767     26768
     26769     26770     26769     26772     26769     26773     26769     26771
     26772     26773     26774     26775     26774     26777     26774     26778
     26774     26776     26777     26778     26779     26780     26779     26782
     26779     26783     26779     26781     26782     26783     26784     26785
     26784     26787     26784     26788     26784     26786     26787     26788
     26789     26790     26789     26792     26789     26793     26789     26791
     26792     26793     26794     26795     26794     26797     26794     26798
     26794     26796     26797     26798     26799     26800     26799     26802
     26799     26803     26799     26801     26802     26803     26804     26805
     26804     26807     26804     26808     26804     26806     26807     26808
     26809     26810     26809     26812     26809     26813     26809     26811
     26812     26813     26814     26815     26814     26817     26814     26818
     26814     26816     26817     26818     26819     26820     26819     26822
     26819     26823     26819     26821     26822     26823     26824     26825
     26824     26827     26824     26828     26824     26826     26827     26828
     26829     26830     26829     26832     26829     26833     26829     26831
     26832     26833     26834     26835     26834     26837     26834     26838
     26834     26836     26837     26838     26839     26840     26839     26842
     26839     26843     26839     26841     26842     26843     26844     26845
     26844     26847     26844     26848     26844     26846     26847     26848
     26849     26850     26849     26852     26849     26853     26849     26851
     26852     26853     26854     26855     26854     26857     26854     26858
     26854     26856     26857     26858     26859     26860     26859     26862
     26859     26863     26859     26861     26862     26863     26864     26865
     26864     26867     26864     26868     26864     26866     26867     26868
     26869     26870     26869     26872     26869     26873     26869     26871
     26872     26873     26874     26875     26874     26877     26874     26878
     26874     26876     26877     26878     26879     26880     26879     26882
     26879     26883     26879     26881     26882     26883     26884     26885
     26884     26887     26884     26888     26884     26886     26887     26888
     26889     26890     26889     26892     26889     26893     26889     26891
     26892     26893     26894     26895     26894     26897     26894     26898
     26894     26896     26897     26898     26899     26900     26899     26902
     26899     26903     26899     26901     26902     26903     26904     26905
     26904     26907     26904     26908     26904     26906     26907     26908
     26909     26910     26909     26912     26909     26913     26909     26911
     26912     26913     26914     26915     26914     26917     26914     26918
     26914     26916     26917     26918     26919     26920     26919     26922
     26919     26923     26919     26921     26922     26923     26924     26925
     26924     26927     26924     26928     26924     26926     26927     26928
     26929     26930     26929     26932     26929     26933     26929     26931
     26932     26933     26934     26935     26934     26937     26934     26938
     26934     26936     26937     26938     26939     26940     26939     26942
     26939     26943     26939     26941     26942     26943     26944     26945
     26944     26947     26944     26948     26944     26946     26947     26948
     26949     26950     26949     26952     26949     26953     26949     26951
     26952     26953     26954     26955     26954     26957     26954     26958
     26954     26956     26957     26958     26959     26960     26959     26962
     26959     26963     26959     26961     26962     26963     26964     26965
     26964     26967     26964     26968     26964     26966     26967     26968
     26969     26970     26969     26972     26969     26973     26969     26971
     26972     26973     26974     26975     26974     26977     26974     26978
     26974     26976     26977     26978     26979     26980     26979     26982
     26979     26983     26979     26981     26982     26983     26984     26985
     26984     26987     26984     26988     26984     26986     26987     26988
     26989     26990     26989     26992     26989     26993     26989     26991
     26992     26993     26994     26995     26994     26997     26994     26998
     26994     26996     26997     26998     26999     27000     26999     27002
     26999     27003     26999     27001     27002     27003     27004     27005
     27004     27007     27004     27008     27004     27006     27007     27008
     27009     27010     27009     27012     27009     27013     27009     27011
     27012     27013     27014     27015     27014     27017     27014     27018
     27014     27016     27017     27018     27019     27020     27019     27022
     27019     27023     27019     27021     27022     27023     27024     27025
     27024     27027     27024     27028     27024     27026     27027     27028
     27029     27030     27029     27032     27029     27033     27029     27031
     27032     27033     27034     27035     27034     27037     27034     27038
     27034     27036     27037     27038     27039     27040     27039     27042
     27039     27043     27039     27041     27042     27043     27044     27045
     27044     27047     27044     27048     27044     27046     27047     27048
     27049     27050     27049     27052     27049     27053     27049     27051
     27052     27053     27054     27055     27054     27057     27054     27058
     27054     27056     27057     27058     27059     27060     27059     27062
     27059     27063     27059     27061     27062     27063     27064     27065
     27064     27067     27064     27068     27064     27066     27067     27068
     27069     27070     27069     27072     27069     27073     27069     27071
     27072     27073     27074     27075     27074     27077     27074     27078
     27074     27076     27077     27078     27079     27080     27079     27082
     27079     27083     27079     27081     27082     27083     27084     27085
     27084     27087     27084     27088     27084     27086     27087     27088
     27089     27090     27089     27092     27089     27093     27089     27091
     27092     27093     27094     27095     27094     27097     27094     27098
     27094     27096     27097     27098     27099     27100     27099     27102
     27099     27103     27099     27101     27102     27103     27104     27105
     27104     27107     27104     27108     27104     27106     27107     27108
     27109     27110     27109     27112     27109     27113     27109     27111
     27112     27113     27114     27115     27114     27117     27114     27118
     27114     27116     27117     27118     27119     27120     27119     27122
     27119     27123     27119     27121     27122     27123     27124     27125
     27124     27127     27124     27128     27124     27126     27127     27128
     27129     27130     27129     27132     27129     27133     27129     27131
     27132     27133     27134     27135     27134     27137     27134     27138
     27134     27136     27137     27138     27139     27140     27139     27142
     27139     27143     27139     27141     27142     27143     27144     27145
     27144     27147     27144     27148     27144     27146     27147     27148
     27149     27150     27149     27152     27149     27153     27149     27151
     27152     27153     27154     27155     27154     27157     27154     27158
     27154     27156     27157     27158     27159     27160     27159     27162
     27159     27163     27159     27161     27162     27163     27164     27165
     27164     27167     27164     27168     27164     27166     27167     27168
     27169     27170     27169     27172     27169     27173     27169     27171
     27172     27173     27174     27175     27174     27177     27174     27178
     27174     27176     27177     27178     27179     27180     27179     27182
     27179     27183     27179     27181     27182     27183     27184     27185
     27184     27187     27184     27188     27184     27186     27187     27188
     27189     27190     27189     27192     27189     27193     27189     27191
     27192     27193     27194     27195     27194     27197     27194     27198
     27194     27196     27197     27198     27199     27200     27199     27202
     27199     27203     27199     27201     27202     27203     27204     27205
     27204     27207     27204     27208     27204     27206     27207     27208
     27209     27210     27209     27212     27209     27213     27209     27211
     27212     27213     27214     27215     27214     27217     27214     27218
     27214     27216     27217     27218     27219     27220     27219     27222
     27219     27223     27219     27221     27222     27223     27224     27225
     27224     27227     27224     27228     27224     27226     27227     27228
     27229     27230     27229     27232     27229     27233     27229     27231
     27232     27233     27234     27235     27234     27237     27234     27238
     27234     27236     27237     27238     27239     27240     27239     27242
     27239     27243     27239     27241     27242     27243     27244     27245
     27244     27247     27244     27248     27244     27246     27247     27248
     27249     27250     27249     27252     27249     27253     27249     27251
     27252     27253     27254     27255     27254     27257     27254     27258
     27254     27256     27257     27258     27259     27260     27259     27262
     27259     27263     27259     27261     27262     27263     27264     27265
     27264     27267     27264     27268     27264     27266     27267     27268
     27269     27270     27269     27272     27269     27273     27269     27271
     27272     27273     27274     27275     27274     27277     27274     27278
     27274     27276     27277     27278     27279     27280     27279     27282
     27279     27283     27279     27281     27282     27283     27284     27285
     27284     27287     27284     27288     27284     27286     27287     27288
     27289     27290     27289     27292     27289     27293     27289     27291
     27292     27293     27294     27295     27294     27297     27294     27298
     27294     27296     27297     27298     27299     27300     27299     27302
     27299     27303     27299     27301     27302     27303     27304     27305
     27304     27307     27304     27308     27304     27306     27307     27308
     27309     27310     27309     27312     27309     27313     27309     27311
     27312     27313     27314     27315     27314     27317     27314     27318
     27314     27316     27317     27318     27319     27320     27319     27322
     27319     27323     27319     27321     27322     27323     27324     27325
     27324     27327     27324     27328     27324     27326     27327     27328
     27329     27330     27329     27332     27329     27333     27329     27331
     27332     27333     27334     27335     27334     27337     27334     27338
     27334     27336     27337     27338     27339     27340     27339     27342
     27339     27343     27339     27341     27342     27343     27344     27345
     27344     27347     27344     27348     27344     27346     27347     27348
     27349     27350     27349     27352     27349     27353     27349     27351
     27352     27353     27354     27355     27354     27357     27354     27358
     27354     27356     27357     27358     27359     27360     27359     27362
     27359     27363     27359     27361     27362     27363     27364     27365
     27364     27367     27364     27368     27364     27366     27367     27368
     27369     27370     27369     27372     27369     27373     27369     27371
     27372     27373     27374     27375     27374     27377     27374     27378
     27374     27376     27377     27378     27379     27380     27379     27382
     27379     27383     27379     27381     27382     27383     27384     27385
     27384     27387     27384     27388     27384     27386     27387     27388
     27389     27390     27389     27392     27389     27393     27389     27391
     27392     27393     27394     27395     27394     27397     27394     27398
     27394     27396     27397     27398     27399     27400     27399     27402
     27399     27403     27399     27401     27402     27403     27404     27405
     27404     27407     27404     27408     27404     27406     27407     27408
     27409     27410     27409     27412     27409     27413     27409     27411
     27412     27413     27414     27415     27414     27417     27414     27418
     27414     27416     27417     27418     27419     27420     27419     27422
     27419     27423     27419     27421     27422     27423     27424     27425
     27424     27427     27424     27428     27424     27426     27427     27428
     27429     27430     27429     27432     27429     27433     27429     27431
     27432     27433     27434     27435     27434     27437     27434     27438
     27434     27436     27437     27438     27439     27440     27439     27442
     27439     27443     27439     27441     27442     27443     27444     27445
     27444     27447     27444     27448     27444     27446     27447     27448
     27449     27450     27449     27452     27449     27453     27449     27451
     27452     27453     27454     27455     27454     27457     27454     27458
     27454     27456     27457     27458     27459     27460     27459     27462
     27459     27463     27459     27461     27462     27463     27464     27465
     27464     27467     27464     27468     27464     27466     27467     27468
     27469     27470     27469     27472     27469     27473     27469     27471
     27472     27473     27474     27475     27474     27477     27474     27478
     27474     27476     27477     27478     27479     27480     27479     27482
     27479     27483     27479     27481     27482     27483     27484     27485
     27484     27487     27484     27488     27484     27486     27487     27488
     27489     27490     27489     27492     27489     27493     27489     27491
     27492     27493     27494     27495     27494     27497     27494     27498
     27494     27496     27497     27498     27499     27500     27499     27502
     27499     27503     27499     27501     27502     27503     27504     27505
     27504     27507     27504     27508     27504     27506     27507     27508
     27509     27510     27509     27512     27509     27513     27509     27511
     27512     27513     27514     27515     27514     27517     27514     27518
     27514     27516     27517     27518     27519     27520     27519     27522
     27519     27523     27519     27521     27522     27523     27524     27525
     27524     27527     27524     27528     27524     27526     27527     27528
     27529     27530     27529     27532     27529     27533     27529     27531
     27532     27533     27534     27535     27534     27537     27534     27538
     27534     27536     27537     27538     27539     27540     27539     27542
     27539     27543     27539     27541     27542     27543     27544     27545
     27544     27547     27544     27548     27544     27546     27547     27548
     27549     27550     27549     27552     27549     27553     27549     27551
     27552     27553     27554     27555     27554     27557     27554     27558
     27554     27556     27557     27558     27559     27560     27559     27562
     27559     27563     27559     27561     27562     27563     27564     27565
     27564     27567     27564     27568     27564     27566     27567     27568
     27569     27570     27569     27572     27569     27573     27569     27571
     27572     27573     27574     27575     27574     27577     27574     27578
     27574     27576     27577     27578     27579     27580     27579     27582
     27579     27583     27579     27581     27582     27583     27584     27585
     27584     27587     27584     27588     27584     27586     27587     27588
     27589     27590     27589     27592     27589     27593     27589     27591
     27592     27593     27594     27595     27594     27597     27594     27598
     27594     27596     27597     27598     27599     27600     27599     27602
     27599     27603     27599     27601     27602     27603     27604     27605
     27604     27607     27604     27608     27604     27606     27607     27608
     27609     27610     27609     27612     27609     27613     27609     27611
     27612     27613     27614     27615     27614     27617     27614     27618
     27614     27616     27617     27618     27619     27620     27619     27622
     27619     27623     27619     27621     27622     27623     27624     27625
     27624     27627     27624     27628     27624     27626     27627     27628
     27629     27630     27629     27632     27629     27633     27629     27631
     27632     27633     27634     27635     27634     27637     27634     27638
     27634     27636     27637     27638     27639     27640     27639     27642
     27639     27643     27639     27641     27642     27643     27644     27645
     27644     27647     27644     27648     27644     27646     27647     27648
     27649     27650     27649     27652     27649     27653     27649     27651
     27652     27653     27654     27655     27654     27657     27654     27658
     27654     27656     27657     27658     27659     27660     27659     27662
     27659     27663     27659     27661     27662     27663     27664     27665
     27664     27667     27664     27668     27664     27666     27667     27668
     27669     27670     27669     27672     27669     27673     27669     27671
     27672     27673     27674     27675     27674     27677     27674     27678
     27674     27676     27677     27678     27679     27680     27679     27682
     27679     27683     27679     27681     27682     27683     27684     27685
     27684     27687     27684     27688     27684     27686     27687     27688
     27689     27690     27689     27692     27689     27693     27689     27691
     27692     27693     27694     27695     27694     27697     27694     27698
     27694     27696     27697     27698     27699     27700     27699     27702
     27699     27703     27699     27701     27702     27703     27704     27705
     27704     27707     27704     27708     27704     27706     27707     27708
     27709     27710     27709     27712     27709     27713     27709     27711
     27712     27713     27714     27715     27714     27717     27714     27718
     27714     27716     27717     27718     27719     27720     27719     27722
     27719     27723     27719     27721     27722     27723     27724     27725
     27724     27727     27724     27728     27724     27726     27727     27728
     27729     27730     27729     27732     27729     27733     27729     27731
     27732     27733     27734     27735     27734     27737     27734     27738
     27734     27736     27737     27738     27739     27740     27739     27742
     27739     27743     27739     27741     27742     27743     27744     27745
     27744     27747     27744     27748     27744     27746     27747     27748
     27749     27750     27749     27752     27749     27753     27749     27751
     27752     27753     27754     27755     27754     27757     27754     27758
     27754     27756     27757     27758     27759     27760     27759     27762
     27759     27763     27759     27761     27762     27763     27764     27765
     27764     27767     27764     27768     27764     27766     27767     27768
     27769     27770     27769     27772     27769     27773     27769     27771
     27772     27773     27774     27775     27774     27777     27774     27778
     27774     27776     27777     27778     27779     27780     27779     27782
     27779     27783     27779     27781     27782     27783     27784     27785
     27784     27787     27784     27788     27784     27786     27787     27788
     27789     27790     27789     27792     27789     27793     27789     27791
     27792     27793     27794     27795     27794     27797     27794     27798
     27794     27796     27797     27798     27799     27800     27799     27802
     27799     27803     27799     27801     27802     27803     27804     27805
     27804     27807     27804     27808     27804     27806     27807     27808
     27809     27810     27809     27812     27809     27813     27809     27811
     27812     27813     27814     27815     27814     27817     27814     27818
     27814     27816     27817     27818     27819     27820     27819     27822
     27819     27823     27819     27821     27822     27823     27824     27825
     27824     27827     27824     27828     27824     27826     27827     27828
     27829     27830     27829     27832     27829     27833     27829     27831
     27832     27833     27834     27835     27834     27837     27834     27838
     27834     27836     27837     27838     27839     27840     27839     27842
     27839     27843     27839     27841     27842     27843     27844     27845
     27844     27847     27844     27848     27844     27846     27847     27848
     27849     27850     27849     27852     27849     27853     27849     27851
     27852     27853     27854     27855     27854     27857     27854     27858
     27854     27856     27857     27858     27859     27860     27859     27862
     27859     27863     27859     27861     27862     27863     27864     27865
     27864     27867     27864     27868     27864     27866     27867     27868
     27869     27870     27869     27872     27869     27873     27869     27871
     27872     27873     27874     27875     27874     27877     27874     27878
     27874     27876     27877     27878     27879     27880     27879     27882
     27879     27883     27879     27881     27882     27883     27884     27885
     27884     27887     27884     27888     27884     27886     27887     27888
     27889     27890     27889     27892     27889     27893     27889     27891
     27892     27893     27894     27895     27894     27897     27894     27898
     27894     27896     27897     27898     27899     27900     27899     27902
     27899     27903     27899     27901     27902     27903     27904     27905
     27904     27907     27904     27908     27904     27906     27907     27908
     27909     27910     27909     27912     27909     27913     27909     27911
     27912     27913     27914     27915     27914     27917     27914     27918
     27914     27916     27917     27918     27919     27920     27919     27922
     27919     27923     27919     27921     27922     27923     27924     27925
     27924     27927     27924     27928     27924     27926     27927     27928
     27929     27930     27929     27932     27929     27933     27929     27931
     27932     27933     27934     27935     27934     27937     27934     27938
     27934     27936     27937     27938     27939     27940     27939     27942
     27939     27943     27939     27941     27942     27943     27944     27945
     27944     27947     27944     27948     27944     27946     27947     27948
     27949     27950     27949     27952     27949     27953     27949     27951
     27952     27953     27954     27955     27954     27957     27954     27958
     27954     27956     27957     27958     27959     27960     27959     27962
     27959     27963     27959     27961     27962     27963     27964     27965
     27964     27967     27964     27968     27964     27966     27967     27968
     27969     27970     27969     27972     27969     27973     27969     27971
     27972     27973     27974     27975     27974     27977     27974     27978
     27974     27976     27977     27978     27979     27980     27979     27982
     27979     27983     27979     27981     27982     27983     27984     27985
     27984     27987     27984     27988     27984     27986     27987     27988
     27989     27990     27989     27992     27989     27993     27989     27991
     27992     27993     27994     27995     27994     27997     27994     27998
     27994     27996     27997     27998     27999     28000     27999     28002
     27999     28003     27999     28001     28002     28003     28004     28005
     28004     28007     28004     28008     28004     28006     28007     28008
     28009     28010     28009     28012     28009     28013     28009     28011
     28012     28013     28014     28015     28014     28017     28014     28018
     28014     28016     28017     28018     28019     28020     28019     28022
     28019     28023     28019     28021     28022     28023     28024     28025
     28024     28027     28024     28028     28024     28026     28027     28028
     28029     28030     28029     28032     28029     28033     28029     28031
     28032     28033     28034     28035     28034     28037     28034     28038
     28034     28036     28037     28038     28039     28040     28039     28042
     28039     28043     28039     28041     28042     28043     28044     28045
     28044     28047     28044     28048     28044     28046     28047     28048
     28049     28050     28049     28052     28049     28053     28049     28051
     28052     28053     28054     28055     28054     28057     28054     28058
     28054     28056     28057     28058     28059     28060     28059     28062
     28059     28063     28059     28061     28062     28063     28064     28065
     28064     28067     28064     28068     28064     28066     28067     28068
     28069     28070     28069     28072     28069     28073     28069     28071
     28072     28073     28074     28075     28074     28077     28074     28078
     28074     28076     28077     28078     28079     28080     28079     28082
     28079     28083     28079     28081     28082     28083     28084     28085
     28084     28087     28084     28088     28084     28086     28087     28088
     28089     28090     28089     28092     28089     28093     28089     28091
     28092     28093     28094     28095     28094     28097     28094     28098
     28094     28096     28097     28098     28099     28100     28099     28102
     28099     28103     28099     28101     28102     28103     28104     28105
     28104     28107     28104     28108     28104     28106     28107     28108
     28109     28110     28109     28112     28109     28113     28109     28111
     28112     28113     28114     28115     28114     28117     28114     28118
     28114     28116     28117     28118     28119     28120     28119     28122
     28119     28123     28119     28121     28122     28123     28124     28125
     28124     28127     28124     28128     28124     28126     28127     28128
     28129     28130     28129     28132     28129     28133     28129     28131
     28132     28133     28134     28135     28134     28137     28134     28138
     28134     28136     28137     28138     28139     28140     28139     28142
     28139     28143     28139     28141     28142     28143     28144     28145
     28144     28147     28144     28148     28144     28146     28147     28148
     28149     28150     28149     28152     28149     28153     28149     28151
     28152     28153     28154     28155     28154     28157     28154     28158
     28154     28156     28157     28158     28159     28160     28159     28162
     28159     28163     28159     28161     28162     28163     28164     28165
     28164     28167     28164     28168     28164     28166     28167     28168
     28169     28170     28169     28172     28169     28173     28169     28171
     28172     28173     28174     28175     28174     28177     28174     28178
     28174     28176     28177     28178     28179     28180     28179     28182
     28179     28183     28179     28181     28182     28183     28184     28185
     28184     28187     28184     28188     28184     28186     28187     28188
     28189     28190     28189     28192     28189     28193     28189     28191
     28192     28193     28194     28195     28194     28197     28194     28198
     28194     28196     28197     28198     28199     28200     28199     28202
     28199     28203     28199     28201     28202     28203     28204     28205
     28204     28207     28204     28208     28204     28206     28207     28208
     28209     28210     28209     28212     28209     28213     28209     28211
     28212     28213     28214     28215     28214     28217     28214     28218
     28214     28216     28217     28218     28219     28220     28219     28222
     28219     28223     28219     28221     28222     28223     28224     28225
     28224     28227     28224     28228     28224     28226     28227     28228
     28229     28230     28229     28232     28229     28233     28229     28231
     28232     28233     28234     28235     28234     28237     28234     28238
     28234     28236     28237     28238     28239     28240     28239     28242
     28239     28243     28239     28241     28242     28243     28244     28245
     28244     28247     28244     28248     28244     28246     28247     28248
     28249     28250     28249     28252     28249     28253     28249     28251
     28252     28253     28254     28255     28254     28257     28254     28258
     28254     28256     28257     28258     28259     28260     28259     28262
     28259     28263     28259     28261     28262     28263     28264     28265
     28264     28267     28264     28268     28264     28266     28267     28268
     28269     28270     28269     28272     28269     28273     28269     28271
     28272     28273     28274     28275     28274     28277     28274     28278
     28274     28276     28277     28278     28279     28280     28279     28282
     28279     28283     28279     28281     28282     28283     28284     28285
     28284     28287     28284     28288     28284     28286     28287     28288
     28289     28290     28289     28292     28289     28293     28289     28291
     28292     28293     28294     28295     28294     28297     28294     28298
     28294     28296     28297     28298     28299     28300     28299     28302
     28299     28303     28299     28301     28302     28303     28304     28305
     28304     28307     28304     28308     28304     28306     28307     28308
     28309     28310     28309     28312     28309     28313     28309     28311
     28312     28313     28314     28315     28314     28317     28314     28318
     28314     28316     28317     28318     28319     28320     28319     28322
     28319     28323     28319     28321     28322     28323     28324     28325
     28324     28327     28324     28328     28324     28326     28327     28328
     28329     28330     28329     28332     28329     28333     28329     28331
     28332     28333     28334     28335     28334     28337     28334     28338
     28334     28336     28337     28338     28339     28340     28339     28342
     28339     28343     28339     28341     28342     28343     28344     28345
     28344     28347     28344     28348     28344     28346     28347     28348
     28349     28350     28349     28352     28349     28353     28349     28351
     28352     28353     28354     28355     28354     28357     28354     28358
     28354     28356     28357     28358     28359     28360     28359     28362
     28359     28363     28359     28361     28362     28363     28364     28365
     28364     28367     28364     28368     28364     28366     28367     28368
     28369     28370     28369     28372     28369     28373     28369     28371
     28372     28373     28374     28375     28374     28377     28374     28378
     28374     28376     28377     28378     28379     28380     28379     28382
     28379     28383     28379     28381     28382     28383     28384     28385
     28384     28387     28384     28388     28384     28386     28387     28388
     28389     28390     28389     28392     28389     28393     28389     28391
     28392     28393     28394     28395     28394     28397     28394     28398
     28394     28396     28397     28398     28399     28400     28399     28402
     28399     28403     28399     28401     28402     28403     28404     28405
     28404     28407     28404     28408     28404     28406     28407     28408
     28409     28410     28409     28412     28409     28413     28409     28411
     28412     28413     28414     28415     28414     28417     28414     28418
     28414     28416     28417     28418     28419     28420     28419     28422
     28419     28423     28419     28421     28422     28423     28424     28425
     28424     28427     28424     28428     28424     28426     28427     28428
     28429     28430     28429     28432     28429     28433     28429     28431
     28432     28433     28434     28435     28434     28437     28434     28438
     28434     28436     28437     28438     28439     28440     28439     28442
     28439     28443     28439     28441     28442     28443     28444     28445
     28444     28447     28444     28448     28444     28446     28447     28448
     28449     28450     28449     28452     28449     28453     28449     28451
     28452     28453     28454     28455     28454     28457     28454     28458
     28454     28456     28457     28458     28459     28460     28459     28462
     28459     28463     28459     28461     28462     28463     28464     28465
     28464     28467     28464     28468     28464     28466     28467     28468
     28469     28470     28469     28472     28469     28473     28469     28471
     28472     28473     28474     28475     28474     28477     28474     28478
     28474     28476     28477     28478     28479     28480     28479     28482
     28479     28483     28479     28481     28482     28483     28484     28485
     28484     28487     28484     28488     28484     28486     28487     28488
     28489     28490     28489     28492     28489     28493     28489     28491
     28492     28493     28494     28495     28494     28497     28494     28498
     28494     28496     28497     28498     28499     28500     28499     28502
     28499     28503     28499     28501     28502     28503     28504     28505
     28504     28507     28504     28508     28504     28506     28507     28508
     28509     28510     28509     28512     28509     28513     28509     28511
     28512     28513     28514     28515     28514     28517     28514     28518
     28514     28516     28517     28518     28519     28520     28519     28522
     28519     28523     28519     28521     28522     28523     28524     28525
     28524     28527     28524     28528     28524     28526     28527     28528
     28529     28530     28529     28532     28529     28533     28529     28531
     28532     28533     28534     28535     28534     28537     28534     28538
     28534     28536     28537     28538     28539     28540     28539     28542
     28539     28543     28539     28541     28542     28543     28544     28545
     28544     28547     28544     28548     28544     28546     28547     28548
     28549     28550     28549     28552     28549     28553     28549     28551
     28552     28553     28554     28555     28554     28557     28554     28558
     28554     28556     28557     28558     28559     28560     28559     28562
     28559     28563     28559     28561     28562     28563     28564     28565
     28564     28567     28564     28568     28564     28566     28567     28568
     28569     28570     28569     28572     28569     28573     28569     28571
     28572     28573     28574     28575     28574     28577     28574     28578
     28574     28576     28577     28578     28579     28580     28579     28582
     28579     28583     28579     28581     28582     28583     28584     28585
     28584     28587     28584     28588     28584     28586     28587     28588
     28589     28590     28589     28592     28589     28593     28589     28591
     28592     28593     28594     28595     28594     28597     28594     28598
     28594     28596     28597     28598     28599     28600     28599     28602
     28599     28603     28599     28601     28602     28603     28604     28605
     28604     28607     28604     28608     28604     28606     28607     28608
     28609     28610     28609     28612     28609     28613     28609     28611
     28612     28613     28614     28615     28614     28617     28614     28618
     28614     28616     28617     28618     28619     28620     28619     28622
     28619     28623     28619     28621     28622     28623     28624     28625
     28624     28627     28624     28628     28624     28626     28627     28628
     28629     28630     28629     28632     28629     28633     28629     28631
     28632     28633     28634     28635     28634     28637     28634     28638
     28634     28636     28637     28638     28639     28640     28639     28642
     28639     28643     28639     28641     28642     28643     28644     28645
     28644     28647     28644     28648     28644     28646     28647     28648
     28649     28650     28649     28652     28649     28653     28649     28651
     28652     28653     28654     28655     28654     28657     28654     28658
     28654     28656     28657     28658     28659     28660     28659     28662
     28659     28663     28659     28661     28662     28663     28664     28665
     28664     28667     28664     28668     28664     28666     28667     28668
     28669     28670     28669     28672     28669     28673     28669     28671
     28672     28673     28674     28675     28674     28677     28674     28678
     28674     28676     28677     28678     28679     28680     28679     28682
     28679     28683     28679     28681     28682     28683     28684     28685
     28684     28687     28684     28688     28684     28686     28687     28688
     28689     28690     28689     28692     28689     28693     28689     28691
     28692     28693     28694     28695     28694     28697     28694     28698
     28694     28696     28697     28698     28699     28700     28699     28702
     28699     28703     28699     28701     28702     28703     28704     28705
     28704     28707     28704     28708     28704     28706     28707     28708
     28709     28710     28709     28712     28709     28713     28709     28711
     28712     28713     28714     28715     28714     28717     28714     28718
     28714     28716     28717     28718     28719     28720     28719     28722
     28719     28723     28719     28721     28722     28723     28724     28725
     28724     28727     28724     28728     28724     28726     28727     28728
     28729     28730     28729     28732     28729     28733     28729     28731
     28732     28733     28734     28735     28734     28737     28734     28738
     28734     28736     28737     28738     28739     28740     28739     28742
     28739     28743     28739     28741     28742     28743     28744     28745
     28744     28747     28744     28748     28744     28746     28747     28748
     28749     28750     28749     28752     28749     28753     28749     28751
     28752     28753     28754     28755     28754     28757     28754     28758
     28754     28756     28757     28758     28759     28760     28759     28762
     28759     28763     28759     28761     28762     28763     28764     28765
     28764     28767     28764     28768     28764     28766     28767     28768
     28769     28770     28769     28772     28769     28773     28769     28771
     28772     28773     28774     28775     28774     28777     28774     28778
     28774     28776     28777     28778     28779     28780     28779     28782
     28779     28783     28779     28781     28782     28783     28784     28785
     28784     28787     28784     28788     28784     28786     28787     28788
     28789     28790     28789     28792     28789     28793     28789     28791
     28792     28793     28794     28795     28794     28797     28794     28798
     28794     28796     28797     28798     28799     28800     28799     28802
     28799     28803     28799     28801     28802     28803     28804     28805
     28804     28807     28804     28808     28804     28806     28807     28808
     28809     28810     28809     28812     28809     28813     28809     28811
     28812     28813     28814     28815     28814     28817     28814     28818
     28814     28816     28817     28818     28819     28820     28819     28822
     28819     28823     28819     28821     28822     28823     28824     28825
     28824     28827     28824     28828     28824     28826     28827     28828
     28829     28830     28829     28832     28829     28833     28829     28831
     28832     28833     28834     28835     28834     28837     28834     28838
     28834     28836     28837     28838     28839     28840     28839     28842
     28839     28843     28839     28841     28842     28843     28844     28845
     28844     28847     28844     28848     28844     28846     28847     28848
     28849     28850     28849     28852     28849     28853     28849     28851
     28852     28853     28854     28855     28854     28857     28854     28858
     28854     28856     28857     28858     28859     28860     28859     28862
     28859     28863     28859     28861     28862     28863     28864     28865
     28864     28867     28864     28868     28864     28866     28867     28868
     28869     28870     28869     28872     28869     28873     28869     28871
     28872     28873     28874     28875     28874     28877     28874     28878
     28874     28876     28877     28878     28879     28880     28879     28882
     28879     28883     28879     28881     28882     28883     28884     28885
     28884     28887     28884     28888     28884     28886     28887     28888
     28889     28890     28889     28892     28889     28893     28889     28891
     28892     28893     28894     28895     28894     28897     28894     28898
     28894     28896     28897     28898     28899     28900     28899     28902
     28899     28903     28899     28901     28902     28903     28904     28905
     28904     28907     28904     28908     28904     28906     28907     28908
     28909     28910     28909     28912     28909     28913     28909     28911
     28912     28913     28914     28915     28914     28917     28914     28918
     28914     28916     28917     28918     28919     28920     28919     28922
     28919     28923     28919     28921     28922     28923     28924     28925
     28924     28927     28924     28928     28924     28926     28927     28928
     28929     28930     28929     28932     28929     28933     28929     28931
     28932     28933     28934     28935     28934     28937     28934     28938
     28934     28936     28937     28938     28939     28940     28939     28942
     28939     28943     28939     28941     28942     28943     28944     28945
     28944     28947     28944     28948     28944     28946     28947     28948
     28949     28950     28949     28952     28949     28953     28949     28951
     28952     28953     28954     28955     28954     28957     28954     28958
     28954     28956     28957     28958     28959     28960     28959     28962
     28959     28963     28959     28961     28962     28963     28964     28965
     28964     28967     28964     28968     28964     28966     28967     28968
     28969     28970     28969     28972     28969     28973     28969     28971
     28972     28973     28974     28975     28974     28977     28974     28978
     28974     28976     28977     28978     28979     28980     28979     28982
     28979     28983     28979     28981     28982     28983     28984     28985
     28984     28987     28984     28988     28984     28986     28987     28988
     28989     28990     28989     28992     28989     28993     28989     28991
     28992     28993     28994     28995     28994     28997     28994     28998
     28994     28996     28997     28998     28999     29000     28999     29002
     28999     29003     28999     29001     29002     29003     29004     29005
     29004     29007     29004     29008     29004     29006     29007     29008
     29009     29010     29009     29012     29009     29013     29009     29011
     29012     29013     29014     29015     29014     29017     29014     29018
     29014     29016     29017     29018     29019     29020     29019     29022
     29019     29023     29019     29021     29022     29023     29024     29025
     29024     29027     29024     29028     29024     29026     29027     29028
     29029     29030     29029     29032     29029     29033     29029     29031
     29032     29033     29034     29035     29034     29037     29034     29038
     29034     29036     29037     29038     29039     29040     29039     29042
     29039     29043     29039     29041     29042     29043     29044     29045
     29044     29047     29044     29048     29044     29046     29047     29048
     29049     29050     29049     29052     29049     29053     29049     29051
     29052     29053     29054     29055     29054     29057     29054     29058
     29054     29056     29057     29058     29059     29060     29059     29062
     29059     29063     29059     29061     29062     29063     29064     29065
     29064     29067     29064     29068     29064     29066     29067     29068
     29069     29070     29069     29072     29069     29073     29069     29071
     29072     29073     29074     29075     29074     29077     29074     29078
     29074     29076     29077     29078     29079     29080     29079     29082
     29079     29083     29079     29081     29082     29083     29084     29085
     29084     29087     29084     29088     29084     29086     29087     29088
     29089     29090     29089     29092     29089     29093     29089     29091
     29092     29093     29094     29095     29094     29097     29094     29098
     29094     29096     29097     29098     29099     29100     29099     29102
     29099     29103     29099     29101     29102     29103     29104     29105
     29104     29107     29104     29108     29104     29106     29107     29108
     29109     29110     29109     29112     29109     29113     29109     29111
     29112     29113     29114     29115     29114     29117     29114     29118
     29114     29116     29117     29118     29119     29120     29119     29122
     29119     29123     29119     29121     29122     29123     29124     29125
     29124     29127     29124     29128     29124     29126     29127     29128
     29129     29130     29129     29132     29129     29133     29129     29131
     29132     29133     29134     29135     29134     29137     29134     29138
     29134     29136     29137     29138     29139     29140     29139     29142
     29139     29143     29139     29141     29142     29143     29144     29145
     29144     29147     29144     29148     29144     29146     29147     29148
     29149     29150     29149     29152     29149     29153     29149     29151
     29152     29153     29154     29155     29154     29157     29154     29158
     29154     29156     29157     29158     29159     29160     29159     29162
     29159     29163     29159     29161     29162     29163     29164     29165
     29164     29167     29164     29168     29164     29166     29167     29168
     29169     29170     29169     29172     29169     29173     29169     29171
     29172     29173     29174     29175     29174     29177     29174     29178
     29174     29176     29177     29178     29179     29180     29179     29182
     29179     29183     29179     29181     29182     29183     29184     29185
     29184     29187     29184     29188     29184     29186     29187     29188
     29189     29190     29189     29192     29189     29193     29189     29191
     29192     29193     29194     29195     29194     29197     29194     29198
     29194     29196     29197     29198     29199     29200     29199     29202
     29199     29203     29199     29201     29202     29203     29204     29205
     29204     29207     29204     29208     29204     29206     29207     29208
     29209     29210     29209     29212     29209     29213     29209     29211
     29212     29213     29214     29215     29214     29217     29214     29218
     29214     29216     29217     29218     29219     29220     29219     29222
     29219     29223     29219     29221     29222     29223     29224     29225
     29224     29227     29224     29228     29224     29226     29227     29228
     29229     29230     29229     29232     29229     29233     29229     29231
     29232     29233     29234     29235     29234     29237     29234     29238
     29234     29236     29237     29238     29239     29240     29239     29242
     29239     29243     29239     29241     29242     29243     29244     29245
     29244     29247     29244     29248     29244     29246     29247     29248
     29249     29250     29249     29252     29249     29253     29249     29251
     29252     29253     29254     29255     29254     29257     29254     29258
     29254     29256     29257     29258     29259     29260     29259     29262
     29259     29263     29259     29261     29262     29263     29264     29265
     29264     29267     29264     29268     29264     29266     29267     29268
     29269     29270     29269     29272     29269     29273     29269     29271
     29272     29273     29274     29275     29274     29277     29274     29278
     29274     29276     29277     29278     29279     29280     29279     29282
     29279     29283     29279     29281     29282     29283     29284     29285
     29284     29287     29284     29288     29284     29286     29287     29288
     29289     29290     29289     29292     29289     29293     29289     29291
     29292     29293     29294     29295     29294     29297     29294     29298
     29294     29296     29297     29298     29299     29300     29299     29302
     29299     29303     29299     29301     29302     29303     29304     29305
     29304     29307     29304     29308     29304     29306     29307     29308
     29309     29310     29309     29312     29309     29313     29309     29311
     29312     29313     29314     29315     29314     29317     29314     29318
     29314     29316     29317     29318     29319     29320     29319     29322
     29319     29323     29319     29321     29322     29323     29324     29325
     29324     29327     29324     29328     29324     29326     29327     29328
     29329     29330     29329     29332     29329     29333     29329     29331
     29332     29333     29334     29335     29334     29337     29334     29338
     29334     29336     29337     29338     29339     29340     29339     29342
     29339     29343     29339     29341     29342     29343     29344     29345
     29344     29347     29344     29348     29344     29346     29347     29348
     29349     29350     29349     29352     29349     29353     29349     29351
     29352     29353     29354     29355     29354     29357     29354     29358
     29354     29356     29357     29358     29359     29360     29359     29362
     29359     29363     29359     29361     29362     29363     29364     29365
     29364     29367     29364     29368     29364     29366     29367     29368
     29369     29370     29369     29372     29369     29373     29369     29371
     29372     29373     29374     29375     29374     29377     29374     29378
     29374     29376     29377     29378     29379     29380     29379     29382
     29379     29383     29379     29381     29382     29383     29384     29385
     29384     29387     29384     29388     29384     29386     29387     29388
     29389     29390     29389     29392     29389     29393     29389     29391
     29392     29393     29394     29395     29394     29397     29394     29398
     29394     29396     29397     29398     29399     29400     29399     29402
     29399     29403     29399     29401     29402     29403     29404     29405
     29404     29407     29404     29408     29404     29406     29407     29408
     29409     29410     29409     29412     29409     29413     29409     29411
     29412     29413     29414     29415     29414     29417     29414     29418
     29414     29416     29417     29418     29419     29420     29419     29422
     29419     29423     29419     29421     29422     29423     29424     29425
     29424     29427     29424     29428     29424     29426     29427     29428
     29429     29430     29429     29432     29429     29433     29429     29431
     29432     29433     29434     29435     29434     29437     29434     29438
     29434     29436     29437     29438     29439     29440     29439     29442
     29439     29443     29439     29441     29442     29443     29444     29445
     29444     29447     29444     29448     29444     29446     29447     29448
     29449     29450     29449     29452     29449     29453     29449     29451
     29452     29453     29454     29455     29454     29457     29454     29458
     29454     29456     29457     29458     29459     29460     29459     29462
     29459     29463     29459     29461     29462     29463     29464     29465
     29464     29467     29464     29468     29464     29466     29467     29468
     29469     29470     29469     29472     29469     29473     29469     29471
     29472     29473     29474     29475     29474     29477     29474     29478
     29474     29476     29477     29478     29479     29480     29479     29482
     29479     29483     29479     29481     29482     29483     29484     29485
     29484     29487     29484     29488     29484     29486     29487     29488
     29489     29490     29489     29492     29489     29493     29489     29491
     29492     29493     29494     29495     29494     29497     29494     29498
     29494     29496     29497     29498     29499     29500     29499     29502
     29499     29503     29499     29501     29502     29503     29504     29505
     29504     29507     29504     29508     29504     29506     29507     29508
     29509     29510     29509     29512     29509     29513     29509     29511
     29512     29513     29514     29515     29514     29517     29514     29518
     29514     29516     29517     29518     29519     29520     29519     29522
     29519     29523     29519     29521     29522     29523     29524     29525
     29524     29527     29524     29528     29524     29526     29527     29528
     29529     29530     29529     29532     29529     29533     29529     29531
     29532     29533     29534     29535     29534     29537     29534     29538
     29534     29536     29537     29538     29539     29540     29539     29542
     29539     29543     29539     29541     29542     29543     29544     29545
     29544     29547     29544     29548     29544     29546     29547     29548
     29549     29550     29549     29552     29549     29553     29549     29551
     29552     29553     29554     29555     29554     29557     29554     29558
     29554     29556     29557     29558     29559     29560     29559     29562
     29559     29563     29559     29561     29562     29563     29564     29565
     29564     29567     29564     29568     29564     29566     29567     29568
     29569     29570     29569     29572     29569     29573     29569     29571
     29572     29573     29574     29575     29574     29577     29574     29578
     29574     29576     29577     29578     29579     29580     29579     29582
     29579     29583     29579     29581     29582     29583     29584     29585
     29584     29587     29584     29588     29584     29586     29587     29588
     29589     29590     29589     29592     29589     29593     29589     29591
     29592     29593     29594     29595     29594     29597     29594     29598
     29594     29596     29597     29598     29599     29600     29599     29602
     29599     29603     29599     29601     29602     29603     29604     29605
     29604     29607     29604     29608     29604     29606     29607     29608
     29609     29610     29609     29612     29609     29613     29609     29611
     29612     29613     29614     29615     29614     29617     29614     29618
     29614     29616     29617     29618     29619     29620     29619     29622
     29619     29623     29619     29621     29622     29623     29624     29625
     29624     29627     29624     29628     29624     29626     29627     29628
     29629     29630     29629     29632     29629     29633     29629     29631
     29632     29633     29634     29635     29634     29637     29634     29638
     29634     29636     29637     29638     29639     29640     29639     29642
     29639     29643     29639     29641     29642     29643     29644     29645
     29644     29647     29644     29648     29644     29646     29647     29648
     29649     29650     29649     29652     29649     29653     29649     29651
     29652     29653     29654     29655     29654     29657     29654     29658
     29654     29656     29657     29658     29659     29660     29659     29662
     29659     29663     29659     29661     29662     29663     29664     29665
     29664     29667     29664     29668     29664     29666     29667     29668
     29669     29670     29669     29672     29669     29673     29669     29671
     29672     29673     29674     29675     29674     29677     29674     29678
     29674     29676     29677     29678     29679     29680     29679     29682
     29679     29683     29679     29681     29682     29683     29684     29685
     29684     29687     29684     29688     29684     29686     29687     29688
     29689     29690     29689     29692     29689     29693     29689     29691
     29692     29693     29694     29695     29694     29697     29694     29698
     29694     29696     29697     29698     29699     29700     29699     29702
     29699     29703     29699     29701     29702     29703     29704     29705
     29704     29707     29704     29708     29704     29706     29707     29708
     29709     29710     29709     29712     29709     29713     29709     29711
     29712     29713     29714     29715     29714     29717     29714     29718
     29714     29716     29717     29718     29719     29720     29719     29722
     29719     29723     29719     29721     29722     29723     29724     29725
     29724     29727     29724     29728     29724     29726     29727     29728
     29729     29730     29729     29732     29729     29733     29729     29731
     29732     29733     29734     29735     29734     29737     29734     29738
     29734     29736     29737     29738     29739     29740     29739     29742
     29739     29743     29739     29741     29742     29743     29744     29745
     29744     29747     29744     29748     29744     29746     29747     29748
     29749     29750     29749     29752     29749     29753     29749     29751
     29752     29753     29754     29755     29754     29757     29754     29758
     29754     29756     29757     29758     29759     29760     29759     29762
     29759     29763     29759     29761     29762     29763     29764     29765
     29764     29767     29764     29768     29764     29766     29767     29768
     29769     29770     29769     29772     29769     29773     29769     29771
     29772     29773     29774     29775     29774     29777     29774     29778
     29774     29776     29777     29778     29779     29780     29779     29782
     29779     29783     29779     29781     29782     29783     29784     29785
     29784     29787     29784     29788     29784     29786     29787     29788
     29789     29790     29789     29792     29789     29793     29789     29791
     29792     29793     29794     29795     29794     29797     29794     29798
     29794     29796     29797     29798     29799     29800     29799     29802
     29799     29803     29799     29801     29802     29803     29804     29805
     29804     29807     29804     29808     29804     29806     29807     29808
     29809     29810     29809     29812     29809     29813     29809     29811
     29812     29813     29814     29815     29814     29817     29814     29818
     29814     29816     29817     29818     29819     29820     29819     29822
     29819     29823     29819     29821     29822     29823     29824     29825
     29824     29827     29824     29828     29824     29826     29827     29828
     29829     29830     29829     29832     29829     29833     29829     29831
     29832     29833     29834     29835     29834     29837     29834     29838
     29834     29836     29837     29838     29839     29840     29839     29842
     29839     29843     29839     29841     29842     29843     29844     29845
     29844     29847     29844     29848     29844     29846     29847     29848
     29849     29850     29849     29852     29849     29853     29849     29851
     29852     29853     29854     29855     29854     29857     29854     29858
     29854     29856     29857     29858     29859     29860     29859     29862
     29859     29863     29859     29861     29862     29863     29864     29865
     29864     29867     29864     29868     29864     29866     29867     29868
     29869     29870     29869     29872     29869     29873     29869     29871
     29872     29873     29874     29875     29874     29877     29874     29878
     29874     29876     29877     29878     29879     29880     29879     29882
     29879     29883     29879     29881     29882     29883     29884     29885
     29884     29887     29884     29888     29884     29886     29887     29888
     29889     29890     29889     29892     29889     29893     29889     29891
     29892     29893     29894     29895     29894     29897     29894     29898
     29894     29896     29897     29898     29899     29900     29899     29902
     29899     29903     29899     29901     29902     29903     29904     29905
     29904     29907     29904     29908     29904     29906     29907     29908
     29909     29910     29909     29912     29909     29913     29909     29911
     29912     29913     29914     29915     29914     29917     29914     29918
     29914     29916     29917     29918     29919     29920     29919     29922
     29919     29923     29919     29921     29922     29923     29924     29925
     29924     29927     29924     29928     29924     29926     29927     29928
     29929     29930     29929     29932     29929     29933     29929     29931
     29932     29933     29934     29935     29934     29937     29934     29938
     29934     29936     29937     29938     29939     29940     29939     29942
     29939     29943     29939     29941     29942     29943     29944     29945
     29944     29947     29944     29948     29944     29946     29947     29948
     29949     29950     29949     29952     29949     29953     29949     29951
     29952     29953     29954     29955     29954     29957     29954     29958
     29954     29956     29957     29958     29959     29960     29959     29962
     29959     29963     29959     29961     29962     29963     29964     29965
     29964     29967     29964     29968     29964     29966     29967     29968
     29969     29970     29969     29972     29969     29973     29969     29971
     29972     29973     29974     29975     29974     29977     29974     29978
     29974     29976     29977     29978     29979     29980     29979     29982
     29979     29983     29979     29981     29982     29983     29984     29985
     29984     29987     29984     29988     29984     29986     29987     29988
     29989     29990     29989     29992     29989     29993     29989     29991
     29992     29993     29994     29995     29994     29997     29994     29998
     29994     29996     29997     29998     29999     30000     29999     30002
     29999     30003     29999     30001     30002     30003     30004     30005
     30004     30007     30004     30008     30004     30006     30007     30008
     30009     30010     30009     30012     30009     30013     30009     30011
     30012     30013     30014     30015     30014     30017     30014     30018
     30014     30016     30017     30018     30019     30020     30019     30022
     30019     30023     30019     30021     30022     30023     30024     30025
     30024     30027     30024     30028     30024     30026     30027     30028
     30029     30030     30029     30032     30029     30033     30029     30031
     30032     30033     30034     30035     30034     30037     30034     30038
     30034     30036     30037     30038     30039     30040     30039     30042
     30039     30043     30039     30041     30042     30043     30044     30045
     30044     30047     30044     30048     30044     30046     30047     30048
     30049     30050     30049     30052     30049     30053     30049     30051
     30052     30053     30054     30055     30054     30057     30054     30058
     30054     30056     30057     30058     30059     30060     30059     30062
     30059     30063     30059     30061     30062     30063     30064     30065
     30064     30067     30064     30068     30064     30066     30067     30068
     30069     30070     30069     30072     30069     30073     30069     30071
     30072     30073     30074     30075     30074     30077     30074     30078
     30074     30076     30077     30078     30079     30080     30079     30082
     30079     30083     30079     30081     30082     30083     30084     30085
     30084     30087     30084     30088     30084     30086     30087     30088
     30089     30090     30089     30092     30089     30093     30089     30091
     30092     30093     30094     30095     30094     30097     30094     30098
     30094     30096     30097     30098     30099     30100     30099     30102
     30099     30103     30099     30101     30102     30103     30104     30105
     30104     30107     30104     30108     30104     30106     30107     30108
     30109     30110     30109     30112     30109     30113     30109     30111
     30112     30113     30114     30115     30114     30117     30114     30118
     30114     30116     30117     30118     30119     30120     30119     30122
     30119     30123     30119     30121     30122     30123     30124     30125
     30124     30127     30124     30128     30124     30126     30127     30128
     30129     30130     30129     30132     30129     30133     30129     30131
     30132     30133     30134     30135     30134     30137     30134     30138
     30134     30136     30137     30138     30139     30140     30139     30142
     30139     30143     30139     30141     30142     30143     30144     30145
     30144     30147     30144     30148     30144     30146     30147     30148
     30149     30150     30149     30152     30149     30153     30149     30151
     30152     30153     30154     30155     30154     30157     30154     30158
     30154     30156     30157     30158     30159     30160     30159     30162
     30159     30163     30159     30161     30162     30163     30164     30165
     30164     30167     30164     30168     30164     30166     30167     30168
     30169     30170     30169     30172     30169     30173     30169     30171
     30172     30173     30174     30175     30174     30177     30174     30178
     30174     30176     30177     30178     30179     30180     30179     30182
     30179     30183     30179     30181     30182     30183     30184     30185
     30184     30187     30184     30188     30184     30186     30187     30188
     30189     30190     30189     30192     30189     30193     30189     30191
     30192     30193     30194     30195     30194     30197     30194     30198
     30194     30196     30197     30198     30199     30200     30199     30202
     30199     30203     30199     30201     30202     30203     30204     30205
     30204     30207     30204     30208     30204     30206     30207     30208
     30209     30210     30209     30212     30209     30213     30209     30211
     30212     30213     30214     30215     30214     30217     30214     30218
     30214     30216     30217     30218     30219     30220     30219     30222
     30219     30223     30219     30221     30222     30223     30224     30225
     30224     30227     30224     30228     30224     30226     30227     30228
     30229     30230     30229     30232     30229     30233     30229     30231
     30232     30233     30234     30235     30234     30237     30234     30238
     30234     30236     30237     30238     30239     30240     30239     30242
     30239     30243     30239     30241     30242     30243     30244     30245
     30244     30247     30244     30248     30244     30246     30247     30248
     30249     30250     30249     30252     30249     30253     30249     30251
     30252     30253     30254     30255     30254     30257     30254     30258
     30254     30256     30257     30258     30259     30260     30259     30262
     30259     30263     30259     30261     30262     30263     30264     30265
     30264     30267     30264     30268     30264     30266     30267     30268
     30269     30270     30269     30272     30269     30273     30269     30271
     30272     30273     30274     30275     30274     30277     30274     30278
     30274     30276     30277     30278     30279     30280     30279     30282
     30279     30283     30279     30281     30282     30283     30284     30285
     30284     30287     30284     30288     30284     30286     30287     30288
     30289     30290     30289     30292     30289     30293     30289     30291
     30292     30293     30294     30295     30294     30297     30294     30298
     30294     30296     30297     30298     30299     30300     30299     30302
     30299     30303     30299     30301     30302     30303     30304     30305
     30304     30307     30304     30308     30304     30306     30307     30308
     30309     30310     30309     30312     30309     30313     30309     30311
     30312     30313     30314     30315     30314     30317     30314     30318
     30314     30316     30317     30318     30319     30320     30319     30322
     30319     30323     30319     30321     30322     30323     30324     30325
     30324     30327     30324     30328     30324     30326     30327     30328
     30329     30330     30329     30332     30329     30333     30329     30331
     30332     30333     30334     30335     30334     30337     30334     30338
     30334     30336     30337     30338     30339     30340     30339     30342
     30339     30343     30339     30341     30342     30343     30344     30345
     30344     30347     30344     30348     30344     30346     30347     30348
     30349     30350     30349     30352     30349     30353     30349     30351
     30352     30353     30354     30355     30354     30357     30354     30358
     30354     30356     30357     30358     30359     30360     30359     30362
     30359     30363     30359     30361     30362     30363     30364     30365
     30364     30367     30364     30368     30364     30366     30367     30368
     30369     30370     30369     30372     30369     30373     30369     30371
     30372     30373     30374     30375     30374     30377     30374     30378
     30374     30376     30377     30378     30379     30380     30379     30382
     30379     30383     30379     30381     30382     30383     30384     30385
     30384     30387     30384     30388     30384     30386     30387     30388
     30389     30390     30389     30392     30389     30393     30389     30391
     30392     30393     30394     30395     30394     30397     30394     30398
     30394     30396     30397     30398     30399     30400     30399     30402
     30399     30403     30399     30401     30402     30403     30404     30405
     30404     30407     30404     30408     30404     30406     30407     30408
     30409     30410     30409     30412     30409     30413     30409     30411
     30412     30413     30414     30415     30414     30417     30414     30418
     30414     30416     30417     30418     30419     30420     30419     30422
     30419     30423     30419     30421     30422     30423     30424     30425
     30424     30427     30424     30428     30424     30426     30427     30428
     30429     30430     30429     30432     30429     30433     30429     30431
     30432     30433     30434     30435     30434     30437     30434     30438
     30434     30436     30437     30438     30439     30440     30439     30442
     30439     30443     30439     30441     30442     30443     30444     30445
     30444     30447     30444     30448     30444     30446     30447     30448
     30449     30450     30449     30452     30449     30453     30449     30451
     30452     30453     30454     30455     30454     30457     30454     30458
     30454     30456     30457     30458     30459     30460     30459     30462
     30459     30463     30459     30461     30462     30463     30464     30465
     30464     30467     30464     30468     30464     30466     30467     30468
     30469     30470     30469     30472     30469     30473     30469     30471
     30472     30473     30474     30475     30474     30477     30474     30478
     30474     30476     30477     30478     30479     30480     30479     30482
     30479     30483     30479     30481     30482     30483     30484     30485
     30484     30487     30484     30488     30484     30486     30487     30488
     30489     30490     30489     30492     30489     30493     30489     30491
     30492     30493     30494     30495     30494     30497     30494     30498
     30494     30496     30497     30498     30499     30500     30499     30502
     30499     30503     30499     30501     30502     30503     30504     30505
     30504     30507     30504     30508     30504     30506     30507     30508
     30509     30510     30509     30512     30509     30513     30509     30511
     30512     30513     30514     30515     30514     30517     30514     30518
     30514     30516     30517     30518     30519     30520     30519     30522
     30519     30523     30519     30521     30522     30523     30524     30525
     30524     30527     30524     30528     30524     30526     30527     30528
     30529     30530     30529     30532     30529     30533     30529     30531
     30532     30533     30534     30535     30534     30537     30534     30538
     30534     30536     30537     30538     30539     30540     30539     30542
     30539     30543     30539     30541     30542     30543     30544     30545
     30544     30547     30544     30548     30544     30546     30547     30548
     30549     30550     30549     30552     30549     30553     30549     30551
     30552     30553     30554     30555     30554     30557     30554     30558
     30554     30556     30557     30558     30559     30560     30559     30562
     30559     30563     30559     30561     30562     30563     30564     30565
     30564     30567     30564     30568     30564     30566     30567     30568
     30569     30570     30569     30572     30569     30573     30569     30571
     30572     30573     30574     30575     30574     30577     30574     30578
     30574     30576     30577     30578     30579     30580     30579     30582
     30579     30583     30579     30581     30582     30583     30584     30585
     30584     30587     30584     30588     30584     30586     30587     30588
     30589     30590     30589     30592     30589     30593     30589     30591
     30592     30593     30594     30595     30594     30597     30594     30598
     30594     30596     30597     30598     30599     30600     30599     30602
     30599     30603     30599     30601     30602     30603     30604     30605
     30604     30607     30604     30608     30604     30606     30607     30608
     30609     30610     30609     30612     30609     30613     30609     30611
     30612     30613     30614     30615     30614     30617     30614     30618
     30614     30616     30617     30618     30619     30620     30619     30622
     30619     30623     30619     30621     30622     30623     30624     30625
     30624     30627     30624     30628     30624     30626     30627     30628
     30629     30630     30629     30632     30629     30633     30629     30631
     30632     30633     30634     30635     30634     30637     30634     30638
     30634     30636     30637     30638     30639     30640     30639     30642
     30639     30643     30639     30641     30642     30643     30644     30645
     30644     30647     30644     30648     30644     30646     30647     30648
     30649     30650     30649     30652     30649     30653     30649     30651
     30652     30653     30654     30655     30654     30657     30654     30658
     30654     30656     30657     30658     30659     30660     30659     30662
     30659     30663     30659     30661     30662     30663     30664     30665
     30664     30667     30664     30668     30664     30666     30667     30668
     30669     30670     30669     30672     30669     30673     30669     30671
     30672     30673     30674     30675     30674     30677     30674     30678
     30674     30676     30677     30678     30679     30680     30679     30682
     30679     30683     30679     30681     30682     30683     30684     30685
     30684     30687     30684     30688     30684     30686     30687     30688
     30689     30690     30689     30692     30689     30693     30689     30691
     30692     30693     30694     30695     30694     30697     30694     30698
     30694     30696     30697     30698     30699     30700     30699     30702
     30699     30703     30699     30701     30702     30703     30704     30705
     30704     30707     30704     30708     30704     30706     30707     30708
     30709     30710     30709     30712     30709     30713     30709     30711
     30712     30713     30714     30715     30714     30717     30714     30718
     30714     30716     30717     30718     30719     30720     30719     30722
     30719     30723     30719     30721     30722     30723     30724     30725
     30724     30727     30724     30728     30724     30726     30727     30728
     30729     30730     30729     30732     30729     30733     30729     30731
     30732     30733     30734     30735     30734     30737     30734     30738
     30734     30736     30737     30738     30739     30740     30739     30742
     30739     30743     30739     30741     30742     30743     30744     30745
     30744     30747     30744     30748     30744     30746     30747     30748
     30749     30750     30749     30752     30749     30753     30749     30751
     30752     30753     30754     30755     30754     30757     30754     30758
     30754     30756     30757     30758     30759     30760     30759     30762
     30759     30763     30759     30761     30762     30763     30764     30765
     30764     30767     30764     30768     30764     30766     30767     30768
     30769     30770     30769     30772     30769     30773     30769     30771
     30772     30773     30774     30775     30774     30777     30774     30778
     30774     30776     30777     30778     30779     30780     30779     30782
     30779     30783     30779     30781     30782     30783     30784     30785
     30784     30787     30784     30788     30784     30786     30787     30788
     30789     30790     30789     30792     30789     30793     30789     30791
     30792     30793     30794     30795     30794     30797     30794     30798
     30794     30796     30797     30798     30799     30800     30799     30802
     30799     30803     30799     30801     30802     30803     30804     30805
     30804     30807     30804     30808     30804     30806     30807     30808
     30809     30810     30809     30812     30809     30813     30809     30811
     30812     30813     30814     30815     30814     30817     30814     30818
     30814     30816     30817     30818     30819     30820     30819     30822
     30819     30823     30819     30821     30822     30823     30824     30825
     30824     30827     30824     30828     30824     30826     30827     30828
     30829     30830     30829     30832     30829     30833     30829     30831
     30832     30833     30834     30835     30834     30837     30834     30838
     30834     30836     30837     30838     30839     30840     30839     30842
     30839     30843     30839     30841     30842     30843     30844     30845
     30844     30847     30844     30848     30844     30846     30847     30848
     30849     30850     30849     30852     30849     30853     30849     30851
     30852     30853     30854     30855     30854     30857     30854     30858
     30854     30856     30857     30858     30859     30860     30859     30862
     30859     30863     30859     30861     30862     30863     30864     30865
     30864     30867     30864     30868     30864     30866     30867     30868
     30869     30870     30869     30872     30869     30873     30869     30871
     30872     30873     30874     30875     30874     30877     30874     30878
     30874     30876     30877     30878     30879     30880     30879     30882
     30879     30883     30879     30881     30882     30883     30884     30885
     30884     30887     30884     30888     30884     30886     30887     30888
     30889     30890     30889     30892     30889     30893     30889     30891
     30892     30893     30894     30895     30894     30897     30894     30898
     30894     30896     30897     30898     30899     30900     30899     30902
     30899     30903     30899     30901     30902     30903     30904     30905
     30904     30907     30904     30908     30904     30906     30907     30908
     30909     30910     30909     30912     30909     30913     30909     30911
     30912     30913     30914     30915     30914     30917     30914     30918
     30914     30916     30917     30918     30919     30920     30919     30922
     30919     30923     30919     30921     30922     30923     30924     30925
     30924     30927     30924     30928     30924     30926     30927     30928
     30929     30930     30929     30932     30929     30933     30929     30931
     30932     30933     30934     30935     30934     30937     30934     30938
     30934     30936     30937     30938     30939     30940     30939     30942
     30939     30943     30939     30941     30942     30943     30944     30945
     30944     30947     30944     30948     30944     30946     30947     30948
     30949     30950     30949     30952     30949     30953     30949     30951
     30952     30953     30954     30955     30954     30957     30954     30958
     30954     30956     30957     30958     30959     30960     30959     30962
     30959     30963     30959     30961     30962     30963     30964     30965
     30964     30967     30964     30968     30964     30966     30967     30968
     30969     30970     30969     30972     30969     30973     30969     30971
     30972     30973     30974     30975     30974     30977     30974     30978
     30974     30976     30977     30978     30979     30980     30979     30982
     30979     30983     30979     30981     30982     30983     30984     30985
     30984     30987     30984     30988     30984     30986     30987     30988
     30989     30990     30989     30992     30989     30993     30989     30991
     30992     30993     30994     30995     30994     30997     30994     30998
     30994     30996     30997     30998     30999     31000     30999     31002
     30999     31003     30999     31001     31002     31003     31004     31005
     31004     31007     31004     31008     31004     31006     31007     31008
     31009     31010     31009     31012     31009     31013     31009     31011
     31012     31013     31014     31015     31014     31017     31014     31018
     31014     31016     31017     31018     31019     31020     31019     31022
     31019     31023     31019     31021     31022     31023     31024     31025
     31024     31027     31024     31028     31024     31026     31027     31028
     31029     31030     31029     31032     31029     31033     31029     31031
     31032     31033     31034     31035     31034     31037     31034     31038
     31034     31036     31037     31038     31039     31040     31039     31042
     31039     31043     31039     31041     31042     31043     31044     31045
     31044     31047     31044     31048     31044     31046     31047     31048
     31049     31050     31049     31052     31049     31053     31049     31051
     31052     31053     31054     31055     31054     31057     31054     31058
     31054     31056     31057     31058     31059     31060     31059     31062
     31059     31063     31059     31061     31062     31063     31064     31065
     31064     31067     31064     31068     31064     31066     31067     31068
     31069     31070     31069     31072     31069     31073     31069     31071
     31072     31073     31074     31075     31074     31077     31074     31078
     31074     31076     31077     31078     31079     31080     31079     31082
     31079     31083     31079     31081     31082     31083     31084     31085
     31084     31087     31084     31088     31084     31086     31087     31088
     31089     31090     31089     31092     31089     31093     31089     31091
     31092     31093     31094     31095     31094     31097     31094     31098
     31094     31096     31097     31098     31099     31100     31099     31102
     31099     31103     31099     31101     31102     31103     31104     31105
     31104     31107     31104     31108     31104     31106     31107     31108
     31109     31110     31109     31112     31109     31113     31109     31111
     31112     31113     31114     31115     31114     31117     31114     31118
     31114     31116     31117     31118     31119     31120     31119     31122
     31119     31123     31119     31121     31122     31123     31124     31125
     31124     31127     31124     31128     31124     31126     31127     31128
     31129     31130     31129     31132     31129     31133     31129     31131
     31132     31133     31134     31135     31134     31137     31134     31138
     31134     31136     31137     31138     31139     31140     31139     31142
     31139     31143     31139     31141     31142     31143     31144     31145
     31144     31147     31144     31148     31144     31146     31147     31148
     31149     31150     31149     31152     31149     31153     31149     31151
     31152     31153     31154     31155     31154     31157     31154     31158
     31154     31156     31157     31158     31159     31160     31159     31162
     31159     31163     31159     31161     31162     31163     31164     31165
     31164     31167     31164     31168     31164     31166     31167     31168
     31169     31170     31169     31172     31169     31173     31169     31171
     31172     31173     31174     31175     31174     31177     31174     31178
     31174     31176     31177     31178     31179     31180     31179     31182
     31179     31183     31179     31181     31182     31183     31184     31185
     31184     31187     31184     31188     31184     31186     31187     31188
     31189     31190     31189     31192     31189     31193     31189     31191
     31192     31193     31194     31195     31194     31197     31194     31198
     31194     31196     31197     31198     31199     31200     31199     31202
     31199     31203     31199     31201     31202     31203     31204     31205
     31204     31207     31204     31208     31204     31206     31207     31208
     31209     31210     31209     31212     31209     31213     31209     31211
     31212     31213     31214     31215     31214     31217     31214     31218
     31214     31216     31217     31218     31219     31220     31219     31222
     31219     31223     31219     31221     31222     31223     31224     31225
     31224     31227     31224     31228     31224     31226     31227     31228
     31229     31230     31229     31232     31229     31233     31229     31231
     31232     31233     31234     31235     31234     31237     31234     31238
     31234     31236     31237     31238     31239     31240     31239     31242
     31239     31243     31239     31241     31242     31243     31244     31245
     31244     31247     31244     31248     31244     31246     31247     31248
     31249     31250     31249     31252     31249     31253     31249     31251
     31252     31253     31254     31255     31254     31257     31254     31258
     31254     31256     31257     31258     31259     31260     31259     31262
     31259     31263     31259     31261     31262     31263     31264     31265
     31264     31267     31264     31268     31264     31266     31267     31268
     31269     31270     31269     31272     31269     31273     31269     31271
     31272     31273     31274     31275     31274     31277     31274     31278
     31274     31276     31277     31278     31279     31280     31279     31282
     31279     31283     31279     31281     31282     31283     31284     31285
     31284     31287     31284     31288     31284     31286     31287     31288
     31289     31290     31289     31292     31289     31293     31289     31291
     31292     31293     31294     31295     31294     31297     31294     31298
     31294     31296     31297     31298     31299     31300     31299     31302
     31299     31303     31299     31301     31302     31303     31304     31305
     31304     31307     31304     31308     31304     31306     31307     31308
     31309     31310     31309     31312     31309     31313     31309     31311
     31312     31313     31314     31315     31314     31317     31314     31318
     31314     31316     31317     31318     31319     31320     31319     31322
     31319     31323     31319     31321     31322     31323     31324     31325
     31324     31327     31324     31328     31324     31326     31327     31328
     31329     31330     31329     31332     31329     31333     31329     31331
     31332     31333     31334     31335     31334     31337     31334     31338
     31334     31336     31337     31338     31339     31340     31339     31342
     31339     31343     31339     31341     31342     31343     31344     31345
     31344     31347     31344     31348     31344     31346     31347     31348
     31349     31350     31349     31352     31349     31353     31349     31351
     31352     31353     31354     31355     31354     31357     31354     31358
     31354     31356     31357     31358     31359     31360     31359     31362
     31359     31363     31359     31361     31362     31363     31364     31365
     31364     31367     31364     31368     31364     31366     31367     31368
     31369     31370     31369     31372     31369     31373     31369     31371
     31372     31373     31374     31375     31374     31377     31374     31378
     31374     31376     31377     31378     31379     31380     31379     31382
     31379     31383     31379     31381     31382     31383     31384     31385
     31384     31387     31384     31388     31384     31386     31387     31388
     31389     31390     31389     31392     31389     31393     31389     31391
     31392     31393     31394     31395     31394     31397     31394     31398
     31394     31396     31397     31398     31399     31400     31399     31402
     31399     31403     31399     31401     31402     31403     31404     31405
     31404     31407     31404     31408     31404     31406     31407     31408
     31409     31410     31409     31412     31409     31413     31409     31411
     31412     31413     31414     31415     31414     31417     31414     31418
     31414     31416     31417     31418     31419     31420     31419     31422
     31419     31423     31419     31421     31422     31423     31424     31425
     31424     31427     31424     31428     31424     31426     31427     31428
     31429     31430     31429     31432     31429     31433     31429     31431
     31432     31433     31434     31435     31434     31437     31434     31438
     31434     31436     31437     31438     31439     31440     31439     31442
     31439     31443     31439     31441     31442     31443     31444     31445
     31444     31447     31444     31448     31444     31446     31447     31448
     31449     31450     31449     31452     31449     31453     31449     31451
     31452     31453     31454     31455     31454     31457     31454     31458
     31454     31456     31457     31458     31459     31460     31459     31462
     31459     31463     31459     31461     31462     31463     31464     31465
     31464     31467     31464     31468     31464     31466     31467     31468
     31469     31470     31469     31472     31469     31473     31469     31471
     31472     31473     31474     31475     31474     31477     31474     31478
     31474     31476     31477     31478     31479     31480     31479     31482
     31479     31483     31479     31481     31482     31483     31484     31485
     31484     31487     31484     31488     31484     31486     31487     31488
     31489     31490     31489     31492     31489     31493     31489     31491
     31492     31493     31494     31495     31494     31497     31494     31498
     31494     31496     31497     31498     31499     31500     31499     31502
     31499     31503     31499     31501     31502     31503     31504     31505
     31504     31507     31504     31508     31504     31506     31507     31508
     31509     31510     31509     31512     31509     31513     31509     31511
     31512     31513     31514     31515     31514     31517     31514     31518
     31514     31516     31517     31518     31519     31520     31519     31522
     31519     31523     31519     31521     31522     31523     31524     31525
     31524     31527     31524     31528     31524     31526     31527     31528
     31529     31530     31529     31532     31529     31533     31529     31531
     31532     31533     31534     31535     31534     31537     31534     31538
     31534     31536     31537     31538     31539     31540     31539     31542
     31539     31543     31539     31541     31542     31543     31544     31545
     31544     31547     31544     31548     31544     31546     31547     31548
     31549     31550     31549     31552     31549     31553     31549     31551
     31552     31553     31554     31555     31554     31557     31554     31558
     31554     31556     31557     31558     31559     31560     31559     31562
     31559     31563     31559     31561     31562     31563     31564     31565
     31564     31567     31564     31568     31564     31566     31567     31568
     31569     31570     31569     31572     31569     31573     31569     31571
     31572     31573     31574     31575     31574     31577     31574     31578
     31574     31576     31577     31578     31579     31580     31579     31582
     31579     31583     31579     31581     31582     31583     31584     31585
     31584     31587     31584     31588     31584     31586     31587     31588
     31589     31590     31589     31592     31589     31593     31589     31591
     31592     31593     31594     31595     31594     31597     31594     31598
     31594     31596     31597     31598     31599     31600     31599     31602
     31599     31603     31599     31601     31602     31603     31604     31605
     31604     31607     31604     31608     31604     31606     31607     31608
     31609     31610     31609     31612     31609     31613     31609     31611
     31612     31613     31614     31615     31614     31617     31614     31618
     31614     31616     31617     31618     31619     31620     31619     31622
     31619     31623     31619     31621     31622     31623     31624     31625
     31624     31627     31624     31628     31624     31626     31627     31628
     31629     31630     31629     31632     31629     31633     31629     31631
     31632     31633     31634     31635     31634     31637     31634     31638
     31634     31636     31637     31638     31639     31640     31639     31642
     31639     31643     31639     31641     31642     31643     31644     31645
     31644     31647     31644     31648     31644     31646     31647     31648
     31649     31650     31649     31652     31649     31653     31649     31651
     31652     31653     31654     31655     31654     31657     31654     31658
     31654     31656     31657     31658     31659     31660     31659     31662
     31659     31663     31659     31661     31662     31663     31664     31665
     31664     31667     31664     31668     31664     31666     31667     31668
     31669     31670     31669     31672     31669     31673     31669     31671
     31672     31673     31674     31675     31674     31677     31674     31678
     31674     31676     31677     31678     31679     31680     31679     31682
     31679     31683     31679     31681     31682     31683     31684     31685
     31684     31687     31684     31688     31684     31686     31687     31688
     31689     31690     31689     31692     31689     31693     31689     31691
     31692     31693     31694     31695     31694     31697     31694     31698
     31694     31696     31697     31698     31699     31700     31699     31702
     31699     31703     31699     31701     31702     31703     31704     31705
     31704     31707     31704     31708     31704     31706     31707     31708
     31709     31710     31709     31712     31709     31713     31709     31711
     31712     31713     31714     31715     31714     31717     31714     31718
     31714     31716     31717     31718     31719     31720     31719     31722
     31719     31723     31719     31721     31722     31723     31724     31725
     31724     31727     31724     31728     31724     31726     31727     31728
     31729     31730     31729     31732     31729     31733     31729     31731
     31732     31733     31734     31735     31734     31737     31734     31738
     31734     31736     31737     31738     31739     31740     31739     31742
     31739     31743     31739     31741     31742     31743     31744     31745
     31744     31747     31744     31748     31744     31746     31747     31748
     31749     31750     31749     31752     31749     31753     31749     31751
     31752     31753     31754     31755     31754     31757     31754     31758
     31754     31756     31757     31758     31759     31760     31759     31762
     31759     31763     31759     31761     31762     31763     31764     31765
     31764     31767     31764     31768     31764     31766     31767     31768
     31769     31770     31769     31772     31769     31773     31769     31771
     31772     31773     31774     31775     31774     31777     31774     31778
     31774     31776     31777     31778     31779     31780     31779     31782
     31779     31783     31779     31781     31782     31783     31784     31785
     31784     31787     31784     31788     31784     31786     31787     31788
     31789     31790     31789     31792     31789     31793     31789     31791
     31792     31793     31794     31795     31794     31797     31794     31798
     31794     31796     31797     31798     31799     31800     31799     31802
     31799     31803     31799     31801     31802     31803     31804     31805
     31804     31807     31804     31808     31804     31806     31807     31808
     31809     31810     31809     31812     31809     31813     31809     31811
     31812     31813     31814     31815     31814     31817     31814     31818
     31814     31816     31817     31818     31819     31820     31819     31822
     31819     31823     31819     31821     31822     31823     31824     31825
     31824     31827     31824     31828     31824     31826     31827     31828
     31829     31830     31829     31832     31829     31833     31829     31831
     31832     31833     31834     31835     31834     31837     31834     31838
     31834     31836     31837     31838     31839     31840     31839     31842
     31839     31843     31839     31841     31842     31843     31844     31845
     31844     31847     31844     31848     31844     31846     31847     31848
     31849     31850     31849     31852     31849     31853     31849     31851
     31852     31853     31854     31855     31854     31857     31854     31858
     31854     31856     31857     31858     31859     31860     31859     31862
     31859     31863     31859     31861     31862     31863     31864     31865
     31864     31867     31864     31868     31864     31866     31867     31868
     31869     31870     31869     31872     31869     31873     31869     31871
     31872     31873     31874     31875     31874     31877     31874     31878
     31874     31876     31877     31878     31879     31880     31879     31882
     31879     31883     31879     31881     31882     31883     31884     31885
     31884     31887     31884     31888     31884     31886     31887     31888
     31889     31890     31889     31892     31889     31893     31889     31891
     31892     31893     31894     31895     31894     31897     31894     31898
     31894     31896     31897     31898     31899     31900     31899     31902
     31899     31903     31899     31901     31902     31903     31904     31905
     31904     31907     31904     31908     31904     31906     31907     31908
     31909     31910     31909     31912     31909     31913     31909     31911
     31912     31913     31914     31915     31914     31917     31914     31918
     31914     31916     31917     31918     31919     31920     31919     31922
     31919     31923     31919     31921     31922     31923     31924     31925
     31924     31927     31924     31928     31924     31926     31927     31928
     31929     31930     31929     31932     31929     31933     31929     31931
     31932     31933     31934     31935     31934     31937     31934     31938
     31934     31936     31937     31938     31939     31940     31939     31942
     31939     31943     31939     31941     31942     31943     31944     31945
     31944     31947     31944     31948     31944     31946     31947     31948
     31949     31950     31949     31952     31949     31953     31949     31951
     31952     31953     31954     31955     31954     31957     31954     31958
     31954     31956     31957     31958     31959     31960     31959     31962
     31959     31963     31959     31961     31962     31963     31964     31965
     31964     31967     31964     31968     31964     31966     31967     31968
     31969     31970     31969     31972     31969     31973     31969     31971
     31972     31973     31974     31975     31974     31977     31974     31978
     31974     31976     31977     31978     31979     31980     31979     31982
     31979     31983     31979     31981     31982     31983     31984     31985
     31984     31987     31984     31988     31984     31986     31987     31988
     31989     31990     31989     31992     31989     31993     31989     31991
     31992     31993     31994     31995     31994     31997     31994     31998
     31994     31996     31997     31998     31999     32000     31999     32002
     31999     32003     31999     32001     32002     32003     32004     32005
     32004     32007     32004     32008     32004     32006     32007     32008
     32009     32010     32009     32012     32009     32013     32009     32011
     32012     32013     32014     32015     32014     32017     32014     32018
     32014     32016     32017     32018     32019     32020     32019     32022
     32019     32023     32019     32021     32022     32023     32024     32025
     32024     32027     32024     32028     32024     32026     32027     32028
     32029     32030     32029     32032     32029     32033     32029     32031
     32032     32033     32034     32035     32034     32037     32034     32038
     32034     32036     32037     32038     32039     32040     32039     32042
     32039     32043     32039     32041     32042     32043     32044     32045
     32044     32047     32044     32048     32044     32046     32047     32048
     32049     32050     32049     32052     32049     32053     32049     32051
     32052     32053     32054     32055     32054     32057     32054     32058
     32054     32056     32057     32058     32059     32060     32059     32062
     32059     32063     32059     32061     32062     32063     32064     32065
     32064     32067     32064     32068     32064     32066     32067     32068
     32069     32070     32069     32072     32069     32073     32069     32071
     32072     32073     32074     32075     32074     32077     32074     32078
     32074     32076     32077     32078     32079     32080     32079     32082
     32079     32083     32079     32081     32082     32083     32084     32085
     32084     32087     32084     32088     32084     32086     32087     32088
     32089     32090     32089     32092     32089     32093     32089     32091
     32092     32093     32094     32095     32094     32097     32094     32098
     32094     32096     32097     32098     32099     32100     32099     32102
     32099     32103     32099     32101     32102     32103     32104     32105
     32104     32107     32104     32108     32104     32106     32107     32108
     32109     32110     32109     32112     32109     32113     32109     32111
     32112     32113     32114     32115     32114     32117     32114     32118
     32114     32116     32117     32118     32119     32120     32119     32122
     32119     32123     32119     32121     32122     32123     32124     32125
     32124     32127     32124     32128     32124     32126     32127     32128
     32129     32130     32129     32132     32129     32133     32129     32131
     32132     32133     32134     32135     32134     32137     32134     32138
     32134     32136     32137     32138     32139     32140     32139     32142
     32139     32143     32139     32141     32142     32143     32144     32145
     32144     32147     32144     32148     32144     32146     32147     32148
     32149     32150     32149     32152     32149     32153     32149     32151
     32152     32153     32154     32155     32154     32157     32154     32158
     32154     32156     32157     32158     32159     32160     32159     32162
     32159     32163     32159     32161     32162     32163     32164     32165
     32164     32167     32164     32168     32164     32166     32167     32168
     32169     32170     32169     32172     32169     32173     32169     32171
     32172     32173     32174     32175     32174     32177     32174     32178
     32174     32176     32177     32178     32179     32180     32179     32182
     32179     32183     32179     32181     32182     32183     32184     32185
     32184     32187     32184     32188     32184     32186     32187     32188
     32189     32190     32189     32192     32189     32193     32189     32191
     32192     32193     32194     32195     32194     32197     32194     32198
     32194     32196     32197     32198     32199     32200     32199     32202
     32199     32203     32199     32201     32202     32203     32204     32205
     32204     32207     32204     32208     32204     32206     32207     32208
     32209     32210     32209     32212     32209     32213     32209     32211
     32212     32213     32214     32215     32214     32217     32214     32218
     32214     32216     32217     32218     32219     32220     32219     32222
     32219     32223     32219     32221     32222     32223     32224     32225
     32224     32227     32224     32228     32224     32226     32227     32228
     32229     32230     32229     32232     32229     32233     32229     32231
     32232     32233     32234     32235     32234     32237     32234     32238
     32234     32236     32237     32238     32239     32240     32239     32242
     32239     32243     32239     32241     32242     32243     32244     32245
     32244     32247     32244     32248     32244     32246     32247     32248
     32249     32250     32249     32252     32249     32253     32249     32251
     32252     32253     32254     32255     32254     32257     32254     32258
     32254     32256     32257     32258     32259     32260     32259     32262
     32259     32263     32259     32261     32262     32263     32264     32265
     32264     32267     32264     32268     32264     32266     32267     32268
     32269     32270     32269     32272     32269     32273     32269     32271
     32272     32273     32274     32275     32274     32277     32274     32278
     32274     32276     32277     32278     32279     32280     32279     32282
     32279     32283     32279     32281     32282     32283     32284     32285
     32284     32287     32284     32288     32284     32286     32287     32288
     32289     32290     32289     32292     32289     32293     32289     32291
     32292     32293     32294     32295     32294     32297     32294     32298
     32294     32296     32297     32298     32299     32300     32299     32302
     32299     32303     32299     32301     32302     32303     32304     32305
     32304     32307     32304     32308     32304     32306     32307     32308
     32309     32310     32309     32312     32309     32313     32309     32311
     32312     32313     32314     32315     32314     32317     32314     32318
     32314     32316     32317     32318     32319     32320     32319     32322
     32319     32323     32319     32321     32322     32323     32324     32325
     32324     32327     32324     32328     32324     32326     32327     32328
     32329     32330     32329     32332     32329     32333     32329     32331
     32332     32333     32334     32335     32334     32337     32334     32338
     32334     32336     32337     32338     32339     32340     32339     32342
     32339     32343     32339     32341     32342     32343     32344     32345
     32344     32347     32344     32348     32344     32346     32347     32348
     32349     32350     32349     32352     32349     32353     32349     32351
     32352     32353     32354     32355     32354     32357     32354     32358
     32354     32356     32357     32358     32359     32360     32359     32362
     32359     32363     32359     32361     32362     32363     32364     32365
     32364     32367     32364     32368     32364     32366     32367     32368
     32369     32370     32369     32372     32369     32373     32369     32371
     32372     32373     32374     32375     32374     32377     32374     32378
     32374     32376     32377     32378     32379     32380     32379     32382
     32379     32383     32379     32381     32382     32383     32384     32385
     32384     32387     32384     32388     32384     32386     32387     32388
     32389     32390     32389     32392     32389     32393     32389     32391
     32392     32393     32394     32395     32394     32397     32394     32398
     32394     32396     32397     32398     32399     32400     32399     32402
     32399     32403     32399     32401     32402     32403     32404     32405
     32404     32407     32404     32408     32404     32406     32407     32408
     32409     32410     32409     32412     32409     32413     32409     32411
     32412     32413     32414     32415     32414     32417     32414     32418
     32414     32416     32417     32418     32419     32420     32419     32422
     32419     32423     32419     32421     32422     32423     32424     32425
     32424     32427     32424     32428     32424     32426     32427     32428
     32429     32430     32429     32432     32429     32433     32429     32431
     32432     32433     32434     32435     32434     32437     32434     32438
     32434     32436     32437     32438     32439     32440     32439     32442
     32439     32443     32439     32441     32442     32443     32444     32445
     32444     32447     32444     32448     32444     32446     32447     32448
     32449     32450     32449     32452     32449     32453     32449     32451
     32452     32453     32454     32455     32454     32457     32454     32458
     32454     32456     32457     32458     32459     32460     32459     32462
     32459     32463     32459     32461     32462     32463     32464     32465
     32464     32467     32464     32468     32464     32466     32467     32468
     32469     32470     32469     32472     32469     32473     32469     32471
     32472     32473     32474     32475     32474     32477     32474     32478
     32474     32476     32477     32478     32479     32480     32479     32482
     32479     32483     32479     32481     32482     32483     32484     32485
     32484     32487     32484     32488     32484     32486     32487     32488
     32489     32490     32489     32492     32489     32493     32489     32491
     32492     32493     32494     32495     32494     32497     32494     32498
     32494     32496     32497     32498     32499     32500     32499     32502
     32499     32503     32499     32501     32502     32503     32504     32505
     32504     32507     32504     32508     32504     32506     32507     32508
     32509     32510     32509     32512     32509     32513     32509     32511
     32512     32513     32514     32515     32514     32517     32514     32518
     32514     32516     32517     32518     32519     32520     32519     32522
     32519     32523     32519     32521     32522     32523     32524     32525
     32524     32527     32524     32528     32524     32526     32527     32528
     32529     32530     32529     32532     32529     32533     32529     32531
     32532     32533     32534     32535     32534     32537     32534     32538
     32534     32536     32537     32538     32539     32540     32539     32542
     32539     32543     32539     32541     32542     32543     32544     32545
     32544     32547     32544     32548     32544     32546     32547     32548
     32549     32550     32549     32552     32549     32553     32549     32551
     32552     32553     32554     32555     32554     32557     32554     32558
     32554     32556     32557     32558     32559     32560     32559     32562
     32559     32563     32559     32561     32562     32563     32564     32565
     32564     32567     32564     32568     32564     32566     32567     32568
     32569     32570     32569     32572     32569     32573     32569     32571
     32572     32573     32574     32575     32574     32577     32574     32578
     32574     32576     32577     32578     32579     32580     32579     32582
     32579     32583     32579     32581     32582     32583     32584     32585
     32584     32587     32584     32588     32584     32586     32587     32588
     32589     32590     32589     32592     32589     32593     32589     32591
     32592     32593     32594     32595     32594     32597     32594     32598
     32594     32596     32597     32598     32599     32600     32599     32602
     32599     32603     32599     32601     32602     32603     32604     32605
     32604     32607     32604     32608     32604     32606     32607     32608
     32609     32610     32609     32612     32609     32613     32609     32611
     32612     32613     32614     32615     32614     32617     32614     32618
     32614     32616     32617     32618     32619     32620     32619     32622
     32619     32623     32619     32621     32622     32623     32624     32625
     32624     32627     32624     32628     32624     32626     32627     32628
     32629     32630     32629     32632     32629     32633     32629     32631
     32632     32633     32634     32635     32634     32637     32634     32638
     32634     32636     32637     32638     32639     32640     32639     32642
     32639     32643     32639     32641     32642     32643     32644     32645
     32644     32647     32644     32648     32644     32646     32647     32648
     32649     32650     32649     32652     32649     32653     32649     32651
     32652     32653     32654     32655     32654     32657     32654     32658
     32654     32656     32657     32658     32659     32660     32659     32662
     32659     32663     32659     32661     32662     32663     32664     32665
     32664     32667     32664     32668     32664     32666     32667     32668
     32669     32670     32669     32672     32669     32673     32669     32671
     32672     32673     32674     32675     32674     32677     32674     32678
     32674     32676     32677     32678     32679     32680     32679     32682
     32679     32683     32679     32681     32682     32683     32684     32685
     32684     32687     32684     32688     32684     32686     32687     32688
     32689     32690     32689     32692     32689     32693     32689     32691
     32692     32693     32694     32695     32694     32697     32694     32698
     32694     32696     32697     32698     32699     32700     32699     32702
     32699     32703     32699     32701     32702     32703     32704     32705
     32704     32707     32704     32708     32704     32706     32707     32708
     32709     32710     32709     32712     32709     32713     32709     32711
     32712     32713     32714     32715     32714     32717     32714     32718
     32714     32716     32717     32718     32719     32720     32719     32722
     32719     32723     32719     32721     32722     32723     32724     32725
     32724     32727     32724     32728     32724     32726     32727     32728
     32729     32730     32729     32732     32729     32733     32729     32731
     32732     32733     32734     32735     32734     32737     32734     32738
     32734     32736     32737     32738     32739     32740     32739     32742
     32739     32743     32739     32741     32742     32743     32744     32745
     32744     32747     32744     32748     32744     32746     32747     32748
     32749     32750     32749     32752     32749     32753     32749     32751
     32752     32753     32754     32755     32754     32757     32754     32758
     32754     32756     32757     32758     32759     32760     32759     32762
     32759     32763     32759     32761     32762     32763     32764     32765
     32764     32767     32764     32768     32764     32766     32767     32768
     32769     32770     32769     32772     32769     32773     32769     32771
     32772     32773     32774     32775     32774     32777     32774     32778
     32774     32776     32777     32778     32779     32780     32779     32782
     32779     32783     32779     32781     32782     32783     32784     32785
     32784     32787     32784     32788     32784     32786     32787     32788
     32789     32790     32789     32792     32789     32793     32789     32791
     32792     32793     32794     32795     32794     32797     32794     32798
     32794     32796     32797     32798     32799     32800     32799     32802
     32799     32803     32799     32801     32802     32803     32804     32805
     32804     32807     32804     32808     32804     32806     32807     32808
     32809     32810     32809     32812     32809     32813     32809     32811
     32812     32813     32814     32815     32814     32817     32814     32818
     32814     32816     32817     32818     32819     32820     32819     32822
     32819     32823     32819     32821     32822     32823     32824     32825
     32824     32827     32824     32828     32824     32826     32827     32828
     32829     32830     32829     32832     32829     32833     32829     32831
     32832     32833     32834     32835     32834     32837     32834     32838
     32834     32836     32837     32838     32839     32840     32839     32842
     32839     32843     32839     32841     32842     32843     32844     32845
     32844     32847     32844     32848     32844     32846     32847     32848
     32849     32850     32849     32852     32849     32853     32849     32851
     32852     32853     32854     32855     32854     32857     32854     32858
     32854     32856     32857     32858     32859     32860     32859     32862
     32859     32863     32859     32861     32862     32863     32864     32865
     32864     32867     32864     32868     32864     32866     32867     32868
     32869     32870     32869     32872     32869     32873     32869     32871
     32872     32873     32874     32875     32874     32877     32874     32878
     32874     32876     32877     32878     32879     32880     32879     32882
     32879     32883     32879     32881     32882     32883     32884     32885
     32884     32887     32884     32888     32884     32886     32887     32888
     32889     32890     32889     32892     32889     32893     32889     32891
     32892     32893     32894     32895     32894     32897     32894     32898
     32894     32896     32897     32898     32899     32900     32899     32902
     32899     32903     32899     32901     32902     32903     32904     32905
     32904     32907     32904     32908     32904     32906     32907     32908
     32909     32910     32909     32912     32909     32913     32909     32911
     32912     32913     32914     32915     32914     32917     32914     32918
     32914     32916     32917     32918     32919     32920     32919     32922
     32919     32923     32919     32921     32922     32923     32924     32925
     32924     32927     32924     32928     32924     32926     32927     32928
     32929     32930     32929     32932     32929     32933     32929     32931
     32932     32933     32934     32935     32934     32937     32934     32938
     32934     32936     32937     32938     32939     32940     32939     32942
     32939     32943     32939     32941     32942     32943     32944     32945
     32944     32947     32944     32948     32944     32946     32947     32948
     32949     32950     32949     32952     32949     32953     32949     32951
     32952     32953     32954     32955     32954     32957     32954     32958
     32954     32956     32957     32958     32959     32960     32959     32962
     32959     32963     32959     32961     32962     32963     32964     32965
     32964     32967     32964     32968     32964     32966     32967     32968
     32969     32970     32969     32972     32969     32973     32969     32971
     32972     32973     32974     32975     32974     32977     32974     32978
     32974     32976     32977     32978     32979     32980     32979     32982
     32979     32983     32979     32981     32982     32983     32984     32985
     32984     32987     32984     32988     32984     32986     32987     32988
     32989     32990     32989     32992     32989     32993     32989     32991
     32992     32993     32994     32995     32994     32997     32994     32998
     32994     32996     32997     32998     32999     33000     32999     33002
     32999     33003     32999     33001     33002     33003     33004     33005
     33004     33007     33004     33008     33004     33006     33007     33008
     33009     33010     33009     33012     33009     33013     33009     33011
     33012     33013     33014     33015     33014     33017     33014     33018
     33014     33016     33017     33018     33019     33020     33019     33022
     33019     33023     33019     33021     33022     33023     33024     33025
     33024     33027     33024     33028     33024     33026     33027     33028
     33029     33030     33029     33032     33029     33033     33029     33031
     33032     33033     33034     33035     33034     33037     33034     33038
     33034     33036     33037     33038     33039     33040     33039     33042
     33039     33043     33039     33041     33042     33043     33044     33045
     33044     33047     33044     33048     33044     33046     33047     33048
     33049     33050     33049     33052     33049     33053     33049     33051
     33052     33053     33054     33055     33054     33057     33054     33058
     33054     33056     33057     33058     33059     33060     33059     33062
     33059     33063     33059     33061     33062     33063     33064     33065
     33064     33067     33064     33068     33064     33066     33067     33068
     33069     33070     33069     33072     33069     33073     33069     33071
     33072     33073     33074     33075     33074     33077     33074     33078
     33074     33076     33077     33078     33079     33080     33079     33082
     33079     33083     33079     33081     33082     33083     33084     33085
     33084     33087     33084     33088     33084     33086     33087     33088
     33089     33090     33089     33092     33089     33093     33089     33091
     33092     33093     33094     33095     33094     33097     33094     33098
     33094     33096     33097     33098     33099     33100     33099     33102
     33099     33103     33099     33101     33102     33103     33104     33105
     33104     33107     33104     33108     33104     33106     33107     33108
     33109     33110     33109     33112     33109     33113     33109     33111
     33112     33113     33114     33115     33114     33117     33114     33118
     33114     33116     33117     33118     33119     33120     33119     33122
     33119     33123     33119     33121     33122     33123     33124     33125
     33124     33127     33124     33128     33124     33126     33127     33128
     33129     33130     33129     33132     33129     33133     33129     33131
     33132     33133     33134     33135     33134     33137     33134     33138
     33134     33136     33137     33138     33139     33140     33139     33142
     33139     33143     33139     33141     33142     33143     33144     33145
     33144     33147     33144     33148     33144     33146     33147     33148
     33149     33150     33149     33152     33149     33153     33149     33151
     33152     33153     33154     33155     33154     33157     33154     33158
     33154     33156     33157     33158     33159     33160     33159     33162
     33159     33163     33159     33161     33162     33163     33164     33165
     33164     33167     33164     33168     33164     33166     33167     33168
     33169     33170     33169     33172     33169     33173     33169     33171
     33172     33173     33174     33175     33174     33177     33174     33178
     33174     33176     33177     33178     33179     33180     33179     33182
     33179     33183     33179     33181     33182     33183     33184     33185
     33184     33187     33184     33188     33184     33186     33187     33188
     33189     33190     33189     33192     33189     33193     33189     33191
     33192     33193     33194     33195     33194     33197     33194     33198
     33194     33196     33197     33198     33199     33200     33199     33202
     33199     33203     33199     33201     33202     33203     33204     33205
     33204     33207     33204     33208     33204     33206     33207     33208
     33209     33210     33209     33212     33209     33213     33209     33211
     33212     33213     33214     33215     33214     33217     33214     33218
     33214     33216     33217     33218     33219     33220     33219     33222
     33219     33223     33219     33221     33222     33223     33224     33225
     33224     33227     33224     33228     33224     33226     33227     33228
     33229     33230     33229     33232     33229     33233     33229     33231
     33232     33233     33234     33235     33234     33237     33234     33238
     33234     33236     33237     33238     33239     33240     33239     33242
     33239     33243     33239     33241     33242     33243     33244     33245
     33244     33247     33244     33248     33244     33246     33247     33248
     33249     33250     33249     33252     33249     33253     33249     33251
     33252     33253     33254     33255     33254     33257     33254     33258
     33254     33256     33257     33258     33259     33260     33259     33262
     33259     33263     33259     33261     33262     33263     33264     33265
     33264     33267     33264     33268     33264     33266     33267     33268
     33269     33270     33269     33272     33269     33273     33269     33271
     33272     33273     33274     33275     33274     33277     33274     33278
     33274     33276     33277     33278     33279     33280     33279     33282
     33279     33283     33279     33281     33282     33283     33284     33285
     33284     33287     33284     33288     33284     33286     33287     33288
     33289     33290     33289     33292     33289     33293     33289     33291
     33292     33293     33294     33295     33294     33297     33294     33298
     33294     33296     33297     33298     33299     33300     33299     33302
     33299     33303     33299     33301     33302     33303     33304     33305
     33304     33307     33304     33308     33304     33306     33307     33308
     33309     33310     33309     33312     33309     33313     33309     33311
     33312     33313     33314     33315     33314     33317     33314     33318
     33314     33316     33317     33318     33319     33320     33319     33322
     33319     33323     33319     33321     33322     33323     33324     33325
     33324     33327     33324     33328     33324     33326     33327     33328
     33329     33330     33329     33332     33329     33333     33329     33331
     33332     33333     33334     33335     33334     33337     33334     33338
     33334     33336     33337     33338     33339     33340     33339     33342
     33339     33343     33339     33341     33342     33343     33344     33345
     33344     33347     33344     33348     33344     33346     33347     33348
     33349     33350     33349     33352     33349     33353     33349     33351
     33352     33353     33354     33355     33354     33357     33354     33358
     33354     33356     33357     33358     33359     33360     33359     33362
     33359     33363     33359     33361     33362     33363     33364     33365
     33364     33367     33364     33368     33364     33366     33367     33368
     33369     33370     33369     33372     33369     33373     33369     33371
     33372     33373     33374     33375     33374     33377     33374     33378
     33374     33376     33377     33378     33379     33380     33379     33382
     33379     33383     33379     33381     33382     33383     33384     33385
     33384     33387     33384     33388     33384     33386     33387     33388
     33389     33390     33389     33392     33389     33393     33389     33391
     33392     33393     33394     33395     33394     33397     33394     33398
     33394     33396     33397     33398     33399     33400     33399     33402
     33399     33403     33399     33401     33402     33403     33404     33405
     33404     33407     33404     33408     33404     33406     33407     33408
     33409     33410     33409     33412     33409     33413     33409     33411
     33412     33413     33414     33415     33414     33417     33414     33418
     33414     33416     33417     33418     33419     33420     33419     33422
     33419     33423     33419     33421     33422     33423     33424     33425
     33424     33427     33424     33428     33424     33426     33427     33428
     33429     33430     33429     33432     33429     33433     33429     33431
     33432     33433     33434     33435     33434     33437     33434     33438
     33434     33436     33437     33438     33439     33440     33439     33442
     33439     33443     33439     33441     33442     33443     33444     33445
     33444     33447     33444     33448     33444     33446     33447     33448
     33449     33450     33449     33452     33449     33453     33449     33451
     33452     33453     33454     33455     33454     33457     33454     33458
     33454     33456     33457     33458     33459     33460     33459     33462
     33459     33463     33459     33461     33462     33463     33464     33465
     33464     33467     33464     33468     33464     33466     33467     33468
     33469     33470     33469     33472     33469     33473     33469     33471
     33472     33473     33474     33475     33474     33477     33474     33478
     33474     33476     33477     33478     33479     33480     33479     33482
     33479     33483     33479     33481     33482     33483     33484     33485
     33484     33487     33484     33488     33484     33486     33487     33488
     33489     33490     33489     33492     33489     33493     33489     33491
     33492     33493     33494     33495     33494     33497     33494     33498
     33494     33496     33497     33498     33499     33500     33499     33502
     33499     33503     33499     33501     33502     33503     33504     33505
     33504     33507     33504     33508     33504     33506     33507     33508
     33509     33510     33509     33512     33509     33513     33509     33511
     33512     33513     33514     33515     33514     33517     33514     33518
     33514     33516     33517     33518     33519     33520     33519     33522
     33519     33523     33519     33521     33522     33523     33524     33525
     33524     33527     33524     33528     33524     33526     33527     33528
     33529     33530     33529     33532     33529     33533     33529     33531
     33532     33533     33534     33535     33534     33537     33534     33538
     33534     33536     33537     33538     33539     33540     33539     33542
     33539     33543     33539     33541     33542     33543     33544     33545
     33544     33547     33544     33548     33544     33546     33547     33548
     33549     33550     33549     33552     33549     33553     33549     33551
     33552     33553     33554     33555     33554     33557     33554     33558
     33554     33556     33557     33558     33559     33560     33559     33562
     33559     33563     33559     33561     33562     33563     33564     33565
     33564     33567     33564     33568     33564     33566     33567     33568
     33569     33570     33569     33572     33569     33573     33569     33571
     33572     33573     33574     33575     33574     33577     33574     33578
     33574     33576     33577     33578     33579     33580     33579     33582
     33579     33583     33579     33581     33582     33583     33584     33585
     33584     33587     33584     33588     33584     33586     33587     33588
     33589     33590     33589     33592     33589     33593     33589     33591
     33592     33593     33594     33595     33594     33597     33594     33598
     33594     33596     33597     33598     33599     33600     33599     33602
     33599     33603     33599     33601     33602     33603     33604     33605
     33604     33607     33604     33608     33604     33606     33607     33608
     33609     33610     33609     33612     33609     33613     33609     33611
     33612     33613     33614     33615     33614     33617     33614     33618
     33614     33616     33617     33618     33619     33620     33619     33622
     33619     33623     33619     33621     33622     33623     33624     33625
     33624     33627     33624     33628     33624     33626     33627     33628
     33629     33630     33629     33632     33629     33633     33629     33631
     33632     33633     33634     33635     33634     33637     33634     33638
     33634     33636     33637     33638     33639     33640     33639     33642
     33639     33643     33639     33641     33642     33643     33644     33645
     33644     33647     33644     33648     33644     33646     33647     33648
     33649     33650     33649     33652     33649     33653     33649     33651
     33652     33653     33654     33655     33654     33657     33654     33658
     33654     33656     33657     33658     33659     33660     33659     33662
     33659     33663     33659     33661     33662     33663     33664     33665
     33664     33667     33664     33668     33664     33666     33667     33668
     33669     33670     33669     33672     33669     33673     33669     33671
     33672     33673     33674     33675     33674     33677     33674     33678
     33674     33676     33677     33678     33679     33680     33679     33682
     33679     33683     33679     33681     33682     33683     33684     33685
     33684     33687     33684     33688     33684     33686     33687     33688
     33689     33690     33689     33692     33689     33693     33689     33691
     33692     33693     33694     33695     33694     33697     33694     33698
     33694     33696     33697     33698     33699     33700     33699     33702
     33699     33703     33699     33701     33702     33703     33704     33705
     33704     33707     33704     33708     33704     33706     33707     33708
     33709     33710     33709     33712     33709     33713     33709     33711
     33712     33713     33714     33715     33714     33717     33714     33718
     33714     33716     33717     33718     33719     33720     33719     33722
     33719     33723     33719     33721     33722     33723     33724     33725
     33724     33727     33724     33728     33724     33726     33727     33728
     33729     33730     33729     33732     33729     33733     33729     33731
     33732     33733     33734     33735     33734     33737     33734     33738
     33734     33736     33737     33738     33739     33740     33739     33742
     33739     33743     33739     33741     33742     33743     33744     33745
     33744     33747     33744     33748     33744     33746     33747     33748
     33749     33750     33749     33752     33749     33753     33749     33751
     33752     33753     33754     33755     33754     33757     33754     33758
     33754     33756     33757     33758     33759     33760     33759     33762
     33759     33763     33759     33761     33762     33763     33764     33765
     33764     33767     33764     33768     33764     33766     33767     33768
     33769     33770     33769     33772     33769     33773     33769     33771
     33772     33773     33774     33775     33774     33777     33774     33778
     33774     33776     33777     33778     33779     33780     33779     33782
     33779     33783     33779     33781     33782     33783     33784     33785
     33784     33787     33784     33788     33784     33786     33787     33788
     33789     33790     33789     33792     33789     33793     33789     33791
     33792     33793     33794     33795     33794     33797     33794     33798
     33794     33796     33797     33798     33799     33800     33799     33802
     33799     33803     33799     33801     33802     33803     33804     33805
     33804     33807     33804     33808     33804     33806     33807     33808
     33809     33810     33809     33812     33809     33813     33809     33811
     33812     33813     33814     33815     33814     33817     33814     33818
     33814     33816     33817     33818     33819     33820     33819     33822
     33819     33823     33819     33821     33822     33823     33824     33825
     33824     33827     33824     33828     33824     33826     33827     33828
     33829     33830     33829     33832     33829     33833     33829     33831
     33832     33833     33834     33835     33834     33837     33834     33838
     33834     33836     33837     33838     33839     33840     33839     33842
     33839     33843     33839     33841     33842     33843     33844     33845
     33844     33847     33844     33848     33844     33846     33847     33848
     33849     33850     33849     33852     33849     33853     33849     33851
     33852     33853     33854     33855     33854     33857     33854     33858
     33854     33856     33857     33858     33859     33860     33859     33862
     33859     33863     33859     33861     33862     33863     33864     33865
     33864     33867     33864     33868     33864     33866     33867     33868
     33869     33870     33869     33872     33869     33873     33869     33871
     33872     33873     33874     33875     33874     33877     33874     33878
     33874     33876     33877     33878     33879     33880     33879     33882
     33879     33883     33879     33881     33882     33883     33884     33885
     33884     33887     33884     33888     33884     33886     33887     33888
     33889     33890     33889     33892     33889     33893     33889     33891
     33892     33893     33894     33895     33894     33897     33894     33898
     33894     33896     33897     33898     33899     33900     33899     33902
     33899     33903     33899     33901     33902     33903     33904     33905
     33904     33907     33904     33908     33904     33906     33907     33908
     33909     33910     33909     33912     33909     33913     33909     33911
     33912     33913     33914     33915     33914     33917     33914     33918
     33914     33916     33917     33918     33919     33920     33919     33922
     33919     33923     33919     33921     33922     33923     33924     33925
     33924     33927     33924     33928     33924     33926     33927     33928
     33929     33930     33929     33932     33929     33933     33929     33931
     33932     33933     33934     33935     33934     33937     33934     33938
     33934     33936     33937     33938     33939     33940     33939     33942
     33939     33943     33939     33941     33942     33943     33944     33945
     33944     33947     33944     33948     33944     33946     33947     33948
     33949     33950     33949     33952     33949     33953     33949     33951
     33952     33953     33954     33955     33954     33957     33954     33958
     33954     33956     33957     33958     33959     33960     33959     33962
     33959     33963     33959     33961     33962     33963     33964     33965
     33964     33967     33964     33968     33964     33966     33967     33968
     33969     33970     33969     33972     33969     33973     33969     33971
     33972     33973     33974     33975     33974     33977     33974     33978
     33974     33976     33977     33978     33979     33980     33979     33982
     33979     33983     33979     33981     33982     33983     33984     33985
     33984     33987     33984     33988     33984     33986     33987     33988
     33989     33990     33989     33992     33989     33993     33989     33991
     33992     33993     33994     33995     33994     33997     33994     33998
     33994     33996     33997     33998     33999     34000     33999     34002
     33999     34003     33999     34001     34002     34003     34004     34005
     34004     34007     34004     34008     34004     34006     34007     34008
     34009     34010     34009     34012     34009     34013     34009     34011
     34012     34013     34014     34015     34014     34017     34014     34018
     34014     34016     34017     34018     34019     34020     34019     34022
     34019     34023     34019     34021     34022     34023     34024     34025
     34024     34027     34024     34028     34024     34026     34027     34028
     34029     34030     34029     34032     34029     34033     34029     34031
     34032     34033     34034     34035     34034     34037     34034     34038
     34034     34036     34037     34038     34039     34040     34039     34042
     34039     34043     34039     34041     34042     34043     34044     34045
     34044     34047     34044     34048     34044     34046     34047     34048
     34049     34050     34049     34052     34049     34053     34049     34051
     34052     34053     34054     34055     34054     34057     34054     34058
     34054     34056     34057     34058     34059     34060     34059     34062
     34059     34063     34059     34061     34062     34063     34064     34065
     34064     34067     34064     34068     34064     34066     34067     34068
     34069     34070     34069     34072     34069     34073     34069     34071
     34072     34073     34074     34075     34074     34077     34074     34078
     34074     34076     34077     34078     34079     34080     34079     34082
     34079     34083     34079     34081     34082     34083     34084     34085
     34084     34087     34084     34088     34084     34086     34087     34088
     34089     34090     34089     34092     34089     34093     34089     34091
     34092     34093     34094     34095     34094     34097     34094     34098
     34094     34096     34097     34098     34099     34100     34099     34102
     34099     34103     34099     34101     34102     34103     34104     34105
     34104     34107     34104     34108     34104     34106     34107     34108
     34109     34110     34109     34112     34109     34113     34109     34111
     34112     34113     34114     34115     34114     34117     34114     34118
     34114     34116     34117     34118     34119     34120     34119     34122
     34119     34123     34119     34121     34122     34123     34124     34125
     34124     34127     34124     34128     34124     34126     34127     34128
     34129     34130     34129     34132     34129     34133     34129     34131
     34132     34133     34134     34135     34134     34137     34134     34138
     34134     34136     34137     34138     34139     34140     34139     34142
     34139     34143     34139     34141     34142     34143     34144     34145
     34144     34147     34144     34148     34144     34146     34147     34148
     34149     34150     34149     34152     34149     34153     34149     34151
     34152     34153     34154     34155     34154     34157     34154     34158
     34154     34156     34157     34158     34159     34160     34159     34162
     34159     34163     34159     34161     34162     34163     34164     34165
     34164     34167     34164     34168     34164     34166     34167     34168
     34169     34170     34169     34172     34169     34173     34169     34171
     34172     34173     34174     34175     34174     34177     34174     34178
     34174     34176     34177     34178     34179     34180     34179     34182
     34179     34183     34179     34181     34182     34183     34184     34185
     34184     34187     34184     34188     34184     34186     34187     34188
     34189     34190     34189     34192     34189     34193     34189     34191
     34192     34193     34194     34195     34194     34197     34194     34198
     34194     34196     34197     34198     34199     34200     34199     34202
     34199     34203     34199     34201     34202     34203     34204     34205
     34204     34207     34204     34208     34204     34206     34207     34208
     34209     34210     34209     34212     34209     34213     34209     34211
     34212     34213     34214     34215     34214     34217     34214     34218
     34214     34216     34217     34218     34219     34220     34219     34222
     34219     34223     34219     34221     34222     34223     34224     34225
     34224     34227     34224     34228     34224     34226     34227     34228
     34229     34230     34229     34232     34229     34233     34229     34231
     34232     34233     34234     34235     34234     34237     34234     34238
     34234     34236     34237     34238     34239     34240     34239     34242
     34239     34243     34239     34241     34242     34243     34244     34245
     34244     34247     34244     34248     34244     34246     34247     34248
     34249     34250     34249     34252     34249     34253     34249     34251
     34252     34253     34254     34255     34254     34257     34254     34258
     34254     34256     34257     34258     34259     34260     34259     34262
     34259     34263     34259     34261     34262     34263     34264     34265
     34264     34267     34264     34268     34264     34266     34267     34268
     34269     34270     34269     34272     34269     34273     34269     34271
     34272     34273     34274     34275     34274     34277     34274     34278
     34274     34276     34277     34278     34279     34280     34279     34282
     34279     34283     34279     34281     34282     34283     34284     34285
     34284     34287     34284     34288     34284     34286     34287     34288
     34289     34290     34289     34292     34289     34293     34289     34291
     34292     34293     34294     34295     34294     34297     34294     34298
     34294     34296     34297     34298     34299     34300     34299     34302
     34299     34303     34299     34301     34302     34303     34304     34305
     34304     34307     34304     34308     34304     34306     34307     34308
     34309     34310     34309     34312     34309     34313     34309     34311
     34312     34313     34314     34315     34314     34317     34314     34318
     34314     34316     34317     34318     34319     34320     34319     34322
     34319     34323     34319     34321     34322     34323     34324     34325
     34324     34327     34324     34328     34324     34326     34327     34328
     34329     34330     34329     34332     34329     34333     34329     34331
     34332     34333     34334     34335     34334     34337     34334     34338
     34334     34336     34337     34338     34339     34340     34339     34342
     34339     34343     34339     34341     34342     34343     34344     34345
     34344     34347     34344     34348     34344     34346     34347     34348
     34349     34350     34349     34352     34349     34353     34349     34351
     34352     34353     34354     34355     34354     34357     34354     34358
     34354     34356     34357     34358     34359     34360     34359     34362
     34359     34363     34359     34361     34362     34363     34364     34365
     34364     34367     34364     34368     34364     34366     34367     34368
     34369     34370     34369     34372     34369     34373     34369     34371
     34372     34373     34374     34375     34374     34377     34374     34378
     34374     34376     34377     34378     34379     34380     34379     34382
     34379     34383     34379     34381     34382     34383     34384     34385
     34384     34387     34384     34388     34384     34386     34387     34388
     34389     34390     34389     34392     34389     34393     34389     34391
     34392     34393     34394     34395     34394     34397     34394     34398
     34394     34396     34397     34398     34399     34400     34399     34402
     34399     34403     34399     34401     34402     34403     34404     34405
     34404     34407     34404     34408     34404     34406     34407     34408
     34409     34410     34409     34412     34409     34413     34409     34411
     34412     34413     34414     34415     34414     34417     34414     34418
     34414     34416     34417     34418     34419     34420     34419     34422
     34419     34423     34419     34421     34422     34423     34424     34425
     34424     34427     34424     34428     34424     34426     34427     34428
     34429     34430     34429     34432     34429     34433     34429     34431
     34432     34433     34434     34435     34434     34437     34434     34438
     34434     34436     34437     34438     34439     34440     34439     34442
     34439     34443     34439     34441     34442     34443     34444     34445
     34444     34447     34444     34448     34444     34446     34447     34448
     34449     34450     34449     34452     34449     34453     34449     34451
     34452     34453     34454     34455     34454     34457     34454     34458
     34454     34456     34457     34458     34459     34460     34459     34462
     34459     34463     34459     34461     34462     34463     34464     34465
     34464     34467     34464     34468     34464     34466     34467     34468
     34469     34470     34469     34472     34469     34473     34469     34471
     34472     34473     34474     34475     34474     34477     34474     34478
     34474     34476     34477     34478     34479     34480     34479     34482
     34479     34483     34479     34481     34482     34483     34484     34485
     34484     34487     34484     34488     34484     34486     34487     34488
     34489     34490     34489     34492     34489     34493     34489     34491
     34492     34493     34494     34495     34494     34497     34494     34498
     34494     34496     34497     34498     34499     34500     34499     34502
     34499     34503     34499     34501     34502     34503     34504     34505
     34504     34507     34504     34508     34504     34506     34507     34508
     34509     34510     34509     34512     34509     34513     34509     34511
     34512     34513     34514     34515     34514     34517     34514     34518
     34514     34516     34517     34518     34519     34520     34519     34522
     34519     34523     34519     34521     34522     34523     34524     34525
     34524     34527     34524     34528     34524     34526     34527     34528
     34529     34530     34529     34532     34529     34533     34529     34531
     34532     34533     34534     34535     34534     34537     34534     34538
     34534     34536     34537     34538     34539     34540     34539     34542
     34539     34543     34539     34541     34542     34543     34544     34545
     34544     34547     34544     34548     34544     34546     34547     34548
     34549     34550     34549     34552     34549     34553     34549     34551
     34552     34553     34554     34555     34554     34557     34554     34558
     34554     34556     34557     34558     34559     34560     34559     34562
     34559     34563     34559     34561     34562     34563     34564     34565
     34564     34567     34564     34568     34564     34566     34567     34568
     34569     34570     34569     34572     34569     34573     34569     34571
     34572     34573     34574     34575     34574     34577     34574     34578
     34574     34576     34577     34578     34579     34580     34579     34582
     34579     34583     34579     34581     34582     34583     34584     34585
     34584     34587     34584     34588     34584     34586     34587     34588
     34589     34590     34589     34592     34589     34593     34589     34591
     34592     34593     34594     34595     34594     34597     34594     34598
     34594     34596     34597     34598     34599     34600     34599     34602
     34599     34603     34599     34601     34602     34603     34604     34605
     34604     34607     34604     34608     34604     34606     34607     34608
     34609     34610     34609     34612     34609     34613     34609     34611
     34612     34613     34614     34615     34614     34617     34614     34618
     34614     34616     34617     34618     34619     34620     34619     34622
     34619     34623     34619     34621     34622     34623     34624     34625
     34624     34627     34624     34628     34624     34626     34627     34628
     34629     34630     34629     34632     34629     34633     34629     34631
     34632     34633     34634     34635     34634     34637     34634     34638
     34634     34636     34637     34638     34639     34640     34639     34642
     34639     34643     34639     34641     34642     34643     34644     34645
     34644     34647     34644     34648     34644     34646     34647     34648
     34649     34650     34649     34652     34649     34653     34649     34651
     34652     34653     34654     34655     34654     34657     34654     34658
     34654     34656     34657     34658     34659     34660     34659     34662
     34659     34663     34659     34661     34662     34663     34664     34665
     34664     34667     34664     34668     34664     34666     34667     34668
     34669     34670     34669     34672     34669     34673     34669     34671
     34672     34673     34674     34675     34674     34677     34674     34678
     34674     34676     34677     34678     34679     34680     34679     34682
     34679     34683     34679     34681     34682     34683     34684     34685
     34684     34687     34684     34688     34684     34686     34687     34688
     34689     34690     34689     34692     34689     34693     34689     34691
     34692     34693     34694     34695     34694     34697     34694     34698
     34694     34696     34697     34698     34699     34700     34699     34702
     34699     34703     34699     34701     34702     34703     34704     34705
     34704     34707     34704     34708     34704     34706     34707     34708
     34709     34710     34709     34712     34709     34713     34709     34711
     34712     34713     34714     34715     34714     34717     34714     34718
     34714     34716     34717     34718     34719     34720     34719     34722
     34719     34723     34719     34721     34722     34723     34724     34725
     34724     34727     34724     34728     34724     34726     34727     34728
     34729     34730     34729     34732     34729     34733     34729     34731
     34732     34733     34734     34735     34734     34737     34734     34738
     34734     34736     34737     34738     34739     34740     34739     34742
     34739     34743     34739     34741     34742     34743     34744     34745
     34744     34747     34744     34748     34744     34746     34747     34748
     34749     34750     34749     34752     34749     34753     34749     34751
     34752     34753     34754     34755     34754     34757     34754     34758
     34754     34756     34757     34758     34759     34760     34759     34762
     34759     34763     34759     34761     34762     34763     34764     34765
     34764     34767     34764     34768     34764     34766     34767     34768
     34769     34770     34769     34772     34769     34773     34769     34771
     34772     34773     34774     34775     34774     34777     34774     34778
     34774     34776     34777     34778     34779     34780     34779     34782
     34779     34783     34779     34781     34782     34783     34784     34785
     34784     34787     34784     34788     34784     34786     34787     34788
     34789     34790     34789     34792     34789     34793     34789     34791
     34792     34793     34794     34795     34794     34797     34794     34798
     34794     34796     34797     34798     34799     34800     34799     34802
     34799     34803     34799     34801     34802     34803     34804     34805
     34804     34807     34804     34808     34804     34806     34807     34808
     34809     34810     34809     34812     34809     34813     34809     34811
     34812     34813     34814     34815     34814     34817     34814     34818
     34814     34816     34817     34818     34819     34820     34819     34822
     34819     34823     34819     34821     34822     34823     34824     34825
     34824     34827     34824     34828     34824     34826     34827     34828
     34829     34830     34829     34832     34829     34833     34829     34831
     34832     34833     34834     34835     34834     34837     34834     34838
     34834     34836     34837     34838     34839     34840     34839     34842
     34839     34843     34839     34841     34842     34843     34844     34845
     34844     34847     34844     34848     34844     34846     34847     34848
     34849     34850     34849     34852     34849     34853     34849     34851
     34852     34853     34854     34855     34854     34857     34854     34858
     34854     34856     34857     34858     34859     34860     34859     34862
     34859     34863     34859     34861     34862     34863     34864     34865
     34864     34867     34864     34868     34864     34866     34867     34868
     34869     34870     34869     34872     34869     34873     34869     34871
     34872     34873     34874     34875     34874     34877     34874     34878
     34874     34876     34877     34878     34879     34880     34879     34882
     34879     34883     34879     34881     34882     34883     34884     34885
     34884     34887     34884     34888     34884     34886     34887     34888
     34889     34890     34889     34892     34889     34893     34889     34891
     34892     34893     34894     34895     34894     34897     34894     34898
     34894     34896     34897     34898     34899     34900     34899     34902
     34899     34903     34899     34901     34902     34903     34904     34905
     34904     34907     34904     34908     34904     34906     34907     34908
     34909     34910     34909     34912     34909     34913     34909     34911
     34912     34913     34914     34915     34914     34917     34914     34918
     34914     34916     34917     34918     34919     34920     34919     34922
     34919     34923     34919     34921     34922     34923     34924     34925
     34924     34927     34924     34928     34924     34926     34927     34928
     34929     34930     34929     34932     34929     34933     34929     34931
     34932     34933     34934     34935     34934     34937     34934     34938
     34934     34936     34937     34938     34939     34940     34939     34942
     34939     34943     34939     34941     34942     34943     34944     34945
     34944     34947     34944     34948     34944     34946     34947     34948
     34949     34950     34949     34952     34949     34953     34949     34951
     34952     34953     34954     34955     34954     34957     34954     34958
     34954     34956     34957     34958     34959     34960     34959     34962
     34959     34963     34959     34961     34962     34963     34964     34965
     34964     34967     34964     34968     34964     34966     34967     34968
     34969     34970     34969     34972     34969     34973     34969     34971
     34972     34973     34974     34975     34974     34977     34974     34978
     34974     34976     34977     34978     34979     34980     34979     34982
     34979     34983     34979     34981     34982     34983     34984     34985
     34984     34987     34984     34988     34984     34986     34987     34988
     34989     34990     34989     34992     34989     34993     34989     34991
     34992     34993     34994     34995     34994     34997     34994     34998
     34994     34996     34997     34998     34999     35000     34999     35002
     34999     35003     34999     35001     35002     35003     35004     35005
     35004     35007     35004     35008     35004     35006     35007     35008
     35009     35010     35009     35012     35009     35013     35009     35011
     35012     35013     35014     35015     35014     35017     35014     35018
     35014     35016     35017     35018     35019     35020     35019     35022
     35019     35023     35019     35021     35022     35023     35024     35025
     35024     35027     35024     35028     35024     35026     35027     35028
     35029     35030     35029     35032     35029     35033     35029     35031
     35032     35033     35034     35035     35034     35037     35034     35038
     35034     35036     35037     35038     35039     35040     35039     35042
     35039     35043     35039     35041     35042     35043     35044     35045
     35044     35047     35044     35048     35044     35046     35047     35048
     35049     35050     35049     35052     35049     35053     35049     35051
     35052     35053     35054     35055     35054     35057     35054     35058
     35054     35056     35057     35058     35059     35060     35059     35062
     35059     35063     35059     35061     35062     35063     35064     35065
     35064     35067     35064     35068     35064     35066     35067     35068
     35069     35070     35069     35072     35069     35073     35069     35071
     35072     35073     35074     35075     35074     35077     35074     35078
     35074     35076     35077     35078     35079     35080     35079     35082
     35079     35083     35079     35081     35082     35083     35084     35085
     35084     35087     35084     35088     35084     35086     35087     35088
     35089     35090     35089     35092     35089     35093     35089     35091
     35092     35093     35094     35095     35094     35097     35094     35098
     35094     35096     35097     35098     35099     35100     35099     35102
     35099     35103     35099     35101     35102     35103     35104     35105
     35104     35107     35104     35108     35104     35106     35107     35108
     35109     35110     35109     35112     35109     35113     35109     35111
     35112     35113     35114     35115     35114     35117     35114     35118
     35114     35116     35117     35118     35119     35120     35119     35122
     35119     35123     35119     35121     35122     35123     35124     35125
     35124     35127     35124     35128     35124     35126     35127     35128
     35129     35130     35129     35132     35129     35133     35129     35131
     35132     35133     35134     35135     35134     35137     35134     35138
     35134     35136     35137     35138     35139     35140     35139     35142
     35139     35143     35139     35141     35142     35143     35144     35145
     35144     35147     35144     35148     35144     35146     35147     35148
     35149     35150     35149     35152     35149     35153     35149     35151
     35152     35153     35154     35155     35154     35157     35154     35158
     35154     35156     35157     35158     35159     35160     35159     35162
     35159     35163     35159     35161     35162     35163     35164     35165
     35164     35167     35164     35168     35164     35166     35167     35168
     35169     35170     35169     35172     35169     35173     35169     35171
     35172     35173     35174     35175     35174     35177     35174     35178
     35174     35176     35177     35178     35179     35180     35179     35182
     35179     35183     35179     35181     35182     35183     35184     35185
     35184     35187     35184     35188     35184     35186     35187     35188
     35189     35190     35189     35192     35189     35193     35189     35191
     35192     35193     35194     35195     35194     35197     35194     35198
     35194     35196     35197     35198     35199     35200     35199     35202
     35199     35203     35199     35201     35202     35203     35204     35205
     35204     35207     35204     35208     35204     35206     35207     35208
     35209     35210     35209     35212     35209     35213     35209     35211
     35212     35213     35214     35215     35214     35217     35214     35218
     35214     35216     35217     35218     35219     35220     35219     35222
     35219     35223     35219     35221     35222     35223     35224     35225
     35224     35227     35224     35228     35224     35226     35227     35228
     35229     35230     35229     35232     35229     35233     35229     35231
     35232     35233     35234     35235     35234     35237     35234     35238
     35234     35236     35237     35238     35239     35240     35239     35242
     35239     35243     35239     35241     35242     35243     35244     35245
     35244     35247     35244     35248     35244     35246     35247     35248
     35249     35250     35249     35252     35249     35253     35249     35251
     35252     35253     35254     35255     35254     35257     35254     35258
     35254     35256     35257     35258     35259     35260     35259     35262
     35259     35263     35259     35261     35262     35263     35264     35265
     35264     35267     35264     35268     35264     35266     35267     35268
     35269     35270     35269     35272     35269     35273     35269     35271
     35272     35273     35274     35275     35274     35277     35274     35278
     35274     35276     35277     35278     35279     35280     35279     35282
     35279     35283     35279     35281     35282     35283     35284     35285
     35284     35287     35284     35288     35284     35286     35287     35288
     35289     35290     35289     35292     35289     35293     35289     35291
     35292     35293     35294     35295     35294     35297     35294     35298
     35294     35296     35297     35298     35299     35300     35299     35302
     35299     35303     35299     35301     35302     35303     35304     35305
     35304     35307     35304     35308     35304     35306     35307     35308
     35309     35310     35309     35312     35309     35313     35309     35311
     35312     35313     35314     35315     35314     35317     35314     35318
     35314     35316     35317     35318     35319     35320     35319     35322
     35319     35323     35319     35321     35322     35323     35324     35325
     35324     35327     35324     35328     35324     35326     35327     35328
     35329     35330     35329     35332     35329     35333     35329     35331
     35332     35333     35334     35335     35334     35337     35334     35338
     35334     35336     35337     35338     35339     35340     35339     35342
     35339     35343     35339     35341     35342     35343     35344     35345
     35344     35347     35344     35348     35344     35346     35347     35348
     35349     35350     35349     35352     35349     35353     35349     35351
     35352     35353     35354     35355     35354     35357     35354     35358
     35354     35356     35357     35358     35359     35360     35359     35362
     35359     35363     35359     35361     35362     35363     35364     35365
     35364     35367     35364     35368     35364     35366     35367     35368
     35369     35370     35369     35372     35369     35373     35369     35371
     35372     35373     35374     35375     35374     35377     35374     35378
     35374     35376     35377     35378     35379     35380     35379     35382
     35379     35383     35379     35381     35382     35383     35384     35385
     35384     35387     35384     35388     35384     35386     35387     35388
     35389     35390     35389     35392     35389     35393     35389     35391
     35392     35393     35394     35395     35394     35397     35394     35398
     35394     35396     35397     35398     35399     35400     35399     35402
     35399     35403     35399     35401     35402     35403     35404     35405
     35404     35407     35404     35408     35404     35406     35407     35408
     35409     35410     35409     35412     35409     35413     35409     35411
     35412     35413     35414     35415     35414     35417     35414     35418
     35414     35416     35417     35418     35419     35420     35419     35422
     35419     35423     35419     35421     35422     35423     35424     35425
     35424     35427     35424     35428     35424     35426     35427     35428
     35429     35430     35429     35432     35429     35433     35429     35431
     35432     35433     35434     35435     35434     35437     35434     35438
     35434     35436     35437     35438     35439     35440     35439     35442
     35439     35443     35439     35441     35442     35443     35444     35445
     35444     35447     35444     35448     35444     35446     35447     35448
     35449     35450     35449     35452     35449     35453     35449     35451
     35452     35453     35454     35455     35454     35457     35454     35458
     35454     35456     35457     35458     35459     35460     35459     35462
     35459     35463     35459     35461     35462     35463     35464     35465
     35464     35467     35464     35468     35464     35466     35467     35468
     35469     35470     35469     35472     35469     35473     35469     35471
     35472     35473     35474     35475     35474     35477     35474     35478
     35474     35476     35477     35478     35479     35480     35479     35482
     35479     35483     35479     35481     35482     35483     35484     35485
     35484     35487     35484     35488     35484     35486     35487     35488
     35489     35490     35489     35492     35489     35493     35489     35491
     35492     35493     35494     35495     35494     35497     35494     35498
     35494     35496     35497     35498     35499     35500     35499     35502
     35499     35503     35499     35501     35502     35503     35504     35505
     35504     35507     35504     35508     35504     35506     35507     35508
     35509     35510     35509     35512     35509     35513     35509     35511
     35512     35513     35514     35515     35514     35517     35514     35518
     35514     35516     35517     35518     35519     35520     35519     35522
     35519     35523     35519     35521     35522     35523     35524     35525
     35524     35527     35524     35528     35524     35526     35527     35528
     35529     35530     35529     35532     35529     35533     35529     35531
     35532     35533     35534     35535     35534     35537     35534     35538
     35534     35536     35537     35538     35539     35540     35539     35542
     35539     35543     35539     35541     35542     35543     35544     35545
     35544     35547     35544     35548     35544     35546     35547     35548
     35549     35550     35549     35552     35549     35553     35549     35551
     35552     35553     35554     35555     35554     35557     35554     35558
     35554     35556     35557     35558     35559     35560     35559     35562
     35559     35563     35559     35561     35562     35563     35564     35565
     35564     35567     35564     35568     35564     35566     35567     35568
     35569     35570     35569     35572     35569     35573     35569     35571
     35572     35573     35574     35575     35574     35577     35574     35578
     35574     35576     35577     35578     35579     35580     35579     35582
     35579     35583     35579     35581     35582     35583     35584     35585
     35584     35587     35584     35588     35584     35586     35587     35588
     35589     35590     35589     35592     35589     35593     35589     35591
     35592     35593     35594     35595     35594     35597     35594     35598
     35594     35596     35597     35598     35599     35600     35599     35602
     35599     35603     35599     35601     35602     35603     35604     35605
     35604     35607     35604     35608     35604     35606     35607     35608
     35609     35610     35609     35612     35609     35613     35609     35611
     35612     35613     35614     35615     35614     35617     35614     35618
     35614     35616     35617     35618     35619     35620     35619     35622
     35619     35623     35619     35621     35622     35623     35624     35625
     35624     35627     35624     35628     35624     35626     35627     35628
     35629     35630     35629     35632     35629     35633     35629     35631
     35632     35633     35634     35635     35634     35637     35634     35638
     35634     35636     35637     35638     35639     35640     35639     35642
     35639     35643     35639     35641     35642     35643     35644     35645
     35644     35647     35644     35648     35644     35646     35647     35648
     35649     35650     35649     35652     35649     35653     35649     35651
     35652     35653     35654     35655     35654     35657     35654     35658
     35654     35656     35657     35658     35659     35660     35659     35662
     35659     35663     35659     35661     35662     35663     35664     35665
     35664     35667     35664     35668     35664     35666     35667     35668
     35669     35670     35669     35672     35669     35673     35669     35671
     35672     35673     35674     35675     35674     35677     35674     35678
     35674     35676     35677     35678     35679     35680     35679     35682
     35679     35683     35679     35681     35682     35683     35684     35685
     35684     35687     35684     35688     35684     35686     35687     35688
     35689     35690     35689     35692     35689     35693     35689     35691
     35692     35693     35694     35695     35694     35697     35694     35698
     35694     35696     35697     35698     35699     35700     35699     35702
     35699     35703     35699     35701     35702     35703     35704     35705
     35704     35707     35704     35708     35704     35706     35707     35708
     35709     35710     35709     35712     35709     35713     35709     35711
     35712     35713     35714     35715     35714     35717     35714     35718
     35714     35716     35717     35718     35719     35720     35719     35722
     35719     35723     35719     35721     35722     35723     35724     35725
     35724     35727     35724     35728     35724     35726     35727     35728
     35729     35730     35729     35732     35729     35733     35729     35731
     35732     35733     35734     35735     35734     35737     35734     35738
     35734     35736     35737     35738     35739     35740     35739     35742
     35739     35743     35739     35741     35742     35743     35744     35745
     35744     35747     35744     35748     35744     35746     35747     35748
     35749     35750     35749     35752     35749     35753     35749     35751
     35752     35753     35754     35755     35754     35757     35754     35758
     35754     35756     35757     35758     35759     35760     35759     35762
     35759     35763     35759     35761     35762     35763     35764     35765
     35764     35767     35764     35768     35764     35766     35767     35768
     35769     35770     35769     35772     35769     35773     35769     35771
     35772     35773     35774     35775     35774     35777     35774     35778
     35774     35776     35777     35778     35779     35780     35779     35782
     35779     35783     35779     35781     35782     35783     35784     35785
     35784     35787     35784     35788     35784     35786     35787     35788
     35789     35790     35789     35792     35789     35793     35789     35791
     35792     35793     35794     35795     35794     35797     35794     35798
     35794     35796     35797     35798     35799     35800     35799     35802
     35799     35803     35799     35801     35802     35803     35804     35805
     35804     35807     35804     35808     35804     35806     35807     35808
     35809     35810     35809     35812     35809     35813     35809     35811
     35812     35813     35814     35815     35814     35817     35814     35818
     35814     35816     35817     35818     35819     35820     35819     35822
     35819     35823     35819     35821     35822     35823     35824     35825
     35824     35827     35824     35828     35824     35826     35827     35828
     35829     35830     35829     35832     35829     35833     35829     35831
     35832     35833     35834     35835     35834     35837     35834     35838
     35834     35836     35837     35838     35839     35840     35839     35842
     35839     35843     35839     35841     35842     35843     35844     35845
     35844     35847     35844     35848     35844     35846     35847     35848
     35849     35850     35849     35852     35849     35853     35849     35851
     35852     35853     35854     35855     35854     35857     35854     35858
     35854     35856     35857     35858     35859     35860     35859     35862
     35859     35863     35859     35861     35862     35863     35864     35865
     35864     35867     35864     35868     35864     35866     35867     35868
     35869     35870     35869     35872     35869     35873     35869     35871
     35872     35873     35874     35875     35874     35877     35874     35878
     35874     35876     35877     35878     35879     35880     35879     35882
     35879     35883     35879     35881     35882     35883     35884     35885
     35884     35887     35884     35888     35884     35886     35887     35888
     35889     35890     35889     35892     35889     35893     35889     35891
     35892     35893     35894     35895     35894     35897     35894     35898
     35894     35896     35897     35898     35899     35900     35899     35902
     35899     35903     35899     35901     35902     35903     35904     35905
     35904     35907     35904     35908     35904     35906     35907     35908
     35909     35910     35909     35912     35909     35913     35909     35911
     35912     35913     35914     35915     35914     35917     35914     35918
     35914     35916     35917     35918     35919     35920     35919     35922
     35919     35923     35919     35921     35922     35923     35924     35925
     35924     35927     35924     35928     35924     35926     35927     35928
     35929     35930     35929     35932     35929     35933     35929     35931
     35932     35933     35934     35935     35934     35937     35934     35938
     35934     35936     35937     35938     35939     35940     35939     35942
     35939     35943     35939     35941     35942     35943     35944     35945
     35944     35947     35944     35948     35944     35946     35947     35948
     35949     35950     35949     35952     35949     35953     35949     35951
     35952     35953     35954     35955     35954     35957     35954     35958
     35954     35956     35957     35958     35959     35960     35959     35962
     35959     35963     35959     35961     35962     35963     35964     35965
     35964     35967     35964     35968     35964     35966     35967     35968
     35969     35970     35969     35972     35969     35973     35969     35971
     35972     35973     35974     35975     35974     35977     35974     35978
     35974     35976     35977     35978     35979     35980     35979     35982
     35979     35983     35979     35981     35982     35983     35984     35985
     35984     35987     35984     35988     35984     35986     35987     35988
     35989     35990     35989     35992     35989     35993     35989     35991
     35992     35993     35994     35995     35994     35997     35994     35998
     35994     35996     35997     35998     35999     36000     35999     36002
     35999     36003     35999     36001     36002     36003     36004     36005
     36004     36007     36004     36008     36004     36006     36007     36008
     36009     36010     36009     36012     36009     36013     36009     36011
     36012     36013     36014     36015     36014     36017     36014     36018
     36014     36016     36017     36018     36019     36020     36019     36022
     36019     36023     36019     36021     36022     36023     36024     36025
     36024     36027     36024     36028     36024     36026     36027     36028
     36029     36030     36029     36032     36029     36033     36029     36031
     36032     36033     36034     36035     36034     36037     36034     36038
     36034     36036     36037     36038     36039     36040     36039     36042
     36039     36043     36039     36041     36042     36043     36044     36045
     36044     36047     36044     36048     36044     36046     36047     36048
     36049     36050     36049     36052     36049     36053     36049     36051
     36052     36053     36054     36055     36054     36057     36054     36058
     36054     36056     36057     36058     36059     36060     36059     36062
     36059     36063     36059     36061     36062     36063     36064     36065
     36064     36067     36064     36068     36064     36066     36067     36068
     36069     36070     36069     36072     36069     36073     36069     36071
     36072     36073     36074     36075     36074     36077     36074     36078
     36074     36076     36077     36078     36079     36080     36079     36082
     36079     36083     36079     36081     36082     36083     36084     36085
     36084     36087     36084     36088     36084     36086     36087     36088
     36089     36090     36089     36092     36089     36093     36089     36091
     36092     36093     36094     36095     36094     36097     36094     36098
     36094     36096     36097     36098     36099     36100     36099     36102
     36099     36103     36099     36101     36102     36103     36104     36105
     36104     36107     36104     36108     36104     36106     36107     36108
     36109     36110     36109     36112     36109     36113     36109     36111
     36112     36113     36114     36115     36114     36117     36114     36118
     36114     36116     36117     36118     36119     36120     36119     36122
     36119     36123     36119     36121     36122     36123     36124     36125
     36124     36127     36124     36128     36124     36126     36127     36128
     36129     36130     36129     36132     36129     36133     36129     36131
     36132     36133     36134     36135     36134     36137     36134     36138
     36134     36136     36137     36138     36139     36140     36139     36142
     36139     36143     36139     36141     36142     36143     36144     36145
     36144     36147     36144     36148     36144     36146     36147     36148
     36149     36150     36149     36152     36149     36153     36149     36151
     36152     36153     36154     36155     36154     36157     36154     36158
     36154     36156     36157     36158     36159     36160     36159     36162
     36159     36163     36159     36161     36162     36163     36164     36165
     36164     36167     36164     36168     36164     36166     36167     36168
     36169     36170     36169     36172     36169     36173     36169     36171
     36172     36173     36174     36175     36174     36177     36174     36178
     36174     36176     36177     36178     36179     36180     36179     36182
     36179     36183     36179     36181     36182     36183     36184     36185
     36184     36187     36184     36188     36184     36186     36187     36188
     36189     36190     36189     36192     36189     36193     36189     36191
     36192     36193     36194     36195     36194     36197     36194     36198
     36194     36196     36197     36198     36199     36200     36199     36202
     36199     36203     36199     36201     36202     36203     36204     36205
     36204     36207     36204     36208     36204     36206     36207     36208
     36209     36210     36209     36212     36209     36213     36209     36211
     36212     36213     36214     36215     36214     36217     36214     36218
     36214     36216     36217     36218     36219     36220     36219     36222
     36219     36223     36219     36221     36222     36223     36224     36225
     36224     36227     36224     36228     36224     36226     36227     36228
     36229     36230     36229     36232     36229     36233     36229     36231
     36232     36233     36234     36235     36234     36237     36234     36238
     36234     36236     36237     36238     36239     36240     36239     36242
     36239     36243     36239     36241     36242     36243     36244     36245
     36244     36247     36244     36248     36244     36246     36247     36248
     36249     36250     36249     36252     36249     36253     36249     36251
     36252     36253     36254     36255     36254     36257     36254     36258
     36254     36256     36257     36258     36259     36260     36259     36262
     36259     36263     36259     36261     36262     36263     36264     36265
     36264     36267     36264     36268     36264     36266     36267     36268
     36269     36270     36269     36272     36269     36273     36269     36271
     36272     36273     36274     36275     36274     36277     36274     36278
     36274     36276     36277     36278     36279     36280     36279     36282
     36279     36283     36279     36281     36282     36283     36284     36285
     36284     36287     36284     36288     36284     36286     36287     36288
     36289     36290     36289     36292     36289     36293     36289     36291
     36292     36293     36294     36295     36294     36297     36294     36298
     36294     36296     36297     36298     36299     36300     36299     36302
     36299     36303     36299     36301     36302     36303     36304     36305
     36304     36307     36304     36308     36304     36306     36307     36308
     36309     36310     36309     36312     36309     36313     36309     36311
     36312     36313     36314     36315     36314     36317     36314     36318
     36314     36316     36317     36318     36319     36320     36319     36322
     36319     36323     36319     36321     36322     36323     36324     36325
     36324     36327     36324     36328     36324     36326     36327     36328
     36329     36330     36329     36332     36329     36333     36329     36331
     36332     36333     36334     36335     36334     36337     36334     36338
     36334     36336     36337     36338     36339     36340     36339     36342
     36339     36343     36339     36341     36342     36343     36344     36345
     36344     36347     36344     36348     36344     36346     36347     36348
     36349     36350     36349     36352     36349     36353     36349     36351
     36352     36353     36354     36355     36354     36357     36354     36358
     36354     36356     36357     36358     36359     36360     36359     36362
     36359     36363     36359     36361     36362     36363     36364     36365
     36364     36367     36364     36368     36364     36366     36367     36368
     36369     36370     36369     36372     36369     36373     36369     36371
     36372     36373     36374     36375     36374     36377     36374     36378
     36374     36376     36377     36378     36379     36380     36379     36382
     36379     36383     36379     36381     36382     36383     36384     36385
     36384     36387     36384     36388     36384     36386     36387     36388
     36389     36390     36389     36392     36389     36393     36389     36391
     36392     36393     36394     36395     36394     36397     36394     36398
     36394     36396     36397     36398     36399     36400     36399     36402
     36399     36403     36399     36401     36402     36403     36404     36405
     36404     36407     36404     36408     36404     36406     36407     36408
     36409     36410     36409     36412     36409     36413     36409     36411
     36412     36413     36414     36415     36414     36417     36414     36418
     36414     36416     36417     36418     36419     36420     36419     36422
     36419     36423     36419     36421     36422     36423     36424     36425
     36424     36427     36424     36428     36424     36426     36427     36428
     36429     36430     36429     36432     36429     36433     36429     36431
     36432     36433     36434     36435     36434     36437     36434     36438
     36434     36436     36437     36438     36439     36440     36439     36442
     36439     36443     36439     36441     36442     36443     36444     36445
     36444     36447     36444     36448     36444     36446     36447     36448
     36449     36450     36449     36452     36449     36453     36449     36451
     36452     36453     36454     36455     36454     36457     36454     36458
     36454     36456     36457     36458     36459     36460     36459     36462
     36459     36463     36459     36461     36462     36463     36464     36465
     36464     36467     36464     36468     36464     36466     36467     36468
     36469     36470     36469     36472     36469     36473     36469     36471
     36472     36473     36474     36475     36474     36477     36474     36478
     36474     36476     36477     36478     36479     36480     36479     36482
     36479     36483     36479     36481     36482     36483     36484     36485
     36484     36487     36484     36488     36484     36486     36487     36488
     36489     36490     36489     36492     36489     36493     36489     36491
     36492     36493     36494     36495     36494     36497     36494     36498
     36494     36496     36497     36498     36499     36500     36499     36502
     36499     36503     36499     36501     36502     36503     36504     36505
     36504     36507     36504     36508     36504     36506     36507     36508
     36509     36510     36509     36512     36509     36513     36509     36511
     36512     36513     36514     36515     36514     36517     36514     36518
     36514     36516     36517     36518     36519     36520     36519     36522
     36519     36523     36519     36521     36522     36523     36524     36525
     36524     36527     36524     36528     36524     36526     36527     36528
     36529     36530     36529     36532     36529     36533     36529     36531
     36532     36533     36534     36535     36534     36537     36534     36538
     36534     36536     36537     36538     36539     36540     36539     36542
     36539     36543     36539     36541     36542     36543     36544     36545
     36544     36547     36544     36548     36544     36546     36547     36548
     36549     36550     36549     36552     36549     36553     36549     36551
     36552     36553     36554     36555     36554     36557     36554     36558
     36554     36556     36557     36558     36559     36560     36559     36562
     36559     36563     36559     36561     36562     36563     36564     36565
     36564     36567     36564     36568     36564     36566     36567     36568
     36569     36570     36569     36572     36569     36573     36569     36571
     36572     36573     36574     36575     36574     36577     36574     36578
     36574     36576     36577     36578     36579     36580     36579     36582
     36579     36583     36579     36581     36582     36583     36584     36585
     36584     36587     36584     36588     36584     36586     36587     36588
     36589     36590     36589     36592     36589     36593     36589     36591
     36592     36593     36594     36595     36594     36597     36594     36598
     36594     36596     36597     36598     36599     36600     36599     36602
     36599     36603     36599     36601     36602     36603     36604     36605
     36604     36607     36604     36608     36604     36606     36607     36608
     36609     36610     36609     36612     36609     36613     36609     36611
     36612     36613     36614     36615     36614     36617     36614     36618
     36614     36616     36617     36618     36619     36620     36619     36622
     36619     36623     36619     36621     36622     36623     36624     36625
     36624     36627     36624     36628     36624     36626     36627     36628
     36629     36630     36629     36632     36629     36633     36629     36631
     36632     36633     36634     36635     36634     36637     36634     36638
     36634     36636     36637     36638     36639     36640     36639     36642
     36639     36643     36639     36641     36642     36643     36644     36645
     36644     36647     36644     36648     36644     36646     36647     36648
     36649     36650     36649     36652     36649     36653     36649     36651
     36652     36653     36654     36655     36654     36657     36654     36658
     36654     36656     36657     36658     36659     36660     36659     36662
     36659     36663     36659     36661     36662     36663     36664     36665
     36664     36667     36664     36668     36664     36666     36667     36668
     36669     36670     36669     36672     36669     36673     36669     36671
     36672     36673     36674     36675     36674     36677     36674     36678
     36674     36676     36677     36678     36679     36680     36679     36682
     36679     36683     36679     36681     36682     36683     36684     36685
     36684     36687     36684     36688     36684     36686     36687     36688
     36689     36690     36689     36692     36689     36693     36689     36691
     36692     36693     36694     36695     36694     36697     36694     36698
     36694     36696     36697     36698     36699     36700     36699     36702
     36699     36703     36699     36701     36702     36703     36704     36705
     36704     36707     36704     36708     36704     36706     36707     36708
     36709     36710     36709     36712     36709     36713     36709     36711
     36712     36713     36714     36715     36714     36717     36714     36718
     36714     36716     36717     36718     36719     36720     36719     36722
     36719     36723     36719     36721     36722     36723     36724     36725
     36724     36727     36724     36728     36724     36726     36727     36728
     36729     36730     36729     36732     36729     36733     36729     36731
     36732     36733     36734     36735     36734     36737     36734     36738
     36734     36736     36737     36738     36739     36740     36739     36742
     36739     36743     36739     36741     36742     36743     36744     36745
     36744     36747     36744     36748     36744     36746     36747     36748
     36749     36750     36749     36752     36749     36753     36749     36751
     36752     36753     36754     36755     36754     36757     36754     36758
     36754     36756     36757     36758     36759     36760     36759     36762
     36759     36763     36759     36761     36762     36763     36764     36765
     36764     36767     36764     36768     36764     36766     36767     36768
     36769     36770     36769     36772     36769     36773     36769     36771
     36772     36773     36774     36775     36774     36777     36774     36778
     36774     36776     36777     36778     36779     36780     36779     36782
     36779     36783     36779     36781     36782     36783     36784     36785
     36784     36787     36784     36788     36784     36786     36787     36788
     36789     36790     36789     36792     36789     36793     36789     36791
     36792     36793     36794     36795     36794     36797     36794     36798
     36794     36796     36797     36798     36799     36800     36799     36802
     36799     36803     36799     36801     36802     36803     36804     36805
     36804     36807     36804     36808     36804     36806     36807     36808
     36809     36810     36809     36812     36809     36813     36809     36811
     36812     36813     36814     36815     36814     36817     36814     36818
     36814     36816     36817     36818     36819     36820     36819     36822
     36819     36823     36819     36821     36822     36823     36824     36825
     36824     36827     36824     36828     36824     36826     36827     36828
     36829     36830     36829     36832     36829     36833     36829     36831
     36832     36833     36834     36835     36834     36837     36834     36838
     36834     36836     36837     36838     36839     36840     36839     36842
     36839     36843     36839     36841     36842     36843     36844     36845
     36844     36847     36844     36848     36844     36846     36847     36848
     36849     36850     36849     36852     36849     36853     36849     36851
     36852     36853     36854     36855     36854     36857     36854     36858
     36854     36856     36857     36858     36859     36860     36859     36862
     36859     36863     36859     36861     36862     36863     36864     36865
     36864     36867     36864     36868     36864     36866     36867     36868
     36869     36870     36869     36872     36869     36873     36869     36871
     36872     36873     36874     36875     36874     36877     36874     36878
     36874     36876     36877     36878     36879     36880     36879     36882
     36879     36883     36879     36881     36882     36883     36884     36885
     36884     36887     36884     36888     36884     36886     36887     36888
     36889     36890     36889     36892     36889     36893     36889     36891
     36892     36893     36894     36895     36894     36897     36894     36898
     36894     36896     36897     36898     36899     36900     36899     36902
     36899     36903     36899     36901     36902     36903     36904     36905
     36904     36907     36904     36908     36904     36906     36907     36908
     36909     36910     36909     36912     36909     36913     36909     36911
     36912     36913     36914     36915     36914     36917     36914     36918
     36914     36916     36917     36918     36919     36920     36919     36922
     36919     36923     36919     36921     36922     36923     36924     36925
     36924     36927     36924     36928     36924     36926     36927     36928
     36929     36930     36929     36932     36929     36933     36929     36931
     36932     36933     36934     36935     36934     36937     36934     36938
     36934     36936     36937     36938     36939     36940     36939     36942
     36939     36943     36939     36941     36942     36943     36944     36945
     36944     36947     36944     36948     36944     36946     36947     36948
     36949     36950     36949     36952     36949     36953     36949     36951
     36952     36953     36954     36955     36954     36957     36954     36958
     36954     36956     36957     36958     36959     36960     36959     36962
     36959     36963     36959     36961     36962     36963     36964     36965
     36964     36967     36964     36968     36964     36966     36967     36968
     36969     36970     36969     36972     36969     36973     36969     36971
     36972     36973     36974     36975     36974     36977     36974     36978
     36974     36976     36977     36978     36979     36980     36979     36982
     36979     36983     36979     36981     36982     36983     36984     36985
     36984     36987     36984     36988     36984     36986     36987     36988
     36989     36990     36989     36992     36989     36993     36989     36991
     36992     36993     36994     36995     36994     36997     36994     36998
     36994     36996     36997     36998     36999     37000     36999     37002
     36999     37003     36999     37001     37002     37003     37004     37005
     37004     37007     37004     37008     37004     37006     37007     37008
     37009     37010     37009     37012     37009     37013     37009     37011
     37012     37013     37014     37015     37014     37017     37014     37018
     37014     37016     37017     37018     37019     37020     37019     37022
     37019     37023     37019     37021     37022     37023     37024     37025
     37024     37027     37024     37028     37024     37026     37027     37028
     37029     37030     37029     37032     37029     37033     37029     37031
     37032     37033     37034     37035     37034     37037     37034     37038
     37034     37036     37037     37038     37039     37040     37039     37042
     37039     37043     37039     37041     37042     37043     37044     37045
     37044     37047     37044     37048     37044     37046     37047     37048
     37049     37050     37049     37052     37049     37053     37049     37051
     37052     37053     37054     37055     37054     37057     37054     37058
     37054     37056     37057     37058     37059     37060     37059     37062
     37059     37063     37059     37061     37062     37063     37064     37065
     37064     37067     37064     37068     37064     37066     37067     37068
     37069     37070     37069     37072     37069     37073     37069     37071
     37072     37073     37074     37075     37074     37077     37074     37078
     37074     37076     37077     37078     37079     37080     37079     37082
     37079     37083     37079     37081     37082     37083     37084     37085
     37084     37087     37084     37088     37084     37086     37087     37088
     37089     37090     37089     37092     37089     37093     37089     37091
     37092     37093     37094     37095     37094     37097     37094     37098
     37094     37096     37097     37098     37099     37100     37099     37102
     37099     37103     37099     37101     37102     37103     37104     37105
     37104     37107     37104     37108     37104     37106     37107     37108
     37109     37110     37109     37112     37109     37113     37109     37111
     37112     37113     37114     37115     37114     37117     37114     37118
     37114     37116     37117     37118     37119     37120     37119     37122
     37119     37123     37119     37121     37122     37123     37124     37125
     37124     37127     37124     37128     37124     37126     37127     37128
     37129     37130     37129     37132     37129     37133     37129     37131
     37132     37133     37134     37135     37134     37137     37134     37138
     37134     37136     37137     37138     37139     37140     37139     37142
     37139     37143     37139     37141     37142     37143     37144     37145
     37144     37147     37144     37148     37144     37146     37147     37148
     37149     37150     37149     37152     37149     37153     37149     37151
     37152     37153     37154     37155     37154     37157     37154     37158
     37154     37156     37157     37158     37159     37160     37159     37162
     37159     37163     37159     37161     37162     37163     37164     37165
     37164     37167     37164     37168     37164     37166     37167     37168
     37169     37170     37169     37172     37169     37173     37169     37171
     37172     37173     37174     37175     37174     37177     37174     37178
     37174     37176     37177     37178     37179     37180     37179     37182
     37179     37183     37179     37181     37182     37183     37184     37185
     37184     37187     37184     37188     37184     37186     37187     37188
     37189     37190     37189     37192     37189     37193     37189     37191
     37192     37193     37194     37195     37194     37197     37194     37198
     37194     37196     37197     37198     37199     37200     37199     37202
     37199     37203     37199     37201     37202     37203     37204     37205
     37204     37207     37204     37208     37204     37206     37207     37208
     37209     37210     37209     37212     37209     37213     37209     37211
     37212     37213     37214     37215     37214     37217     37214     37218
     37214     37216     37217     37218     37219     37220     37219     37222
     37219     37223     37219     37221     37222     37223     37224     37225
     37224     37227     37224     37228     37224     37226     37227     37228
     37229     37230     37229     37232     37229     37233     37229     37231
     37232     37233     37234     37235     37234     37237     37234     37238
     37234     37236     37237     37238     37239     37240     37239     37242
     37239     37243     37239     37241     37242     37243     37244     37245
     37244     37247     37244     37248     37244     37246     37247     37248
     37249     37250     37249     37252     37249     37253     37249     37251
     37252     37253     37254     37255     37254     37257     37254     37258
     37254     37256     37257     37258     37259     37260     37259     37262
     37259     37263     37259     37261     37262     37263     37264     37265
     37264     37267     37264     37268     37264     37266     37267     37268
     37269     37270     37269     37272     37269     37273     37269     37271
     37272     37273     37274     37275     37274     37277     37274     37278
     37274     37276     37277     37278     37279     37280     37279     37282
     37279     37283     37279     37281     37282     37283     37284     37285
     37284     37287     37284     37288     37284     37286     37287     37288
     37289     37290     37289     37292     37289     37293     37289     37291
     37292     37293     37294     37295     37294     37297     37294     37298
     37294     37296     37297     37298     37299     37300     37299     37302
     37299     37303     37299     37301     37302     37303     37304     37305
     37304     37307     37304     37308     37304     37306     37307     37308
     37309     37310     37309     37312     37309     37313     37309     37311
     37312     37313     37314     37315     37314     37317     37314     37318
     37314     37316     37317     37318     37319     37320     37319     37322
     37319     37323     37319     37321     37322     37323     37324     37325
     37324     37327     37324     37328     37324     37326     37327     37328
     37329     37330     37329     37332     37329     37333     37329     37331
     37332     37333     37334     37335     37334     37337     37334     37338
     37334     37336     37337     37338     37339     37340     37339     37342
     37339     37343     37339     37341     37342     37343     37344     37345
     37344     37347     37344     37348     37344     37346     37347     37348
     37349     37350     37349     37352     37349     37353     37349     37351
     37352     37353     37354     37355     37354     37357     37354     37358
     37354     37356     37357     37358     37359     37360     37359     37362
     37359     37363     37359     37361     37362     37363     37364     37365
     37364     37367     37364     37368     37364     37366     37367     37368
     37369     37370     37369     37372     37369     37373     37369     37371
     37372     37373     37374     37375     37374     37377     37374     37378
     37374     37376     37377     37378     37379     37380     37379     37382
     37379     37383     37379     37381     37382     37383     37384     37385
     37384     37387     37384     37388     37384     37386     37387     37388
     37389     37390     37389     37392     37389     37393     37389     37391
     37392     37393     37394     37395     37394     37397     37394     37398
     37394     37396     37397     37398     37399     37400     37399     37402
     37399     37403     37399     37401     37402     37403     37404     37405
     37404     37407     37404     37408     37404     37406     37407     37408
     37409     37410     37409     37412     37409     37413     37409     37411
     37412     37413     37414     37415     37414     37417     37414     37418
     37414     37416     37417     37418     37419     37420     37419     37422
     37419     37423     37419     37421     37422     37423     37424     37425
     37424     37427     37424     37428     37424     37426     37427     37428
     37429     37430     37429     37432     37429     37433     37429     37431
     37432     37433     37434     37435     37434     37437     37434     37438
     37434     37436     37437     37438     37439     37440     37439     37442
     37439     37443     37439     37441     37442     37443     37444     37445
     37444     37447     37444     37448     37444     37446     37447     37448
     37449     37450     37449     37452     37449     37453     37449     37451
     37452     37453     37454     37455     37454     37457     37454     37458
     37454     37456     37457     37458     37459     37460     37459     37462
     37459     37463     37459     37461     37462     37463     37464     37465
     37464     37467     37464     37468     37464     37466     37467     37468
     37469     37470     37469     37472     37469     37473     37469     37471
     37472     37473     37474     37475     37474     37477     37474     37478
     37474     37476     37477     37478     37479     37480     37479     37482
     37479     37483     37479     37481     37482     37483     37484     37485
     37484     37487     37484     37488     37484     37486     37487     37488
     37489     37490     37489     37492     37489     37493     37489     37491
     37492     37493     37494     37495     37494     37497     37494     37498
     37494     37496     37497     37498     37499     37500     37499     37502
     37499     37503     37499     37501     37502     37503     37504     37505
     37504     37507     37504     37508     37504     37506     37507     37508
     37509     37510     37509     37512     37509     37513     37509     37511
     37512     37513     37514     37515     37514     37517     37514     37518
     37514     37516     37517     37518     37519     37520     37519     37522
     37519     37523     37519     37521     37522     37523     37524     37525
     37524     37527     37524     37528     37524     37526     37527     37528
     37529     37530     37529     37532     37529     37533     37529     37531
     37532     37533     37534     37535     37534     37537     37534     37538
     37534     37536     37537     37538     37539     37540     37539     37542
     37539     37543     37539     37541     37542     37543     37544     37545
     37544     37547     37544     37548     37544     37546     37547     37548
     37549     37550     37549     37552     37549     37553     37549     37551
     37552     37553     37554     37555     37554     37557     37554     37558
     37554     37556     37557     37558     37559     37560     37559     37562
     37559     37563     37559     37561     37562     37563     37564     37565
     37564     37567     37564     37568     37564     37566     37567     37568
     37569     37570     37569     37572     37569     37573     37569     37571
     37572     37573     37574     37575     37574     37577     37574     37578
     37574     37576     37577     37578     37579     37580     37579     37582
     37579     37583     37579     37581     37582     37583     37584     37585
     37584     37587     37584     37588     37584     37586     37587     37588
     37589     37590     37589     37592     37589     37593     37589     37591
     37592     37593     37594     37595     37594     37597     37594     37598
     37594     37596     37597     37598     37599     37600     37599     37602
     37599     37603     37599     37601     37602     37603     37604     37605
     37604     37607     37604     37608     37604     37606     37607     37608
     37609     37610     37609     37612     37609     37613     37609     37611
     37612     37613     37614     37615     37614     37617     37614     37618
     37614     37616     37617     37618     37619     37620     37619     37622
     37619     37623     37619     37621     37622     37623     37624     37625
     37624     37627     37624     37628     37624     37626     37627     37628
     37629     37630     37629     37632     37629     37633     37629     37631
     37632     37633     37634     37635     37634     37637     37634     37638
     37634     37636     37637     37638     37639     37640     37639     37642
     37639     37643     37639     37641     37642     37643     37644     37645
     37644     37647     37644     37648     37644     37646     37647     37648
     37649     37650     37649     37652     37649     37653     37649     37651
     37652     37653     37654     37655     37654     37657     37654     37658
     37654     37656     37657     37658     37659     37660     37659     37662
     37659     37663     37659     37661     37662     37663     37664     37665
     37664     37667     37664     37668     37664     37666     37667     37668
     37669     37670     37669     37672     37669     37673     37669     37671
     37672     37673     37674     37675     37674     37677     37674     37678
     37674     37676     37677     37678     37679     37680     37679     37682
     37679     37683     37679     37681     37682     37683     37684     37685
     37684     37687     37684     37688     37684     37686     37687     37688
     37689     37690     37689     37692     37689     37693     37689     37691
     37692     37693     37694     37695     37694     37697     37694     37698
     37694     37696     37697     37698     37699     37700     37699     37702
     37699     37703     37699     37701     37702     37703     37704     37705
     37704     37707     37704     37708     37704     37706     37707     37708
     37709     37710     37709     37712     37709     37713     37709     37711
     37712     37713     37714     37715     37714     37717     37714     37718
     37714     37716     37717     37718     37719     37720     37719     37722
     37719     37723     37719     37721     37722     37723     37724     37725
     37724     37727     37724     37728     37724     37726     37727     37728
     37729     37730     37729     37732     37729     37733     37729     37731
     37732     37733     37734     37735     37734     37737     37734     37738
     37734     37736     37737     37738     37739     37740     37739     37742
     37739     37743     37739     37741     37742     37743     37744     37745
     37744     37747     37744     37748     37744     37746     37747     37748
     37749     37750     37749     37752     37749     37753     37749     37751
     37752     37753     37754     37755     37754     37757     37754     37758
     37754     37756     37757     37758     37759     37760     37759     37762
     37759     37763     37759     37761     37762     37763     37764     37765
     37764     37767     37764     37768     37764     37766     37767     37768
     37769     37770     37769     37772     37769     37773     37769     37771
     37772     37773     37774     37775     37774     37777     37774     37778
     37774     37776     37777     37778     37779     37780     37779     37782
     37779     37783     37779     37781     37782     37783     37784     37785
     37784     37787     37784     37788     37784     37786     37787     37788
     37789     37790     37789     37792     37789     37793     37789     37791
     37792     37793     37794     37795     37794     37797     37794     37798
     37794     37796     37797     37798     37799     37800     37799     37802
     37799     37803     37799     37801     37802     37803     37804     37805
     37804     37807     37804     37808     37804     37806     37807     37808
     37809     37810     37809     37812     37809     37813     37809     37811
     37812     37813     37814     37815     37814     37817     37814     37818
     37814     37816     37817     37818     37819     37820     37819     37822
     37819     37823     37819     37821     37822     37823     37824     37825
     37824     37827     37824     37828     37824     37826     37827     37828
     37829     37830     37829     37832     37829     37833     37829     37831
     37832     37833     37834     37835     37834     37837     37834     37838
     37834     37836     37837     37838     37839     37840     37839     37842
     37839     37843     37839     37841     37842     37843     37844     37845
     37844     37847     37844     37848     37844     37846     37847     37848
     37849     37850     37849     37852     37849     37853     37849     37851
     37852     37853     37854     37855     37854     37857     37854     37858
     37854     37856     37857     37858     37859     37860     37859     37862
     37859     37863     37859     37861     37862     37863     37864     37865
     37864     37867     37864     37868     37864     37866     37867     37868
     37869     37870     37869     37872     37869     37873     37869     37871
     37872     37873     37874     37875     37874     37877     37874     37878
     37874     37876     37877     37878     37879     37880     37879     37882
     37879     37883     37879     37881     37882     37883     37884     37885
     37884     37887     37884     37888     37884     37886     37887     37888
     37889     37890     37889     37892     37889     37893     37889     37891
     37892     37893     37894     37895     37894     37897     37894     37898
     37894     37896     37897     37898     37899     37900     37899     37902
     37899     37903     37899     37901     37902     37903     37904     37905
     37904     37907     37904     37908     37904     37906     37907     37908
     37909     37910     37909     37912     37909     37913     37909     37911
     37912     37913     37914     37915     37914     37917     37914     37918
     37914     37916     37917     37918     37919     37920     37919     37922
     37919     37923     37919     37921     37922     37923     37924     37925
     37924     37927     37924     37928     37924     37926     37927     37928
     37929     37930     37929     37932     37929     37933     37929     37931
     37932     37933     37934     37935     37934     37937     37934     37938
     37934     37936     37937     37938     37939     37940     37939     37942
     37939     37943     37939     37941     37942     37943     37944     37945
     37944     37947     37944     37948     37944     37946     37947     37948
     37949     37950     37949     37952     37949     37953     37949     37951
     37952     37953     37954     37955     37954     37957     37954     37958
     37954     37956     37957     37958     37959     37960     37959     37962
     37959     37963     37959     37961     37962     37963     37964     37965
     37964     37967     37964     37968     37964     37966     37967     37968
     37969     37970     37969     37972     37969     37973     37969     37971
     37972     37973     37974     37975     37974     37977     37974     37978
     37974     37976     37977     37978     37979     37980     37979     37982
     37979     37983     37979     37981     37982     37983     37984     37985
     37984     37987     37984     37988     37984     37986     37987     37988
     37989     37990     37989     37992     37989     37993     37989     37991
     37992     37993     37994     37995     37994     37997     37994     37998
     37994     37996     37997     37998     37999     38000     37999     38002
     37999     38003     37999     38001     38002     38003     38004     38005
     38004     38007     38004     38008     38004     38006     38007     38008
     38009     38010     38009     38012     38009     38013     38009     38011
     38012     38013     38014     38015     38014     38017     38014     38018
     38014     38016     38017     38018     38019     38020     38019     38022
     38019     38023     38019     38021     38022     38023     38024     38025
     38024     38027     38024     38028     38024     38026     38027     38028
     38029     38030     38029     38032     38029     38033     38029     38031
     38032     38033     38034     38035     38034     38037     38034     38038
     38034     38036     38037     38038     38039     38040     38039     38042
     38039     38043     38039     38041     38042     38043     38044     38045
     38044     38047     38044     38048     38044     38046     38047     38048
     38049     38050     38049     38052     38049     38053     38049     38051
     38052     38053     38054     38055     38054     38057     38054     38058
     38054     38056     38057     38058     38059     38060     38059     38062
     38059     38063     38059     38061     38062     38063     38064     38065
     38064     38067     38064     38068     38064     38066     38067     38068
     38069     38070     38069     38072     38069     38073     38069     38071
     38072     38073     38074     38075     38074     38077     38074     38078
     38074     38076     38077     38078     38079     38080     38079     38082
     38079     38083     38079     38081     38082     38083     38084     38085
     38084     38087     38084     38088     38084     38086     38087     38088
     38089     38090     38089     38092     38089     38093     38089     38091
     38092     38093     38094     38095     38094     38097     38094     38098
     38094     38096     38097     38098     38099     38100     38099     38102
     38099     38103     38099     38101     38102     38103     38104     38105
     38104     38107     38104     38108     38104     38106     38107     38108
     38109     38110     38109     38112     38109     38113     38109     38111
     38112     38113     38114     38115     38114     38117     38114     38118
     38114     38116     38117     38118     38119     38120     38119     38122
     38119     38123     38119     38121     38122     38123     38124     38125
     38124     38127     38124     38128     38124     38126     38127     38128
     38129     38130     38129     38132     38129     38133     38129     38131
     38132     38133     38134     38135     38134     38137     38134     38138
     38134     38136     38137     38138     38139     38140     38139     38142
     38139     38143     38139     38141     38142     38143     38144     38145
     38144     38147     38144     38148     38144     38146     38147     38148
     38149     38150     38149     38152     38149     38153     38149     38151
     38152     38153     38154     38155     38154     38157     38154     38158
     38154     38156     38157     38158     38159     38160     38159     38162
     38159     38163     38159     38161     38162     38163     38164     38165
     38164     38167     38164     38168     38164     38166     38167     38168
     38169     38170     38169     38172     38169     38173     38169     38171
     38172     38173     38174     38175     38174     38177     38174     38178
     38174     38176     38177     38178     38179     38180     38179     38182
     38179     38183     38179     38181     38182     38183     38184     38185
     38184     38187     38184     38188     38184     38186     38187     38188
     38189     38190     38189     38192     38189     38193     38189     38191
     38192     38193     38194     38195     38194     38197     38194     38198
     38194     38196     38197     38198     38199     38200     38199     38202
     38199     38203     38199     38201     38202     38203     38204     38205
     38204     38207     38204     38208     38204     38206     38207     38208
     38209     38210     38209     38212     38209     38213     38209     38211
     38212     38213     38214     38215     38214     38217     38214     38218
     38214     38216     38217     38218     38219     38220     38219     38222
     38219     38223     38219     38221     38222     38223     38224     38225
     38224     38227     38224     38228     38224     38226     38227     38228
     38229     38230     38229     38232     38229     38233     38229     38231
     38232     38233     38234     38235     38234     38237     38234     38238
     38234     38236     38237     38238     38239     38240     38239     38242
     38239     38243     38239     38241     38242     38243     38244     38245
     38244     38247     38244     38248     38244     38246     38247     38248
     38249     38250     38249     38252     38249     38253     38249     38251
     38252     38253     38254     38255     38254     38257     38254     38258
     38254     38256     38257     38258     38259     38260     38259     38262
     38259     38263     38259     38261     38262     38263     38264     38265
     38264     38267     38264     38268     38264     38266     38267     38268
     38269     38270     38269     38272     38269     38273     38269     38271
     38272     38273     38274     38275     38274     38277     38274     38278
     38274     38276     38277     38278     38279     38280     38279     38282
     38279     38283     38279     38281     38282     38283     38284     38285
     38284     38287     38284     38288     38284     38286     38287     38288
     38289     38290     38289     38292     38289     38293     38289     38291
     38292     38293     38294     38295     38294     38297     38294     38298
     38294     38296     38297     38298     38299     38300     38299     38302
     38299     38303     38299     38301     38302     38303     38304     38305
     38304     38307     38304     38308     38304     38306     38307     38308
     38309     38310     38309     38312     38309     38313     38309     38311
     38312     38313     38314     38315     38314     38317     38314     38318
     38314     38316     38317     38318     38319     38320     38319     38322
     38319     38323     38319     38321     38322     38323     38324     38325
     38324     38327     38324     38328     38324     38326     38327     38328
     38329     38330     38329     38332     38329     38333     38329     38331
     38332     38333     38334     38335     38334     38337     38334     38338
     38334     38336     38337     38338     38339     38340     38339     38342
     38339     38343     38339     38341     38342     38343     38344     38345
     38344     38347     38344     38348     38344     38346     38347     38348
     38349     38350     38349     38352     38349     38353     38349     38351
     38352     38353     38354     38355     38354     38357     38354     38358
     38354     38356     38357     38358     38359     38360     38359     38362
     38359     38363     38359     38361     38362     38363     38364     38365
     38364     38367     38364     38368     38364     38366     38367     38368
     38369     38370     38369     38372     38369     38373     38369     38371
     38372     38373     38374     38375     38374     38377     38374     38378
     38374     38376     38377     38378     38379     38380     38379     38382
     38379     38383     38379     38381     38382     38383     38384     38385
     38384     38387     38384     38388     38384     38386     38387     38388
     38389     38390     38389     38392     38389     38393     38389     38391
     38392     38393     38394     38395     38394     38397     38394     38398
     38394     38396     38397     38398     38399     38400     38399     38402
     38399     38403     38399     38401     38402     38403     38404     38405
     38404     38407     38404     38408     38404     38406     38407     38408
     38409     38410     38409     38412     38409     38413     38409     38411
     38412     38413     38414     38415     38414     38417     38414     38418
     38414     38416     38417     38418     38419     38420     38419     38422
     38419     38423     38419     38421     38422     38423     38424     38425
     38424     38427     38424     38428     38424     38426     38427     38428
     38429     38430     38429     38432     38429     38433     38429     38431
     38432     38433     38434     38435     38434     38437     38434     38438
     38434     38436     38437     38438     38439     38440     38439     38442
     38439     38443     38439     38441     38442     38443     38444     38445
     38444     38447     38444     38448     38444     38446     38447     38448
     38449     38450     38449     38452     38449     38453     38449     38451
     38452     38453     38454     38455     38454     38457     38454     38458
     38454     38456     38457     38458     38459     38460     38459     38462
     38459     38463     38459     38461     38462     38463     38464     38465
     38464     38467     38464     38468     38464     38466     38467     38468
     38469     38470     38469     38472     38469     38473     38469     38471
     38472     38473     38474     38475     38474     38477     38474     38478
     38474     38476     38477     38478     38479     38480     38479     38482
     38479     38483     38479     38481     38482     38483     38484     38485
     38484     38487     38484     38488     38484     38486     38487     38488
     38489     38490     38489     38492     38489     38493     38489     38491
     38492     38493     38494     38495     38494     38497     38494     38498
     38494     38496     38497     38498     38499     38500     38499     38502
     38499     38503     38499     38501     38502     38503     38504     38505
     38504     38507     38504     38508     38504     38506     38507     38508
     38509     38510     38509     38512     38509     38513     38509     38511
     38512     38513     38514     38515     38514     38517     38514     38518
     38514     38516     38517     38518     38519     38520     38519     38522
     38519     38523     38519     38521     38522     38523     38524     38525
     38524     38527     38524     38528     38524     38526     38527     38528
     38529     38530     38529     38532     38529     38533     38529     38531
     38532     38533     38534     38535     38534     38537     38534     38538
     38534     38536     38537     38538     38539     38540     38539     38542
     38539     38543     38539     38541     38542     38543     38544     38545
     38544     38547     38544     38548     38544     38546     38547     38548
     38549     38550     38549     38552     38549     38553     38549     38551
     38552     38553     38554     38555     38554     38557     38554     38558
     38554     38556     38557     38558     38559     38560     38559     38562
     38559     38563     38559     38561     38562     38563     38564     38565
     38564     38567     38564     38568     38564     38566     38567     38568
     38569     38570     38569     38572     38569     38573     38569     38571
     38572     38573     38574     38575     38574     38577     38574     38578
     38574     38576     38577     38578     38579     38580     38579     38582
     38579     38583     38579     38581     38582     38583     38584     38585
     38584     38587     38584     38588     38584     38586     38587     38588
     38589     38590     38589     38592     38589     38593     38589     38591
     38592     38593     38594     38595     38594     38597     38594     38598
     38594     38596     38597     38598     38599     38600     38599     38602
     38599     38603     38599     38601     38602     38603     38604     38605
     38604     38607     38604     38608     38604     38606     38607     38608
     38609     38610     38609     38612     38609     38613     38609     38611
     38612     38613     38614     38615     38614     38617     38614     38618
     38614     38616     38617     38618     38619     38620     38619     38622
     38619     38623     38619     38621     38622     38623     38624     38625
     38624     38627     38624     38628     38624     38626     38627     38628
     38629     38630     38629     38632     38629     38633     38629     38631
     38632     38633     38634     38635     38634     38637     38634     38638
     38634     38636     38637     38638     38639     38640     38639     38642
     38639     38643     38639     38641     38642     38643     38644     38645
     38644     38647     38644     38648     38644     38646     38647     38648
     38649     38650     38649     38652     38649     38653     38649     38651
     38652     38653     38654     38655     38654     38657     38654     38658
     38654     38656     38657     38658     38659     38660     38659     38662
     38659     38663     38659     38661     38662     38663     38664     38665
     38664     38667     38664     38668     38664     38666     38667     38668
     38669     38670     38669     38672     38669     38673     38669     38671
     38672     38673     38674     38675     38674     38677     38674     38678
     38674     38676     38677     38678     38679     38680     38679     38682
     38679     38683     38679     38681     38682     38683     38684     38685
     38684     38687     38684     38688     38684     38686     38687     38688
     38689     38690     38689     38692     38689     38693     38689     38691
     38692     38693     38694     38695     38694     38697     38694     38698
     38694     38696     38697     38698     38699     38700     38699     38702
     38699     38703     38699     38701     38702     38703     38704     38705
     38704     38707     38704     38708     38704     38706     38707     38708
     38709     38710     38709     38712     38709     38713     38709     38711
     38712     38713     38714     38715     38714     38717     38714     38718
     38714     38716     38717     38718     38719     38720     38719     38722
     38719     38723     38719     38721     38722     38723     38724     38725
     38724     38727     38724     38728     38724     38726     38727     38728
     38729     38730     38729     38732     38729     38733     38729     38731
     38732     38733     38734     38735     38734     38737     38734     38738
     38734     38736     38737     38738     38739     38740     38739     38742
     38739     38743     38739     38741     38742     38743     38744     38745
     38744     38747     38744     38748     38744     38746     38747     38748
     38749     38750     38749     38752     38749     38753     38749     38751
     38752     38753     38754     38755     38754     38757     38754     38758
     38754     38756     38757     38758     38759     38760     38759     38762
     38759     38763     38759     38761     38762     38763     38764     38765
     38764     38767     38764     38768     38764     38766     38767     38768
     38769     38770     38769     38772     38769     38773     38769     38771
     38772     38773     38774     38775     38774     38777     38774     38778
     38774     38776     38777     38778     38779     38780     38779     38782
     38779     38783     38779     38781     38782     38783     38784     38785
     38784     38787     38784     38788     38784     38786     38787     38788
     38789     38790     38789     38792     38789     38793     38789     38791
     38792     38793     38794     38795     38794     38797     38794     38798
     38794     38796     38797     38798     38799     38800     38799     38802
     38799     38803     38799     38801     38802     38803     38804     38805
     38804     38807     38804     38808     38804     38806     38807     38808
     38809     38810     38809     38812     38809     38813     38809     38811
     38812     38813     38814     38815     38814     38817     38814     38818
     38814     38816     38817     38818     38819     38820     38819     38822
     38819     38823     38819     38821     38822     38823     38824     38825
     38824     38827     38824     38828     38824     38826     38827     38828
     38829     38830     38829     38832     38829     38833     38829     38831
     38832     38833     38834     38835     38834     38837     38834     38838
     38834     38836     38837     38838     38839     38840     38839     38842
     38839     38843     38839     38841     38842     38843     38844     38845
     38844     38847     38844     38848     38844     38846     38847     38848
     38849     38850     38849     38852     38849     38853     38849     38851
     38852     38853     38854     38855     38854     38857     38854     38858
     38854     38856     38857     38858     38859     38860     38859     38862
     38859     38863     38859     38861     38862     38863     38864     38865
     38864     38867     38864     38868     38864     38866     38867     38868
     38869     38870     38869     38872     38869     38873     38869     38871
     38872     38873     38874     38875     38874     38877     38874     38878
     38874     38876     38877     38878     38879     38880     38879     38882
     38879     38883     38879     38881     38882     38883     38884     38885
     38884     38887     38884     38888     38884     38886     38887     38888
     38889     38890     38889     38892     38889     38893     38889     38891
     38892     38893     38894     38895     38894     38897     38894     38898
     38894     38896     38897     38898     38899     38900     38899     38902
     38899     38903     38899     38901     38902     38903     38904     38905
     38904     38907     38904     38908     38904     38906     38907     38908
     38909     38910     38909     38912     38909     38913     38909     38911
     38912     38913     38914     38915     38914     38917     38914     38918
     38914     38916     38917     38918     38919     38920     38919     38922
     38919     38923     38919     38921     38922     38923     38924     38925
     38924     38927     38924     38928     38924     38926     38927     38928
     38929     38930     38929     38932     38929     38933     38929     38931
     38932     38933     38934     38935     38934     38937     38934     38938
     38934     38936     38937     38938     38939     38940     38939     38942
     38939     38943     38939     38941     38942     38943     38944     38945
     38944     38947     38944     38948     38944     38946     38947     38948
     38949     38950     38949     38952     38949     38953     38949     38951
     38952     38953     38954     38955     38954     38957     38954     38958
     38954     38956     38957     38958     38959     38960     38959     38962
     38959     38963     38959     38961     38962     38963     38964     38965
     38964     38967     38964     38968     38964     38966     38967     38968
     38969     38970     38969     38972     38969     38973     38969     38971
     38972     38973     38974     38975     38974     38977     38974     38978
     38974     38976     38977     38978     38979     38980     38979     38982
     38979     38983     38979     38981     38982     38983     38984     38985
     38984     38987     38984     38988     38984     38986     38987     38988
     38989     38990     38989     38992     38989     38993     38989     38991
     38992     38993     38994     38995     38994     38997     38994     38998
     38994     38996     38997     38998     38999     39000     38999     39002
     38999     39003     38999     39001     39002     39003     39004     39005
     39004     39007     39004     39008     39004     39006     39007     39008
     39009     39010     39009     39012     39009     39013     39009     39011
     39012     39013     39014     39015     39014     39017     39014     39018
     39014     39016     39017     39018     39019     39020     39019     39022
     39019     39023     39019     39021     39022     39023     39024     39025
     39024     39027     39024     39028     39024     39026     39027     39028
     39029     39030     39029     39032     39029     39033     39029     39031
     39032     39033     39034     39035     39034     39037     39034     39038
     39034     39036     39037     39038     39039     39040     39039     39042
     39039     39043     39039     39041     39042     39043     39044     39045
     39044     39047     39044     39048     39044     39046     39047     39048
     39049     39050     39049     39052     39049     39053     39049     39051
     39052     39053     39054     39055     39054     39057     39054     39058
     39054     39056     39057     39058     39059     39060     39059     39062
     39059     39063     39059     39061     39062     39063     39064     39065
     39064     39067     39064     39068     39064     39066     39067     39068
     39069     39070     39069     39072     39069     39073     39069     39071
     39072     39073     39074     39075     39074     39077     39074     39078
     39074     39076     39077     39078     39079     39080     39079     39082
     39079     39083     39079     39081     39082     39083     39084     39085
     39084     39087     39084     39088     39084     39086     39087     39088
     39089     39090     39089     39092     39089     39093     39089     39091
     39092     39093     39094     39095     39094     39097     39094     39098
     39094     39096     39097     39098     39099     39100     39099     39102
     39099     39103     39099     39101     39102     39103     39104     39105
     39104     39107     39104     39108     39104     39106     39107     39108
     39109     39110     39109     39112     39109     39113     39109     39111
     39112     39113     39114     39115     39114     39117     39114     39118
     39114     39116     39117     39118     39119     39120     39119     39122
     39119     39123     39119     39121     39122     39123     39124     39125
     39124     39127     39124     39128     39124     39126     39127     39128
     39129     39130     39129     39132     39129     39133     39129     39131
     39132     39133     39134     39135     39134     39137     39134     39138
     39134     39136     39137     39138     39139     39140     39139     39142
     39139     39143     39139     39141     39142     39143     39144     39145
     39144     39147     39144     39148     39144     39146     39147     39148
     39149     39150     39149     39152     39149     39153     39149     39151
     39152     39153     39154     39155     39154     39157     39154     39158
     39154     39156     39157     39158     39159     39160     39159     39162
     39159     39163     39159     39161     39162     39163     39164     39165
     39164     39167     39164     39168     39164     39166     39167     39168
     39169     39170     39169     39172     39169     39173     39169     39171
     39172     39173     39174     39175     39174     39177     39174     39178
     39174     39176     39177     39178     39179     39180     39179     39182
     39179     39183     39179     39181     39182     39183     39184     39185
     39184     39187     39184     39188     39184     39186     39187     39188
     39189     39190     39189     39192     39189     39193     39189     39191
     39192     39193     39194     39195     39194     39197     39194     39198
     39194     39196     39197     39198     39199     39200     39199     39202
     39199     39203     39199     39201     39202     39203     39204     39205
     39204     39207     39204     39208     39204     39206     39207     39208
     39209     39210     39209     39212     39209     39213     39209     39211
     39212     39213     39214     39215     39214     39217     39214     39218
     39214     39216     39217     39218     39219     39220     39219     39222
     39219     39223     39219     39221     39222     39223     39224     39225
     39224     39227     39224     39228     39224     39226     39227     39228
     39229     39230     39229     39232     39229     39233     39229     39231
     39232     39233     39234     39235     39234     39237     39234     39238
     39234     39236     39237     39238     39239     39240     39239     39242
     39239     39243     39239     39241     39242     39243     39244     39245
     39244     39247     39244     39248     39244     39246     39247     39248
     39249     39250     39249     39252     39249     39253     39249     39251
     39252     39253     39254     39255     39254     39257     39254     39258
     39254     39256     39257     39258     39259     39260     39259     39262
     39259     39263     39259     39261     39262     39263     39264     39265
     39264     39267     39264     39268     39264     39266     39267     39268
     39269     39270     39269     39272     39269     39273     39269     39271
     39272     39273     39274     39275     39274     39277     39274     39278
     39274     39276     39277     39278     39279     39280     39279     39282
     39279     39283     39279     39281     39282     39283     39284     39285
     39284     39287     39284     39288     39284     39286     39287     39288
     39289     39290     39289     39292     39289     39293     39289     39291
     39292     39293     39294     39295     39294     39297     39294     39298
     39294     39296     39297     39298     39299     39300     39299     39302
     39299     39303     39299     39301     39302     39303     39304     39305
     39304     39307     39304     39308     39304     39306     39307     39308
     39309     39310     39309     39312     39309     39313     39309     39311
     39312     39313     39314     39315     39314     39317     39314     39318
     39314     39316     39317     39318     39319     39320     39319     39322
     39319     39323     39319     39321     39322     39323     39324     39325
     39324     39327     39324     39328     39324     39326     39327     39328
     39329     39330     39329     39332     39329     39333     39329     39331
     39332     39333     39334     39335     39334     39337     39334     39338
     39334     39336     39337     39338     39339     39340     39339     39342
     39339     39343     39339     39341     39342     39343     39344     39345
     39344     39347     39344     39348     39344     39346     39347     39348
     39349     39350     39349     39352     39349     39353     39349     39351
     39352     39353     39354     39355     39354     39357     39354     39358
     39354     39356     39357     39358     39359     39360     39359     39362
     39359     39363     39359     39361     39362     39363     39364     39365
     39364     39367     39364     39368     39364     39366     39367     39368
     39369     39370     39369     39372     39369     39373     39369     39371
     39372     39373     39374     39375     39374     39377     39374     39378
     39374     39376     39377     39378     39379     39380     39379     39382
     39379     39383     39379     39381     39382     39383     39384     39385
     39384     39387     39384     39388     39384     39386     39387     39388
     39389     39390     39389     39392     39389     39393     39389     39391
     39392     39393     39394     39395     39394     39397     39394     39398
     39394     39396     39397     39398     39399     39400     39399     39402
     39399     39403     39399     39401     39402     39403     39404     39405
     39404     39407     39404     39408     39404     39406     39407     39408
     39409     39410     39409     39412     39409     39413     39409     39411
     39412     39413     39414     39415     39414     39417     39414     39418
     39414     39416     39417     39418     39419     39420     39419     39422
     39419     39423     39419     39421     39422     39423     39424     39425
     39424     39427     39424     39428     39424     39426     39427     39428
     39429     39430     39429     39432     39429     39433     39429     39431
     39432     39433     39434     39435     39434     39437     39434     39438
     39434     39436     39437     39438     39439     39440     39439     39442
     39439     39443     39439     39441     39442     39443     39444     39445
     39444     39447     39444     39448     39444     39446     39447     39448
     39449     39450     39449     39452     39449     39453     39449     39451
     39452     39453     39454     39455     39454     39457     39454     39458
     39454     39456     39457     39458     39459     39460     39459     39462
     39459     39463     39459     39461     39462     39463     39464     39465
     39464     39467     39464     39468     39464     39466     39467     39468
     39469     39470     39469     39472     39469     39473     39469     39471
     39472     39473     39474     39475     39474     39477     39474     39478
     39474     39476     39477     39478     39479     39480     39479     39482
     39479     39483     39479     39481     39482     39483     39484     39485
     39484     39487     39484     39488     39484     39486     39487     39488
     39489     39490     39489     39492     39489     39493     39489     39491
     39492     39493     39494     39495     39494     39497     39494     39498
     39494     39496     39497     39498     39499     39500     39499     39502
     39499     39503     39499     39501     39502     39503     39504     39505
     39504     39507     39504     39508     39504     39506     39507     39508
     39509     39510     39509     39512     39509     39513     39509     39511
     39512     39513     39514     39515     39514     39517     39514     39518
     39514     39516     39517     39518     39519     39520     39519     39522
     39519     39523     39519     39521     39522     39523     39524     39525
     39524     39527     39524     39528     39524     39526     39527     39528
     39529     39530     39529     39532     39529     39533     39529     39531
     39532     39533     39534     39535     39534     39537     39534     39538
     39534     39536     39537     39538     39539     39540     39539     39542
     39539     39543     39539     39541     39542     39543     39544     39545
     39544     39547     39544     39548     39544     39546     39547     39548
     39549     39550     39549     39552     39549     39553     39549     39551
     39552     39553     39554     39555     39554     39557     39554     39558
     39554     39556     39557     39558     39559     39560     39559     39562
     39559     39563     39559     39561     39562     39563     39564     39565
     39564     39567     39564     39568     39564     39566     39567     39568
     39569     39570     39569     39572     39569     39573     39569     39571
     39572     39573     39574     39575     39574     39577     39574     39578
     39574     39576     39577     39578     39579     39580     39579     39582
     39579     39583     39579     39581     39582     39583     39584     39585
     39584     39587     39584     39588     39584     39586     39587     39588
     39589     39590     39589     39592     39589     39593     39589     39591
     39592     39593     39594     39595     39594     39597     39594     39598
     39594     39596     39597     39598     39599     39600     39599     39602
     39599     39603     39599     39601     39602     39603     39604     39605
     39604     39607     39604     39608     39604     39606     39607     39608
     39609     39610     39609     39612     39609     39613     39609     39611
     39612     39613     39614     39615     39614     39617     39614     39618
     39614     39616     39617     39618     39619     39620     39619     39622
     39619     39623     39619     39621     39622     39623     39624     39625
     39624     39627     39624     39628     39624     39626     39627     39628
     39629     39630     39629     39632     39629     39633     39629     39631
     39632     39633     39634     39635     39634     39637     39634     39638
     39634     39636     39637     39638     39639     39640     39639     39642
     39639     39643     39639     39641     39642     39643     39644     39645
     39644     39647     39644     39648     39644     39646     39647     39648
     39649     39650     39649     39652     39649     39653     39649     39651
     39652     39653     39654     39655     39654     39657     39654     39658
     39654     39656     39657     39658     39659     39660     39659     39662
     39659     39663     39659     39661     39662     39663     39664     39665
     39664     39667     39664     39668     39664     39666     39667     39668
     39669     39670     39669     39672     39669     39673     39669     39671
     39672     39673     39674     39675     39674     39677     39674     39678
     39674     39676     39677     39678     39679     39680     39679     39682
     39679     39683     39679     39681     39682     39683     39684     39685
     39684     39687     39684     39688     39684     39686     39687     39688
     39689     39690     39689     39692     39689     39693     39689     39691
     39692     39693     39694     39695     39694     39697     39694     39698
     39694     39696     39697     39698     39699     39700     39699     39702
     39699     39703     39699     39701     39702     39703     39704     39705
     39704     39707     39704     39708     39704     39706     39707     39708
     39709     39710     39709     39712     39709     39713     39709     39711
     39712     39713     39714     39715     39714     39717     39714     39718
     39714     39716     39717     39718     39719     39720     39719     39722
     39719     39723     39719     39721     39722     39723     39724     39725
     39724     39727     39724     39728     39724     39726     39727     39728
     39729     39730     39729     39732     39729     39733     39729     39731
     39732     39733     39734     39735     39734     39737     39734     39738
     39734     39736     39737     39738     39739     39740     39739     39742
     39739     39743     39739     39741     39742     39743     39744     39745
     39744     39747     39744     39748     39744     39746     39747     39748
     39749     39750     39749     39752     39749     39753     39749     39751
     39752     39753     39754     39755     39754     39757     39754     39758
     39754     39756     39757     39758     39759     39760     39759     39762
     39759     39763     39759     39761     39762     39763     39764     39765
     39764     39767     39764     39768     39764     39766     39767     39768
     39769     39770     39769     39772     39769     39773     39769     39771
     39772     39773     39774     39775     39774     39777     39774     39778
     39774     39776     39777     39778     39779     39780     39779     39782
     39779     39783     39779     39781     39782     39783     39784     39785
     39784     39787     39784     39788     39784     39786     39787     39788
     39789     39790     39789     39792     39789     39793     39789     39791
     39792     39793     39794     39795     39794     39797     39794     39798
     39794     39796     39797     39798     39799     39800     39799     39802
     39799     39803     39799     39801     39802     39803     39804     39805
     39804     39807     39804     39808     39804     39806     39807     39808
     39809     39810     39809     39812     39809     39813     39809     39811
     39812     39813     39814     39815     39814     39817     39814     39818
     39814     39816     39817     39818     39819     39820     39819     39822
     39819     39823     39819     39821     39822     39823     39824     39825
     39824     39827     39824     39828     39824     39826     39827     39828
     39829     39830     39829     39832     39829     39833     39829     39831
     39832     39833     39834     39835     39834     39837     39834     39838
     39834     39836     39837     39838     39839     39840     39839     39842
     39839     39843     39839     39841     39842     39843     39844     39845
     39844     39847     39844     39848     39844     39846     39847     39848
     39849     39850     39849     39852     39849     39853     39849     39851
     39852     39853     39854     39855     39854     39857     39854     39858
     39854     39856     39857     39858     39859     39860     39859     39862
     39859     39863     39859     39861     39862     39863     39864     39865
     39864     39867     39864     39868     39864     39866     39867     39868
     39869     39870     39869     39872     39869     39873     39869     39871
     39872     39873     39874     39875     39874     39877     39874     39878
     39874     39876     39877     39878     39879     39880     39879     39882
     39879     39883     39879     39881     39882     39883     39884     39885
     39884     39887     39884     39888     39884     39886     39887     39888
     39889     39890     39889     39892     39889     39893     39889     39891
     39892     39893     39894     39895     39894     39897     39894     39898
     39894     39896     39897     39898     39899     39900     39899     39902
     39899     39903     39899     39901     39902     39903     39904     39905
     39904     39907     39904     39908     39904     39906     39907     39908
     39909     39910     39909     39912     39909     39913     39909     39911
     39912     39913     39914     39915     39914     39917     39914     39918
     39914     39916     39917     39918     39919     39920     39919     39922
     39919     39923     39919     39921     39922     39923     39924     39925
     39924     39927     39924     39928     39924     39926     39927     39928
     39929     39930     39929     39932     39929     39933     39929     39931
     39932     39933     39934     39935     39934     39937     39934     39938
     39934     39936     39937     39938     39939     39940     39939     39942
     39939     39943     39939     39941     39942     39943     39944     39945
     39944     39947     39944     39948     39944     39946     39947     39948
     39949     39950     39949     39952     39949     39953     39949     39951
     39952     39953     39954     39955     39954     39957     39954     39958
     39954     39956     39957     39958     39959     39960     39959     39962
     39959     39963     39959     39961     39962     39963     39964     39965
     39964     39967     39964     39968     39964     39966     39967     39968
     39969     39970     39969     39972     39969     39973     39969     39971
     39972     39973     39974     39975     39974     39977     39974     39978
     39974     39976     39977     39978     39979     39980     39979     39982
     39979     39983     39979     39981     39982     39983     39984     39985
     39984     39987     39984     39988     39984     39986     39987     39988
     39989     39990     39989     39992     39989     39993     39989     39991
     39992     39993     39994     39995     39994     39997     39994     39998
     39994     39996     39997     39998     39999     40000     39999     40002
     39999     40003     39999     40001     40002     40003     40004     40005
     40004     40007     40004     40008     40004     40006     40007     40008
     40009     40010     40009     40012     40009     40013     40009     40011
     40012     40013     40014     40015     40014     40017     40014     40018
     40014     40016     40017     40018     40019     40020     40019     40022
     40019     40023     40019     40021     40022     40023     40024     40025
     40024     40027     40024     40028     40024     40026     40027     40028
     40029     40030     40029     40032     40029     40033     40029     40031
     40032     40033     40034     40035     40034     40037     40034     40038
     40034     40036     40037     40038     40039     40040     40039     40042
     40039     40043     40039     40041     40042     40043     40044     40045
     40044     40047     40044     40048     40044     40046     40047     40048
     40049     40050     40049     40052     40049     40053     40049     40051
     40052     40053     40054     40055     40054     40057     40054     40058
     40054     40056     40057     40058     40059     40060     40059     40062
     40059     40063     40059     40061     40062     40063     40064     40065
     40064     40067     40064     40068     40064     40066     40067     40068
     40069     40070     40069     40072     40069     40073     40069     40071
     40072     40073     40074     40075     40074     40077     40074     40078
     40074     40076     40077     40078     40079     40080     40079     40082
     40079     40083     40079     40081     40082     40083     40084     40085
     40084     40087     40084     40088     40084     40086     40087     40088
     40089     40090     40089     40092     40089     40093     40089     40091
     40092     40093     40094     40095     40094     40097     40094     40098
     40094     40096     40097     40098     40099     40100     40099     40102
     40099     40103     40099     40101     40102     40103     40104     40105
     40104     40107     40104     40108     40104     40106     40107     40108
     40109     40110     40109     40112     40109     40113     40109     40111
     40112     40113     40114     40115     40114     40117     40114     40118
     40114     40116     40117     40118     40119     40120     40119     40122
     40119     40123     40119     40121     40122     40123     40124     40125
     40124     40127     40124     40128     40124     40126     40127     40128
     40129     40130     40129     40132     40129     40133     40129     40131
     40132     40133     40134     40135     40134     40137     40134     40138
     40134     40136     40137     40138     40139     40140     40139     40142
     40139     40143     40139     40141     40142     40143     40144     40145
     40144     40147     40144     40148     40144     40146     40147     40148
     40149     40150     40149     40152     40149     40153     40149     40151
     40152     40153     40154     40155     40154     40157     40154     40158
     40154     40156     40157     40158     40159     40160     40159     40162
     40159     40163     40159     40161     40162     40163     40164     40165
     40164     40167     40164     40168     40164     40166     40167     40168
     40169     40170     40169     40172     40169     40173     40169     40171
     40172     40173     40174     40175     40174     40177     40174     40178
     40174     40176     40177     40178     40179     40180     40179     40182
     40179     40183     40179     40181     40182     40183     40184     40185
     40184     40187     40184     40188     40184     40186     40187     40188
     40189     40190     40189     40192     40189     40193     40189     40191
     40192     40193     40194     40195     40194     40197     40194     40198
     40194     40196     40197     40198     40199     40200     40199     40202
     40199     40203     40199     40201     40202     40203     40204     40205
     40204     40207     40204     40208     40204     40206     40207     40208
     40209     40210     40209     40212     40209     40213     40209     40211
     40212     40213     40214     40215     40214     40217     40214     40218
     40214     40216     40217     40218     40219     40220     40219     40222
     40219     40223     40219     40221     40222     40223     40224     40225
     40224     40227     40224     40228     40224     40226     40227     40228
     40229     40230     40229     40232     40229     40233     40229     40231
     40232     40233     40234     40235     40234     40237     40234     40238
     40234     40236     40237     40238     40239     40240     40239     40242
     40239     40243     40239     40241     40242     40243     40244     40245
     40244     40247     40244     40248     40244     40246     40247     40248
     40249     40250     40249     40252     40249     40253     40249     40251
     40252     40253     40254     40255     40254     40257     40254     40258
     40254     40256     40257     40258     40259     40260     40259     40262
     40259     40263     40259     40261     40262     40263     40264     40265
     40264     40267     40264     40268     40264     40266     40267     40268
     40269     40270     40269     40272     40269     40273     40269     40271
     40272     40273     40274     40275     40274     40277     40274     40278
     40274     40276     40277     40278     40279     40280     40279     40282
     40279     40283     40279     40281     40282     40283     40284     40285
     40284     40287     40284     40288     40284     40286     40287     40288
     40289     40290     40289     40292     40289     40293     40289     40291
     40292     40293     40294     40295     40294     40297     40294     40298
     40294     40296     40297     40298     40299     40300     40299     40302
     40299     40303     40299     40301     40302     40303     40304     40305
     40304     40307     40304     40308     40304     40306     40307     40308
     40309     40310     40309     40312     40309     40313     40309     40311
     40312     40313     40314     40315     40314     40317     40314     40318
     40314     40316     40317     40318     40319     40320     40319     40322
     40319     40323     40319     40321     40322     40323     40324     40325
     40324     40327     40324     40328     40324     40326     40327     40328
     40329     40330     40329     40332     40329     40333     40329     40331
     40332     40333     40334     40335     40334     40337     40334     40338
     40334     40336     40337     40338     40339     40340     40339     40342
     40339     40343     40339     40341     40342     40343     40344     40345
     40344     40347     40344     40348     40344     40346     40347     40348
     40349     40350     40349     40352     40349     40353     40349     40351
     40352     40353     40354     40355     40354     40357     40354     40358
     40354     40356     40357     40358     40359     40360     40359     40362
     40359     40363     40359     40361     40362     40363     40364     40365
     40364     40367     40364     40368     40364     40366     40367     40368
     40369     40370     40369     40372     40369     40373     40369     40371
     40372     40373     40374     40375     40374     40377     40374     40378
     40374     40376     40377     40378     40379     40380     40379     40382
     40379     40383     40379     40381     40382     40383     40384     40385
     40384     40387     40384     40388     40384     40386     40387     40388
     40389     40390     40389     40392     40389     40393     40389     40391
     40392     40393     40394     40395     40394     40397     40394     40398
     40394     40396     40397     40398     40399     40400     40399     40402
     40399     40403     40399     40401     40402     40403     40404     40405
     40404     40407     40404     40408     40404     40406     40407     40408
     40409     40410     40409     40412     40409     40413     40409     40411
     40412     40413     40414     40415     40414     40417     40414     40418
     40414     40416     40417     40418     40419     40420     40419     40422
     40419     40423     40419     40421     40422     40423     40424     40425
     40424     40427     40424     40428     40424     40426     40427     40428
     40429     40430     40429     40432     40429     40433     40429     40431
     40432     40433     40434     40435     40434     40437     40434     40438
     40434     40436     40437     40438     40439     40440     40439     40442
     40439     40443     40439     40441     40442     40443     40444     40445
     40444     40447     40444     40448     40444     40446     40447     40448
     40449     40450     40449     40452     40449     40453     40449     40451
     40452     40453     40454     40455     40454     40457     40454     40458
     40454     40456     40457     40458     40459     40460     40459     40462
     40459     40463     40459     40461     40462     40463     40464     40465
     40464     40467     40464     40468     40464     40466     40467     40468
     40469     40470     40469     40472     40469     40473     40469     40471
     40472     40473     40474     40475     40474     40477     40474     40478
     40474     40476     40477     40478     40479     40480     40479     40482
     40479     40483     40479     40481     40482     40483     40484     40485
     40484     40487     40484     40488     40484     40486     40487     40488
     40489     40490     40489     40492     40489     40493     40489     40491
     40492     40493     40494     40495     40494     40497     40494     40498
     40494     40496     40497     40498     40499     40500     40499     40502
     40499     40503     40499     40501     40502     40503     40504     40505
     40504     40507     40504     40508     40504     40506     40507     40508
     40509     40510     40509     40512     40509     40513     40509     40511
     40512     40513     40514     40515     40514     40517     40514     40518
     40514     40516     40517     40518     40519     40520     40519     40522
     40519     40523     40519     40521     40522     40523     40524     40525
     40524     40527     40524     40528     40524     40526     40527     40528
     40529     40530     40529     40532     40529     40533     40529     40531
     40532     40533     40534     40535     40534     40537     40534     40538
     40534     40536     40537     40538     40539     40540     40539     40542
     40539     40543     40539     40541     40542     40543     40544     40545
     40544     40547     40544     40548     40544     40546     40547     40548
     40549     40550     40549     40552     40549     40553     40549     40551
     40552     40553     40554     40555     40554     40557     40554     40558
     40554     40556     40557     40558     40559     40560     40559     40562
     40559     40563     40559     40561     40562     40563     40564     40565
     40564     40567     40564     40568     40564     40566     40567     40568
     40569     40570     40569     40572     40569     40573     40569     40571
     40572     40573     40574     40575     40574     40577     40574     40578
     40574     40576     40577     40578     40579     40580     40579     40582
     40579     40583     40579     40581     40582     40583     40584     40585
     40584     40587     40584     40588     40584     40586     40587     40588
     40589     40590     40589     40592     40589     40593     40589     40591
     40592     40593     40594     40595     40594     40597     40594     40598
     40594     40596     40597     40598     40599     40600     40599     40602
     40599     40603     40599     40601     40602     40603     40604     40605
     40604     40607     40604     40608     40604     40606     40607     40608
     40609     40610     40609     40612     40609     40613     40609     40611
     40612     40613     40614     40615     40614     40617     40614     40618
     40614     40616     40617     40618     40619     40620     40619     40622
     40619     40623     40619     40621     40622     40623     40624     40625
     40624     40627     40624     40628     40624     40626     40627     40628
     40629     40630     40629     40632     40629     40633     40629     40631
     40632     40633     40634     40635     40634     40637     40634     40638
     40634     40636     40637     40638     40639     40640     40639     40642
     40639     40643     40639     40641     40642     40643     40644     40645
     40644     40647     40644     40648     40644     40646     40647     40648
     40649     40650     40649     40652     40649     40653     40649     40651
     40652     40653     40654     40655     40654     40657     40654     40658
     40654     40656     40657     40658     40659     40660     40659     40662
     40659     40663     40659     40661     40662     40663     40664     40665
     40664     40667     40664     40668     40664     40666     40667     40668
     40669     40670     40669     40672     40669     40673     40669     40671
     40672     40673     40674     40675     40674     40677     40674     40678
     40674     40676     40677     40678     40679     40680     40679     40682
     40679     40683     40679     40681     40682     40683     40684     40685
     40684     40687     40684     40688     40684     40686     40687     40688
     40689     40690     40689     40692     40689     40693     40689     40691
     40692     40693     40694     40695     40694     40697     40694     40698
     40694     40696     40697     40698     40699     40700     40699     40702
     40699     40703     40699     40701     40702     40703     40704     40705
     40704     40707     40704     40708     40704     40706     40707     40708
     40709     40710     40709     40712     40709     40713     40709     40711
     40712     40713     40714     40715     40714     40717     40714     40718
     40714     40716     40717     40718     40719     40720     40719     40722
     40719     40723     40719     40721     40722     40723     40724     40725
     40724     40727     40724     40728     40724     40726     40727     40728
     40729     40730     40729     40732     40729     40733     40729     40731
     40732     40733     40734     40735     40734     40737     40734     40738
     40734     40736     40737     40738     40739     40740     40739     40742
     40739     40743     40739     40741     40742     40743     40744     40745
     40744     40747     40744     40748     40744     40746     40747     40748
     40749     40750     40749     40752     40749     40753     40749     40751
     40752     40753     40754     40755     40754     40757     40754     40758
     40754     40756     40757     40758     40759     40760     40759     40762
     40759     40763     40759     40761     40762     40763     40764     40765
     40764     40767     40764     40768     40764     40766     40767     40768
     40769     40770     40769     40772     40769     40773     40769     40771
     40772     40773     40774     40775     40774     40777     40774     40778
     40774     40776     40777     40778     40779     40780     40779     40782
     40779     40783     40779     40781     40782     40783     40784     40785
     40784     40787     40784     40788     40784     40786     40787     40788
     40789     40790     40789     40792     40789     40793     40789     40791
     40792     40793     40794     40795     40794     40797     40794     40798
     40794     40796     40797     40798     40799     40800     40799     40802
     40799     40803     40799     40801     40802     40803     40804     40805
     40804     40807     40804     40808     40804     40806     40807     40808
     40809     40810     40809     40812     40809     40813     40809     40811
     40812     40813     40814     40815     40814     40817     40814     40818
     40814     40816     40817     40818     40819     40820     40819     40822
     40819     40823     40819     40821     40822     40823     40824     40825
     40824     40827     40824     40828     40824     40826     40827     40828
     40829     40830     40829     40832     40829     40833     40829     40831
     40832     40833     40834     40835     40834     40837     40834     40838
     40834     40836     40837     40838     40839     40840     40839     40842
     40839     40843     40839     40841     40842     40843     40844     40845
     40844     40847     40844     40848     40844     40846     40847     40848
     40849     40850     40849     40852     40849     40853     40849     40851
     40852     40853     40854     40855     40854     40857     40854     40858
     40854     40856     40857     40858     40859     40860     40859     40862
     40859     40863     40859     40861     40862     40863     40864     40865
     40864     40867     40864     40868     40864     40866     40867     40868
     40869     40870     40869     40872     40869     40873     40869     40871
     40872     40873     40874     40875     40874     40877     40874     40878
     40874     40876     40877     40878     40879     40880     40879     40882
     40879     40883     40879     40881     40882     40883     40884     40885
     40884     40887     40884     40888     40884     40886     40887     40888
     40889     40890     40889     40892     40889     40893     40889     40891
     40892     40893     40894     40895     40894     40897     40894     40898
     40894     40896     40897     40898     40899     40900     40899     40902
     40899     40903     40899     40901     40902     40903     40904     40905
     40904     40907     40904     40908     40904     40906     40907     40908
     40909     40910     40909     40912     40909     40913     40909     40911
     40912     40913     40914     40915     40914     40917     40914     40918
     40914     40916     40917     40918     40919     40920     40919     40922
     40919     40923     40919     40921     40922     40923     40924     40925
     40924     40927     40924     40928     40924     40926     40927     40928
     40929     40930     40929     40932     40929     40933     40929     40931
     40932     40933     40934     40935     40934     40937     40934     40938
     40934     40936     40937     40938     40939     40940     40939     40942
     40939     40943     40939     40941     40942     40943     40944     40945
     40944     40947     40944     40948     40944     40946     40947     40948
     40949     40950     40949     40952     40949     40953     40949     40951
     40952     40953     40954     40955     40954     40957     40954     40958
     40954     40956     40957     40958     40959     40960     40959     40962
     40959     40963     40959     40961     40962     40963     40964     40965
     40964     40967     40964     40968     40964     40966     40967     40968
     40969     40970     40969     40972     40969     40973     40969     40971
     40972     40973     40974     40975     40974     40977     40974     40978
     40974     40976     40977     40978     40979     40980     40979     40982
     40979     40983     40979     40981     40982     40983     40984     40985
     40984     40987     40984     40988     40984     40986     40987     40988
     40989     40990     40989     40992     40989     40993     40989     40991
     40992     40993     40994     40995     40994     40997     40994     40998
     40994     40996     40997     40998     40999     41000     40999     41002
     40999     41003     40999     41001     41002     41003     41004     41005
     41004     41007     41004     41008     41004     41006     41007     41008
     41009     41010     41009     41012     41009     41013     41009     41011
     41012     41013     41014     41015     41014     41017     41014     41018
     41014     41016     41017     41018     41019     41020     41019     41022
     41019     41023     41019     41021     41022     41023     41024     41025
     41024     41027     41024     41028     41024     41026     41027     41028
     41029     41030     41029     41032     41029     41033     41029     41031
     41032     41033     41034     41035     41034     41037     41034     41038
     41034     41036     41037     41038     41039     41040     41039     41042
     41039     41043     41039     41041     41042     41043     41044     41045
     41044     41047     41044     41048     41044     41046     41047     41048
     41049     41050     41049     41052     41049     41053     41049     41051
     41052     41053     41054     41055     41054     41057     41054     41058
     41054     41056     41057     41058     41059     41060     41059     41062
     41059     41063     41059     41061     41062     41063     41064     41065
     41064     41067     41064     41068     41064     41066     41067     41068
     41069     41070     41069     41072     41069     41073     41069     41071
     41072     41073     41074     41075     41074     41077     41074     41078
     41074     41076     41077     41078     41079     41080     41079     41082
     41079     41083     41079     41081     41082     41083     41084     41085
     41084     41087     41084     41088     41084     41086     41087     41088
     41089     41090     41089     41092     41089     41093     41089     41091
     41092     41093     41094     41095     41094     41097     41094     41098
     41094     41096     41097     41098     41099     41100     41099     41102
     41099     41103     41099     41101     41102     41103     41104     41105
     41104     41107     41104     41108     41104     41106     41107     41108
     41109     41110     41109     41112     41109     41113     41109     41111
     41112     41113     41114     41115     41114     41117     41114     41118
     41114     41116     41117     41118     41119     41120     41119     41122
     41119     41123     41119     41121     41122     41123     41124     41125
     41124     41127     41124     41128     41124     41126     41127     41128
     41129     41130     41129     41132     41129     41133     41129     41131
     41132     41133     41134     41135     41134     41137     41134     41138
     41134     41136     41137     41138     41139     41140     41139     41142
     41139     41143     41139     41141     41142     41143     41144     41145
     41144     41147     41144     41148     41144     41146     41147     41148
     41149     41150     41149     41152     41149     41153     41149     41151
     41152     41153     41154     41155     41154     41157     41154     41158
     41154     41156     41157     41158     41159     41160     41159     41162
     41159     41163     41159     41161     41162     41163     41164     41165
     41164     41167     41164     41168     41164     41166     41167     41168
     41169     41170     41169     41172     41169     41173     41169     41171
     41172     41173     41174     41175     41174     41177     41174     41178
     41174     41176     41177     41178     41179     41180     41179     41182
     41179     41183     41179     41181     41182     41183     41184     41185
     41184     41187     41184     41188     41184     41186     41187     41188
     41189     41190     41189     41192     41189     41193     41189     41191
     41192     41193     41194     41195     41194     41197     41194     41198
     41194     41196     41197     41198     41199     41200     41199     41202
     41199     41203     41199     41201     41202     41203     41204     41205
     41204     41207     41204     41208     41204     41206     41207     41208
     41209     41210     41209     41212     41209     41213     41209     41211
     41212     41213     41214     41215     41214     41217     41214     41218
     41214     41216     41217     41218     41219     41220     41219     41222
     41219     41223     41219     41221     41222     41223     41224     41225
     41224     41227     41224     41228     41224     41226     41227     41228
     41229     41230     41229     41232     41229     41233     41229     41231
     41232     41233     41234     41235     41234     41237     41234     41238
     41234     41236     41237     41238     41239     41240     41239     41242
     41239     41243     41239     41241     41242     41243     41244     41245
     41244     41247     41244     41248     41244     41246     41247     41248
     41249     41250     41249     41252     41249     41253     41249     41251
     41252     41253     41254     41255     41254     41257     41254     41258
     41254     41256     41257     41258     41259     41260     41259     41262
     41259     41263     41259     41261     41262     41263     41264     41265
     41264     41267     41264     41268     41264     41266     41267     41268
     41269     41270     41269     41272     41269     41273     41269     41271
     41272     41273     41274     41275     41274     41277     41274     41278
     41274     41276     41277     41278     41279     41280     41279     41282
     41279     41283     41279     41281     41282     41283     41284     41285
     41284     41287     41284     41288     41284     41286     41287     41288
     41289     41290     41289     41292     41289     41293     41289     41291
     41292     41293     41294     41295     41294     41297     41294     41298
     41294     41296     41297     41298     41299     41300     41299     41302
     41299     41303     41299     41301     41302     41303     41304     41305
     41304     41307     41304     41308     41304     41306     41307     41308
     41309     41310     41309     41312     41309     41313     41309     41311
     41312     41313     41314     41315     41314     41317     41314     41318
     41314     41316     41317     41318     41319     41320     41319     41322
     41319     41323     41319     41321     41322     41323     41324     41325
     41324     41327     41324     41328     41324     41326     41327     41328
     41329     41330     41329     41332     41329     41333     41329     41331
     41332     41333     41334     41335     41334     41337     41334     41338
     41334     41336     41337     41338     41339     41340     41339     41342
     41339     41343     41339     41341     41342     41343     41344     41345
     41344     41347     41344     41348     41344     41346     41347     41348
     41349     41350     41349     41352     41349     41353     41349     41351
     41352     41353     41354     41355     41354     41357     41354     41358
     41354     41356     41357     41358     41359     41360     41359     41362
     41359     41363     41359     41361     41362     41363     41364     41365
     41364     41367     41364     41368     41364     41366     41367     41368
     41369     41370     41369     41372     41369     41373     41369     41371
     41372     41373     41374     41375     41374     41377     41374     41378
     41374     41376     41377     41378     41379     41380     41379     41382
     41379     41383     41379     41381     41382     41383     41384     41385
     41384     41387     41384     41388     41384     41386     41387     41388
     41389     41390     41389     41392     41389     41393     41389     41391
     41392     41393     41394     41395     41394     41397     41394     41398
     41394     41396     41397     41398     41399     41400     41399     41402
     41399     41403     41399     41401     41402     41403     41404     41405
     41404     41407     41404     41408     41404     41406     41407     41408
     41409     41410     41409     41412     41409     41413     41409     41411
     41412     41413     41414     41415     41414     41417     41414     41418
     41414     41416     41417     41418     41419     41420     41419     41422
     41419     41423     41419     41421     41422     41423     41424     41425
     41424     41427     41424     41428     41424     41426     41427     41428
     41429     41430     41429     41432     41429     41433     41429     41431
     41432     41433     41434     41435     41434     41437     41434     41438
     41434     41436     41437     41438     41439     41440     41439     41442
     41439     41443     41439     41441     41442     41443     41444     41445
     41444     41447     41444     41448     41444     41446     41447     41448
     41449     41450     41449     41452     41449     41453     41449     41451
     41452     41453     41454     41455     41454     41457     41454     41458
     41454     41456     41457     41458     41459     41460     41459     41462
     41459     41463     41459     41461     41462     41463     41464     41465
     41464     41467     41464     41468     41464     41466     41467     41468
     41469     41470     41469     41472     41469     41473     41469     41471
     41472     41473     41474     41475     41474     41477     41474     41478
     41474     41476     41477     41478     41479     41480     41479     41482
     41479     41483     41479     41481     41482     41483     41484     41485
     41484     41487     41484     41488     41484     41486     41487     41488
     41489     41490     41489     41492     41489     41493     41489     41491
     41492     41493     41494     41495     41494     41497     41494     41498
     41494     41496     41497     41498     41499     41500     41499     41502
     41499     41503     41499     41501     41502     41503     41504     41505
     41504     41507     41504     41508     41504     41506     41507     41508
     41509     41510     41509     41512     41509     41513     41509     41511
     41512     41513     41514     41515     41514     41517     41514     41518
     41514     41516     41517     41518     41519     41520     41519     41522
     41519     41523     41519     41521     41522     41523     41524     41525
     41524     41527     41524     41528     41524     41526     41527     41528
     41529     41530     41529     41532     41529     41533     41529     41531
     41532     41533     41534     41535     41534     41537     41534     41538
     41534     41536     41537     41538     41539     41540     41539     41542
     41539     41543     41539     41541     41542     41543     41544     41545
     41544     41547     41544     41548     41544     41546     41547     41548
     41549     41550     41549     41552     41549     41553     41549     41551
     41552     41553     41554     41555     41554     41557     41554     41558
     41554     41556     41557     41558     41559     41560     41559     41562
     41559     41563     41559     41561     41562     41563     41564     41565
     41564     41567     41564     41568     41564     41566     41567     41568
     41569     41570     41569     41572     41569     41573     41569     41571
     41572     41573     41574     41575     41574     41577     41574     41578
     41574     41576     41577     41578     41579     41580     41579     41582
     41579     41583     41579     41581     41582     41583     41584     41585
     41584     41587     41584     41588     41584     41586     41587     41588
     41589     41590     41589     41592     41589     41593     41589     41591
     41592     41593     41594     41595     41594     41597     41594     41598
     41594     41596     41597     41598     41599     41600     41599     41602
     41599     41603     41599     41601     41602     41603     41604     41605
     41604     41607     41604     41608     41604     41606     41607     41608
     41609     41610     41609     41612     41609     41613     41609     41611
     41612     41613     41614     41615     41614     41617     41614     41618
     41614     41616     41617     41618     41619     41620     41619     41622
     41619     41623     41619     41621     41622     41623     41624     41625
     41624     41627     41624     41628     41624     41626     41627     41628
     41629     41630     41629     41632     41629     41633     41629     41631
     41632     41633     41634     41635     41634     41637     41634     41638
     41634     41636     41637     41638     41639     41640     41639     41642
     41639     41643     41639     41641     41642     41643     41644     41645
     41644     41647     41644     41648     41644     41646     41647     41648
     41649     41650     41649     41652     41649     41653     41649     41651
     41652     41653     41654     41655     41654     41657     41654     41658
     41654     41656     41657     41658     41659     41660     41659     41662
     41659     41663     41659     41661     41662     41663     41664     41665
     41664     41667     41664     41668     41664     41666     41667     41668
     41669     41670     41669     41672     41669     41673     41669     41671
     41672     41673     41674     41675     41674     41677     41674     41678
     41674     41676     41677     41678     41679     41680     41679     41682
     41679     41683     41679     41681     41682     41683     41684     41685
     41684     41687     41684     41688     41684     41686     41687     41688
     41689     41690     41689     41692     41689     41693     41689     41691
     41692     41693     41694     41695     41694     41697     41694     41698
     41694     41696     41697     41698     41699     41700     41699     41702
     41699     41703     41699     41701     41702     41703     41704     41705
     41704     41707     41704     41708     41704     41706     41707     41708
     41709     41710     41709     41712     41709     41713     41709     41711
     41712     41713     41714     41715     41714     41717     41714     41718
     41714     41716     41717     41718     41719     41720     41719     41722
     41719     41723     41719     41721     41722     41723     41724     41725
     41724     41727     41724     41728     41724     41726     41727     41728
     41729     41730     41729     41732     41729     41733     41729     41731
     41732     41733     41734     41735     41734     41737     41734     41738
     41734     41736     41737     41738     41739     41740     41739     41742
     41739     41743     41739     41741     41742     41743     41744     41745
     41744     41747     41744     41748     41744     41746     41747     41748
     41749     41750     41749     41752     41749     41753     41749     41751
     41752     41753     41754     41755     41754     41757     41754     41758
     41754     41756     41757     41758     41759     41760     41759     41762
     41759     41763     41759     41761     41762     41763     41764     41765
     41764     41767     41764     41768     41764     41766     41767     41768
     41769     41770     41769     41772     41769     41773     41769     41771
     41772     41773     41774     41775     41774     41777     41774     41778
     41774     41776     41777     41778     41779     41780     41779     41782
     41779     41783     41779     41781     41782     41783     41784     41785
     41784     41787     41784     41788     41784     41786     41787     41788
     41789     41790     41789     41792     41789     41793     41789     41791
     41792     41793     41794     41795     41794     41797     41794     41798
     41794     41796     41797     41798     41799     41800     41799     41802
     41799     41803     41799     41801     41802     41803     41804     41805
     41804     41807     41804     41808     41804     41806     41807     41808
     41809     41810     41809     41812     41809     41813     41809     41811
     41812     41813     41814     41815     41814     41817     41814     41818
     41814     41816     41817     41818     41819     41820     41819     41822
     41819     41823     41819     41821     41822     41823     41824     41825
     41824     41827     41824     41828     41824     41826     41827     41828
     41829     41830     41829     41832     41829     41833     41829     41831
     41832     41833     41834     41835     41834     41837     41834     41838
     41834     41836     41837     41838     41839     41840     41839     41842
     41839     41843     41839     41841     41842     41843     41844     41845
     41844     41847     41844     41848     41844     41846     41847     41848
     41849     41850     41849     41852     41849     41853     41849     41851
     41852     41853     41854     41855     41854     41857     41854     41858
     41854     41856     41857     41858     41859     41860     41859     41862
     41859     41863     41859     41861     41862     41863     41864     41865
     41864     41867     41864     41868     41864     41866     41867     41868
     41869     41870     41869     41872     41869     41873     41869     41871
     41872     41873     41874     41875     41874     41877     41874     41878
     41874     41876     41877     41878     41879     41880     41879     41882
     41879     41883     41879     41881     41882     41883     41884     41885
     41884     41887     41884     41888     41884     41886     41887     41888
     41889     41890     41889     41892     41889     41893     41889     41891
     41892     41893     41894     41895     41894     41897     41894     41898
     41894     41896     41897     41898     41899     41900     41899     41902
     41899     41903     41899     41901     41902     41903     41904     41905
     41904     41907     41904     41908     41904     41906     41907     41908
     41909     41910     41909     41912     41909     41913     41909     41911
     41912     41913     41914     41915     41914     41917     41914     41918
     41914     41916     41917     41918     41919     41920     41919     41922
     41919     41923     41919     41921     41922     41923     41924     41925
     41924     41927     41924     41928     41924     41926     41927     41928
     41929     41930     41929     41932     41929     41933     41929     41931
     41932     41933     41934     41935     41934     41937     41934     41938
     41934     41936     41937     41938     41939     41940     41939     41942
     41939     41943     41939     41941     41942     41943     41944     41945
     41944     41947     41944     41948     41944     41946     41947     41948
     41949     41950     41949     41952     41949     41953     41949     41951
     41952     41953     41954     41955     41954     41957     41954     41958
     41954     41956     41957     41958     41959     41960     41959     41962
     41959     41963     41959     41961     41962     41963     41964     41965
     41964     41967     41964     41968     41964     41966     41967     41968
     41969     41970     41969     41972     41969     41973     41969     41971
     41972     41973     41974     41975     41974     41977     41974     41978
     41974     41976     41977     41978     41979     41980     41979     41982
     41979     41983     41979     41981     41982     41983     41984     41985
     41984     41987     41984     41988     41984     41986     41987     41988
     41989     41990     41989     41992     41989     41993     41989     41991
     41992     41993     41994     41995     41994     41997     41994     41998
     41994     41996     41997     41998     41999     42000     41999     42002
     41999     42003     41999     42001     42002     42003     42004     42005
     42004     42007     42004     42008     42004     42006     42007     42008
     42009     42010     42009     42012     42009     42013     42009     42011
     42012     42013     42014     42015     42014     42017     42014     42018
     42014     42016     42017     42018     42019     42020     42019     42022
     42019     42023     42019     42021     42022     42023     42024     42025
     42024     42027     42024     42028     42024     42026     42027     42028
     42029     42030     42029     42032     42029     42033     42029     42031
     42032     42033     42034     42035     42034     42037     42034     42038
     42034     42036     42037     42038     42039     42040     42039     42042
     42039     42043     42039     42041     42042     42043     42044     42045
     42044     42047     42044     42048     42044     42046     42047     42048
     42049     42050     42049     42052     42049     42053     42049     42051
     42052     42053     42054     42055     42054     42057     42054     42058
     42054     42056     42057     42058     42059     42060     42059     42062
     42059     42063     42059     42061     42062     42063     42064     42065
     42064     42067     42064     42068     42064     42066     42067     42068
     42069     42070     42069     42072     42069     42073     42069     42071
     42072     42073     42074     42075     42074     42077     42074     42078
     42074     42076     42077     42078     42079     42080     42079     42082
     42079     42083     42079     42081     42082     42083     42084     42085
     42084     42087     42084     42088     42084     42086     42087     42088
     42089     42090     42089     42092     42089     42093     42089     42091
     42092     42093     42094     42095     42094     42097     42094     42098
     42094     42096     42097     42098     42099     42100     42099     42102
     42099     42103     42099     42101     42102     42103     42104     42105
     42104     42107     42104     42108     42104     42106     42107     42108
     42109     42110     42109     42112     42109     42113     42109     42111
     42112     42113     42114     42115     42114     42117     42114     42118
     42114     42116     42117     42118     42119     42120     42119     42122
     42119     42123     42119     42121     42122     42123     42124     42125
     42124     42127     42124     42128     42124     42126     42127     42128
     42129     42130     42129     42132     42129     42133     42129     42131
     42132     42133     42134     42135     42134     42137     42134     42138
     42134     42136     42137     42138     42139     42140     42139     42142
     42139     42143     42139     42141     42142     42143     42144     42145
     42144     42147     42144     42148     42144     42146     42147     42148
     42149     42150     42149     42152     42149     42153     42149     42151
     42152     42153     42154     42155     42154     42157     42154     42158
     42154     42156     42157     42158     42159     42160     42159     42162
     42159     42163     42159     42161     42162     42163     42164     42165
     42164     42167     42164     42168     42164     42166     42167     42168
     42169     42170     42169     42172     42169     42173     42169     42171
     42172     42173     42174     42175     42174     42177     42174     42178
     42174     42176     42177     42178     42179     42180     42179     42182
     42179     42183     42179     42181     42182     42183     42184     42185
     42184     42187     42184     42188     42184     42186     42187     42188
     42189     42190     42189     42192     42189     42193     42189     42191
     42192     42193     42194     42195     42194     42197     42194     42198
     42194     42196     42197     42198     42199     42200     42199     42202
     42199     42203     42199     42201     42202     42203     42204     42205
     42204     42207     42204     42208     42204     42206     42207     42208
     42209     42210     42209     42212     42209     42213     42209     42211
     42212     42213     42214     42215     42214     42217     42214     42218
     42214     42216     42217     42218     42219     42220     42219     42222
     42219     42223     42219     42221     42222     42223     42224     42225
     42224     42227     42224     42228     42224     42226     42227     42228
     42229     42230     42229     42232     42229     42233     42229     42231
     42232     42233     42234     42235     42234     42237     42234     42238
     42234     42236     42237     42238     42239     42240     42239     42242
     42239     42243     42239     42241     42242     42243     42244     42245
     42244     42247     42244     42248     42244     42246     42247     42248
     42249     42250     42249     42252     42249     42253     42249     42251
     42252     42253     42254     42255     42254     42257     42254     42258
     42254     42256     42257     42258     42259     42260     42259     42262
     42259     42263     42259     42261     42262     42263     42264     42265
     42264     42267     42264     42268     42264     42266     42267     42268
     42269     42270     42269     42272     42269     42273     42269     42271
     42272     42273     42274     42275     42274     42277     42274     42278
     42274     42276     42277     42278     42279     42280     42279     42282
     42279     42283     42279     42281     42282     42283     42284     42285
     42284     42287     42284     42288     42284     42286     42287     42288
     42289     42290     42289     42292     42289     42293     42289     42291
     42292     42293     42294     42295     42294     42297     42294     42298
     42294     42296     42297     42298     42299     42300     42299     42302
     42299     42303     42299     42301     42302     42303     42304     42305
     42304     42307     42304     42308     42304     42306     42307     42308
     42309     42310     42309     42312     42309     42313     42309     42311
     42312     42313     42314     42315     42314     42317     42314     42318
     42314     42316     42317     42318     42319     42320     42319     42322
     42319     42323     42319     42321     42322     42323     42324     42325
     42324     42327     42324     42328     42324     42326     42327     42328
     42329     42330     42329     42332     42329     42333     42329     42331
     42332     42333     42334     42335     42334     42337     42334     42338
     42334     42336     42337     42338     42339     42340     42339     42342
     42339     42343     42339     42341     42342     42343     42344     42345
     42344     42347     42344     42348     42344     42346     42347     42348
     42349     42350     42349     42352     42349     42353     42349     42351
     42352     42353     42354     42355     42354     42357     42354     42358
     42354     42356     42357     42358     42359     42360     42359     42362
     42359     42363     42359     42361     42362     42363     42364     42365
     42364     42367     42364     42368     42364     42366     42367     42368
     42369     42370     42369     42372     42369     42373     42369     42371
     42372     42373     42374     42375     42374     42377     42374     42378
     42374     42376     42377     42378     42379     42380     42379     42382
     42379     42383     42379     42381     42382     42383     42384     42385
     42384     42387     42384     42388     42384     42386     42387     42388
     42389     42390     42389     42392     42389     42393     42389     42391
     42392     42393     42394     42395     42394     42397     42394     42398
     42394     42396     42397     42398     42399     42400     42399     42402
     42399     42403     42399     42401     42402     42403     42404     42405
     42404     42407     42404     42408     42404     42406     42407     42408
     42409     42410     42409     42412     42409     42413     42409     42411
     42412     42413     42414     42415     42414     42417     42414     42418
     42414     42416     42417     42418     42419     42420     42419     42422
     42419     42423     42419     42421     42422     42423     42424     42425
     42424     42427     42424     42428     42424     42426     42427     42428
     42429     42430     42429     42432     42429     42433     42429     42431
     42432     42433     42434     42435     42434     42437     42434     42438
     42434     42436     42437     42438     42439     42440     42439     42442
     42439     42443     42439     42441     42442     42443     42444     42445
     42444     42447     42444     42448     42444     42446     42447     42448
     42449     42450     42449     42452     42449     42453     42449     42451
     42452     42453     42454     42455     42454     42457     42454     42458
     42454     42456     42457     42458     42459     42460     42459     42462
     42459     42463     42459     42461     42462     42463     42464     42465
     42464     42467     42464     42468     42464     42466     42467     42468
     42469     42470     42469     42472     42469     42473     42469     42471
     42472     42473     42474     42475     42474     42477     42474     42478
     42474     42476     42477     42478     42479     42480     42479     42482
     42479     42483     42479     42481     42482     42483     42484     42485
     42484     42487     42484     42488     42484     42486     42487     42488
     42489     42490     42489     42492     42489     42493     42489     42491
     42492     42493     42494     42495     42494     42497     42494     42498
     42494     42496     42497     42498     42499     42500     42499     42502
     42499     42503     42499     42501     42502     42503     42504     42505
     42504     42507     42504     42508     42504     42506     42507     42508
     42509     42510     42509     42512     42509     42513     42509     42511
     42512     42513     42514     42515     42514     42517     42514     42518
     42514     42516     42517     42518     42519     42520     42519     42522
     42519     42523     42519     42521     42522     42523     42524     42525
     42524     42527     42524     42528     42524     42526     42527     42528
     42529     42530     42529     42532     42529     42533     42529     42531
     42532     42533     42534     42535     42534     42537     42534     42538
     42534     42536     42537     42538     42539     42540     42539     42542
     42539     42543     42539     42541     42542     42543     42544     42545
     42544     42547     42544     42548     42544     42546     42547     42548
     42549     42550     42549     42552     42549     42553     42549     42551
     42552     42553     42554     42555     42554     42557     42554     42558
     42554     42556     42557     42558     42559     42560     42559     42562
     42559     42563     42559     42561     42562     42563     42564     42565
     42564     42567     42564     42568     42564     42566     42567     42568
     42569     42570     42569     42572     42569     42573     42569     42571
     42572     42573     42574     42575     42574     42577     42574     42578
     42574     42576     42577     42578     42579     42580     42579     42582
     42579     42583     42579     42581     42582     42583     42584     42585
     42584     42587     42584     42588     42584     42586     42587     42588
     42589     42590     42589     42592     42589     42593     42589     42591
     42592     42593     42594     42595     42594     42597     42594     42598
     42594     42596     42597     42598     42599     42600     42599     42602
     42599     42603     42599     42601     42602     42603     42604     42605
     42604     42607     42604     42608     42604     42606     42607     42608
     42609     42610     42609     42612     42609     42613     42609     42611
     42612     42613     42614     42615     42614     42617     42614     42618
     42614     42616     42617     42618     42619     42620     42619     42622
     42619     42623     42619     42621     42622     42623     42624     42625
     42624     42627     42624     42628     42624     42626     42627     42628
     42629     42630     42629     42632     42629     42633     42629     42631
     42632     42633     42634     42635     42634     42637     42634     42638
     42634     42636     42637     42638     42639     42640     42639     42642
     42639     42643     42639     42641     42642     42643     42644     42645
     42644     42647     42644     42648     42644     42646     42647     42648
     42649     42650     42649     42652     42649     42653     42649     42651
     42652     42653     42654     42655     42654     42657     42654     42658
     42654     42656     42657     42658     42659     42660     42659     42662
     42659     42663     42659     42661     42662     42663     42664     42665
     42664     42667     42664     42668     42664     42666     42667     42668
     42669     42670     42669     42672     42669     42673     42669     42671
     42672     42673     42674     42675     42674     42677     42674     42678
     42674     42676     42677     42678     42679     42680     42679     42682
     42679     42683     42679     42681     42682     42683     42684     42685
     42684     42687     42684     42688     42684     42686     42687     42688
     42689     42690     42689     42692     42689     42693     42689     42691
     42692     42693     42694     42695     42694     42697     42694     42698
     42694     42696     42697     42698     42699     42700     42699     42702
     42699     42703     42699     42701     42702     42703     42704     42705
     42704     42707     42704     42708     42704     42706     42707     42708
     42709     42710     42709     42712     42709     42713     42709     42711
     42712     42713     42714     42715     42714     42717     42714     42718
     42714     42716     42717     42718     42719     42720     42719     42722
     42719     42723     42719     42721     42722     42723     42724     42725
     42724     42727     42724     42728     42724     42726     42727     42728
     42729     42730     42729     42732     42729     42733     42729     42731
     42732     42733     42734     42735     42734     42737     42734     42738
     42734     42736     42737     42738     42739     42740     42739     42742
     42739     42743     42739     42741     42742     42743     42744     42745
     42744     42747     42744     42748     42744     42746     42747     42748
     42749     42750     42749     42752     42749     42753     42749     42751
     42752     42753     42754     42755     42754     42757     42754     42758
     42754     42756     42757     42758     42759     42760     42759     42762
     42759     42763     42759     42761     42762     42763     42764     42765
     42764     42767     42764     42768     42764     42766     42767     42768
     42769     42770     42769     42772     42769     42773     42769     42771
     42772     42773     42774     42775     42774     42777     42774     42778
     42774     42776     42777     42778     42779     42780     42779     42782
     42779     42783     42779     42781     42782     42783     42784     42785
     42784     42787     42784     42788     42784     42786     42787     42788
     42789     42790     42789     42792     42789     42793     42789     42791
     42792     42793     42794     42795     42794     42797     42794     42798
     42794     42796     42797     42798     42799     42800     42799     42802
     42799     42803     42799     42801     42802     42803     42804     42805
     42804     42807     42804     42808     42804     42806     42807     42808
     42809     42810     42809     42812     42809     42813     42809     42811
     42812     42813     42814     42815     42814     42817     42814     42818
     42814     42816     42817     42818     42819     42820     42819     42822
     42819     42823     42819     42821     42822     42823     42824     42825
     42824     42827     42824     42828     42824     42826     42827     42828
     42829     42830     42829     42832     42829     42833     42829     42831
     42832     42833     42834     42835     42834     42837     42834     42838
     42834     42836     42837     42838     42839     42840     42839     42842
     42839     42843     42839     42841     42842     42843     42844     42845
     42844     42847     42844     42848     42844     42846     42847     42848
     42849     42850     42849     42852     42849     42853     42849     42851
     42852     42853     42854     42855     42854     42857     42854     42858
     42854     42856     42857     42858     42859     42860     42859     42862
     42859     42863     42859     42861     42862     42863     42864     42865
     42864     42867     42864     42868     42864     42866     42867     42868
     42869     42870     42869     42872     42869     42873     42869     42871
     42872     42873     42874     42875     42874     42877     42874     42878
     42874     42876     42877     42878     42879     42880     42879     42882
     42879     42883     42879     42881     42882     42883     42884     42885
     42884     42887     42884     42888     42884     42886     42887     42888
     42889     42890     42889     42892     42889     42893     42889     42891
     42892     42893     42894     42895     42894     42897     42894     42898
     42894     42896     42897     42898     42899     42900     42899     42902
     42899     42903     42899     42901     42902     42903     42904     42905
     42904     42907     42904     42908     42904     42906     42907     42908
     42909     42910     42909     42912     42909     42913     42909     42911
     42912     42913     42914     42915     42914     42917     42914     42918
     42914     42916     42917     42918     42919     42920     42919     42922
     42919     42923     42919     42921     42922     42923     42924     42925
     42924     42927     42924     42928     42924     42926     42927     42928
     42929     42930     42929     42932     42929     42933     42929     42931
     42932     42933     42934     42935     42934     42937     42934     42938
     42934     42936     42937     42938     42939     42940     42939     42942
     42939     42943     42939     42941     42942     42943     42944     42945
     42944     42947     42944     42948     42944     42946     42947     42948
     42949     42950     42949     42952     42949     42953     42949     42951
     42952     42953     42954     42955     42954     42957     42954     42958
     42954     42956     42957     42958     42959     42960     42959     42962
     42959     42963     42959     42961     42962     42963     42964     42965
     42964     42967     42964     42968     42964     42966     42967     42968
     42969     42970     42969     42972     42969     42973     42969     42971
     42972     42973     42974     42975     42974     42977     42974     42978
     42974     42976     42977     42978     42979     42980     42979     42982
     42979     42983     42979     42981     42982     42983     42984     42985
     42984     42987     42984     42988     42984     42986     42987     42988
     42989     42990     42989     42992     42989     42993     42989     42991
     42992     42993     42994     42995     42994     42997     42994     42998
     42994     42996     42997     42998     42999     43000     42999     43002
     42999     43003     42999     43001     43002     43003     43004     43005
     43004     43007     43004     43008     43004     43006     43007     43008
     43009     43010     43009     43012     43009     43013     43009     43011
     43012     43013     43014     43015     43014     43017     43014     43018
     43014     43016     43017     43018     43019     43020     43019     43022
     43019     43023     43019     43021     43022     43023     43024     43025
     43024     43027     43024     43028     43024     43026     43027     43028
     43029     43030     43029     43032     43029     43033     43029     43031
     43032     43033     43034     43035     43034     43037     43034     43038
     43034     43036     43037     43038     43039     43040     43039     43042
     43039     43043     43039     43041     43042     43043     43044     43045
     43044     43047     43044     43048     43044     43046     43047     43048
     43049     43050     43049     43052     43049     43053     43049     43051
     43052     43053     43054     43055     43054     43057     43054     43058
     43054     43056     43057     43058     43059     43060     43059     43062
     43059     43063     43059     43061     43062     43063     43064     43065
     43064     43067     43064     43068     43064     43066     43067     43068
     43069     43070     43069     43072     43069     43073     43069     43071
     43072     43073     43074     43075     43074     43077     43074     43078
     43074     43076     43077     43078     43079     43080     43079     43082
     43079     43083     43079     43081     43082     43083     43084     43085
     43084     43087     43084     43088     43084     43086     43087     43088
     43089     43090     43089     43092     43089     43093     43089     43091
     43092     43093     43094     43095     43094     43097     43094     43098
     43094     43096     43097     43098     43099     43100     43099     43102
     43099     43103     43099     43101     43102     43103     43104     43105
     43104     43107     43104     43108     43104     43106     43107     43108
     43109     43110     43109     43112     43109     43113     43109     43111
     43112     43113     43114     43115     43114     43117     43114     43118
     43114     43116     43117     43118     43119     43120     43119     43122
     43119     43123     43119     43121     43122     43123     43124     43125
     43124     43127     43124     43128     43124     43126     43127     43128
     43129     43130     43129     43132     43129     43133     43129     43131
     43132     43133     43134     43135     43134     43137     43134     43138
     43134     43136     43137     43138     43139     43140     43139     43142
     43139     43143     43139     43141     43142     43143     43144     43145
     43144     43147     43144     43148     43144     43146     43147     43148
     43149     43150     43149     43152     43149     43153     43149     43151
     43152     43153     43154     43155     43154     43157     43154     43158
     43154     43156     43157     43158     43159     43160     43159     43162
     43159     43163     43159     43161     43162     43163     43164     43165
     43164     43167     43164     43168     43164     43166     43167     43168
     43169     43170     43169     43172     43169     43173     43169     43171
     43172     43173     43174     43175     43174     43177     43174     43178
     43174     43176     43177     43178     43179     43180     43179     43182
     43179     43183     43179     43181     43182     43183     43184     43185
     43184     43187     43184     43188     43184     43186     43187     43188
     43189     43190     43189     43192     43189     43193     43189     43191
     43192     43193     43194     43195     43194     43197     43194     43198
     43194     43196     43197     43198     43199     43200     43199     43202
     43199     43203     43199     43201     43202     43203     43204     43205
     43204     43207     43204     43208     43204     43206     43207     43208
     43209     43210     43209     43212     43209     43213     43209     43211
     43212     43213     43214     43215     43214     43217     43214     43218
     43214     43216     43217     43218     43219     43220     43219     43222
     43219     43223     43219     43221     43222     43223     43224     43225
     43224     43227     43224     43228     43224     43226     43227     43228
     43229     43230     43229     43232     43229     43233     43229     43231
     43232     43233     43234     43235     43234     43237     43234     43238
     43234     43236     43237     43238     43239     43240     43239     43242
     43239     43243     43239     43241     43242     43243     43244     43245
     43244     43247     43244     43248     43244     43246     43247     43248
     43249     43250     43249     43252     43249     43253     43249     43251
     43252     43253     43254     43255     43254     43257     43254     43258
     43254     43256     43257     43258     43259     43260     43259     43262
     43259     43263     43259     43261     43262     43263     43264     43265
     43264     43267     43264     43268     43264     43266     43267     43268
     43269     43270     43269     43272     43269     43273     43269     43271
     43272     43273     43274     43275     43274     43277     43274     43278
     43274     43276     43277     43278     43279     43280     43279     43282
     43279     43283     43279     43281     43282     43283     43284     43285
     43284     43287     43284     43288     43284     43286     43287     43288
     43289     43290     43289     43292     43289     43293     43289     43291
     43292     43293     43294     43295     43294     43297     43294     43298
     43294     43296     43297     43298     43299     43300     43299     43302
     43299     43303     43299     43301     43302     43303     43304     43305
     43304     43307     43304     43308     43304     43306     43307     43308
     43309     43310     43309     43312     43309     43313     43309     43311
     43312     43313     43314     43315     43314     43317     43314     43318
     43314     43316     43317     43318     43319     43320     43319     43322
     43319     43323     43319     43321     43322     43323     43324     43325
     43324     43327     43324     43328     43324     43326     43327     43328
     43329     43330     43329     43332     43329     43333     43329     43331
     43332     43333     43334     43335     43334     43337     43334     43338
     43334     43336     43337     43338     43339     43340     43339     43342
     43339     43343     43339     43341     43342     43343     43344     43345
     43344     43347     43344     43348     43344     43346     43347     43348
     43349     43350     43349     43352     43349     43353     43349     43351
     43352     43353     43354     43355     43354     43357     43354     43358
     43354     43356     43357     43358     43359     43360     43359     43362
     43359     43363     43359     43361     43362     43363     43364     43365
     43364     43367     43364     43368     43364     43366     43367     43368
     43369     43370     43369     43372     43369     43373     43369     43371
     43372     43373     43374     43375     43374     43377     43374     43378
     43374     43376     43377     43378     43379     43380     43379     43382
     43379     43383     43379     43381     43382     43383     43384     43385
     43384     43387     43384     43388     43384     43386     43387     43388
     43389     43390     43389     43392     43389     43393     43389     43391
     43392     43393     43394     43395     43394     43397     43394     43398
     43394     43396     43397     43398     43399     43400     43399     43402
     43399     43403     43399     43401     43402     43403     43404     43405
     43404     43407     43404     43408     43404     43406     43407     43408
     43409     43410     43409     43412     43409     43413     43409     43411
     43412     43413     43414     43415     43414     43417     43414     43418
     43414     43416     43417     43418     43419     43420     43419     43422
     43419     43423     43419     43421     43422     43423     43424     43425
     43424     43427     43424     43428     43424     43426     43427     43428
     43429     43430     43429     43432     43429     43433     43429     43431
     43432     43433     43434     43435     43434     43437     43434     43438
     43434     43436     43437     43438     43439     43440     43439     43442
     43439     43443     43439     43441     43442     43443     43444     43445
     43444     43447     43444     43448     43444     43446     43447     43448
     43449     43450     43449     43452     43449     43453     43449     43451
     43452     43453     43454     43455     43454     43457     43454     43458
     43454     43456     43457     43458     43459     43460     43459     43462
     43459     43463     43459     43461     43462     43463     43464     43465
     43464     43467     43464     43468     43464     43466     43467     43468
     43469     43470     43469     43472     43469     43473     43469     43471
     43472     43473     43474     43475     43474     43477     43474     43478
     43474     43476     43477     43478     43479     43480     43479     43482
     43479     43483     43479     43481     43482     43483     43484     43485
     43484     43487     43484     43488     43484     43486     43487     43488
     43489     43490     43489     43492     43489     43493     43489     43491
     43492     43493     43494     43495     43494     43497     43494     43498
     43494     43496     43497     43498     43499     43500     43499     43502
     43499     43503     43499     43501     43502     43503     43504     43505
     43504     43507     43504     43508     43504     43506     43507     43508
     43509     43510     43509     43512     43509     43513     43509     43511
     43512     43513     43514     43515     43514     43517     43514     43518
     43514     43516     43517     43518     43519     43520     43519     43522
     43519     43523     43519     43521     43522     43523     43524     43525
     43524     43527     43524     43528     43524     43526     43527     43528
     43529     43530     43529     43532     43529     43533     43529     43531
     43532     43533     43534     43535     43534     43537     43534     43538
     43534     43536     43537     43538     43539     43540     43539     43542
     43539     43543     43539     43541     43542     43543     43544     43545
     43544     43547     43544     43548     43544     43546     43547     43548
     43549     43550     43549     43552     43549     43553     43549     43551
     43552     43553     43554     43555     43554     43557     43554     43558
     43554     43556     43557     43558     43559     43560     43559     43562
     43559     43563     43559     43561     43562     43563     43564     43565
     43564     43567     43564     43568     43564     43566     43567     43568
     43569     43570     43569     43572     43569     43573     43569     43571
     43572     43573     43574     43575     43574     43577     43574     43578
     43574     43576     43577     43578     43579     43580     43579     43582
     43579     43583     43579     43581     43582     43583     43584     43585
     43584     43587     43584     43588     43584     43586     43587     43588
     43589     43590     43589     43592     43589     43593     43589     43591
     43592     43593     43594     43595     43594     43597     43594     43598
     43594     43596     43597     43598     43599     43600     43599     43602
     43599     43603     43599     43601     43602     43603     43604     43605
     43604     43607     43604     43608     43604     43606     43607     43608
     43609     43610     43609     43612     43609     43613     43609     43611
     43612     43613     43614     43615     43614     43617     43614     43618
     43614     43616     43617     43618     43619     43620     43619     43622
     43619     43623     43619     43621     43622     43623     43624     43625
     43624     43627     43624     43628     43624     43626     43627     43628
     43629     43630     43629     43632     43629     43633     43629     43631
     43632     43633     43634     43635     43634     43637     43634     43638
     43634     43636     43637     43638     43639     43640     43639     43642
     43639     43643     43639     43641     43642     43643     43644     43645
     43644     43647     43644     43648     43644     43646     43647     43648
     43649     43650     43649     43652     43649     43653     43649     43651
     43652     43653     43654     43655     43654     43657     43654     43658
     43654     43656     43657     43658     43659     43660     43659     43662
     43659     43663     43659     43661     43662     43663     43664     43665
     43664     43667     43664     43668     43664     43666     43667     43668
     43669     43670     43669     43672     43669     43673     43669     43671
     43672     43673     43674     43675     43674     43677     43674     43678
     43674     43676     43677     43678     43679     43680     43679     43682
     43679     43683     43679     43681     43682     43683     43684     43685
     43684     43687     43684     43688     43684     43686     43687     43688
     43689     43690     43689     43692     43689     43693     43689     43691
     43692     43693     43694     43695     43694     43697     43694     43698
     43694     43696     43697     43698     43699     43700     43699     43702
     43699     43703     43699     43701     43702     43703     43704     43705
     43704     43707     43704     43708     43704     43706     43707     43708
     43709     43710     43709     43712     43709     43713     43709     43711
     43712     43713     43714     43715     43714     43717     43714     43718
     43714     43716     43717     43718     43719     43720     43719     43722
     43719     43723     43719     43721     43722     43723     43724     43725
     43724     43727     43724     43728     43724     43726     43727     43728
     43729     43730     43729     43732     43729     43733     43729     43731
     43732     43733     43734     43735     43734     43737     43734     43738
     43734     43736     43737     43738     43739     43740     43739     43742
     43739     43743     43739     43741     43742     43743     43744     43745
     43744     43747     43744     43748     43744     43746     43747     43748
     43749     43750     43749     43752     43749     43753     43749     43751
     43752     43753     43754     43755     43754     43757     43754     43758
     43754     43756     43757     43758     43759     43760     43759     43762
     43759     43763     43759     43761     43762     43763     43764     43765
     43764     43767     43764     43768     43764     43766     43767     43768
     43769     43770     43769     43772     43769     43773     43769     43771
     43772     43773     43774     43775     43774     43777     43774     43778
     43774     43776     43777     43778     43779     43780     43779     43782
     43779     43783     43779     43781     43782     43783     43784     43785
     43784     43787     43784     43788     43784     43786     43787     43788
     43789     43790     43789     43792     43789     43793     43789     43791
     43792     43793     43794     43795     43794     43797     43794     43798
     43794     43796     43797     43798     43799     43800     43799     43802
     43799     43803     43799     43801     43802     43803     43804     43805
     43804     43807     43804     43808     43804     43806     43807     43808
     43809     43810     43809     43812     43809     43813     43809     43811
     43812     43813     43814     43815     43814     43817     43814     43818
     43814     43816     43817     43818     43819     43820     43819     43822
     43819     43823     43819     43821     43822     43823     43824     43825
     43824     43827     43824     43828     43824     43826     43827     43828
     43829     43830     43829     43832     43829     43833     43829     43831
     43832     43833     43834     43835     43834     43837     43834     43838
     43834     43836     43837     43838     43839     43840     43839     43842
     43839     43843     43839     43841     43842     43843     43844     43845
     43844     43847     43844     43848     43844     43846     43847     43848
     43849     43850     43849     43852     43849     43853     43849     43851
     43852     43853     43854     43855     43854     43857     43854     43858
     43854     43856     43857     43858     43859     43860     43859     43862
     43859     43863     43859     43861     43862     43863     43864     43865
     43864     43867     43864     43868     43864     43866     43867     43868
     43869     43870     43869     43872     43869     43873     43869     43871
     43872     43873     43874     43875     43874     43877     43874     43878
     43874     43876     43877     43878     43879     43880     43879     43882
     43879     43883     43879     43881     43882     43883     43884     43885
     43884     43887     43884     43888     43884     43886     43887     43888
     43889     43890     43889     43892     43889     43893     43889     43891
     43892     43893     43894     43895     43894     43897     43894     43898
     43894     43896     43897     43898     43899     43900     43899     43902
     43899     43903     43899     43901     43902     43903     43904     43905
     43904     43907     43904     43908     43904     43906     43907     43908
     43909     43910     43909     43912     43909     43913     43909     43911
     43912     43913     43914     43915     43914     43917     43914     43918
     43914     43916     43917     43918     43919     43920     43919     43922
     43919     43923     43919     43921     43922     43923     43924     43925
     43924     43927     43924     43928     43924     43926     43927     43928
     43929     43930     43929     43932     43929     43933     43929     43931
     43932     43933     43934     43935     43934     43937     43934     43938
     43934     43936     43937     43938     43939     43940     43939     43942
     43939     43943     43939     43941     43942     43943     43944     43945
     43944     43947     43944     43948     43944     43946     43947     43948
     43949     43950     43949     43952     43949     43953     43949     43951
     43952     43953     43954     43955     43954     43957     43954     43958
     43954     43956     43957     43958     43959     43960     43959     43962
     43959     43963     43959     43961     43962     43963     43964     43965
     43964     43967     43964     43968     43964     43966     43967     43968
     43969     43970     43969     43972     43969     43973     43969     43971
     43972     43973     43974     43975     43974     43977     43974     43978
     43974     43976     43977     43978     43979     43980     43979     43982
     43979     43983     43979     43981     43982     43983     43984     43985
     43984     43987     43984     43988     43984     43986     43987     43988
     43989     43990     43989     43992     43989     43993     43989     43991
     43992     43993     43994     43995     43994     43997     43994     43998
     43994     43996     43997     43998     43999     44000     43999     44002
     43999     44003     43999     44001     44002     44003     44004     44005
     44004     44007     44004     44008     44004     44006     44007     44008
     44009     44010     44009     44012     44009     44013     44009     44011
     44012     44013     44014     44015     44014     44017     44014     44018
     44014     44016     44017     44018     44019     44020     44019     44022
     44019     44023     44019     44021     44022     44023     44024     44025
     44024     44027     44024     44028     44024     44026     44027     44028
     44029     44030     44029     44032     44029     44033     44029     44031
     44032     44033     44034     44035     44034     44037     44034     44038
     44034     44036     44037     44038     44039     44040     44039     44042
     44039     44043     44039     44041     44042     44043     44044     44045
     44044     44047     44044     44048     44044     44046     44047     44048
     44049     44050     44049     44052     44049     44053     44049     44051
     44052     44053     44054     44055     44054     44057     44054     44058
     44054     44056     44057     44058     44059     44060     44059     44062
     44059     44063     44059     44061     44062     44063     44064     44065
     44064     44067     44064     44068     44064     44066     44067     44068
     44069     44070     44069     44072     44069     44073     44069     44071
     44072     44073     44074     44075     44074     44077     44074     44078
     44074     44076     44077     44078     44079     44080     44079     44082
     44079     44083     44079     44081     44082     44083     44084     44085
     44084     44087     44084     44088     44084     44086     44087     44088
     44089     44090     44089     44092     44089     44093     44089     44091
     44092     44093     44094     44095     44094     44097     44094     44098
     44094     44096     44097     44098     44099     44100     44099     44102
     44099     44103     44099     44101     44102     44103     44104     44105
     44104     44107     44104     44108     44104     44106     44107     44108
     44109     44110     44109     44112     44109     44113     44109     44111
     44112     44113     44114     44115     44114     44117     44114     44118
     44114     44116     44117     44118     44119     44120     44119     44122
     44119     44123     44119     44121     44122     44123     44124     44125
     44124     44127     44124     44128     44124     44126     44127     44128
     44129     44130     44129     44132     44129     44133     44129     44131
     44132     44133     44134     44135     44134     44137     44134     44138
     44134     44136     44137     44138     44139     44140     44139     44142
     44139     44143     44139     44141     44142     44143     44144     44145
     44144     44147     44144     44148     44144     44146     44147     44148
     44149     44150     44149     44152     44149     44153     44149     44151
     44152     44153     44154     44155     44154     44157     44154     44158
     44154     44156     44157     44158     44159     44160     44159     44162
     44159     44163     44159     44161     44162     44163     44164     44165
     44164     44167     44164     44168     44164     44166     44167     44168
     44169     44170     44169     44172     44169     44173     44169     44171
     44172     44173     44174     44175     44174     44177     44174     44178
     44174     44176     44177     44178     44179     44180     44179     44182
     44179     44183     44179     44181     44182     44183     44184     44185
     44184     44187     44184     44188     44184     44186     44187     44188
     44189     44190     44189     44192     44189     44193     44189     44191
     44192     44193     44194     44195     44194     44197     44194     44198
     44194     44196     44197     44198     44199     44200     44199     44202
     44199     44203     44199     44201     44202     44203     44204     44205
     44204     44207     44204     44208     44204     44206     44207     44208
     44209     44210     44209     44212     44209     44213     44209     44211
     44212     44213     44214     44215     44214     44217     44214     44218
     44214     44216     44217     44218     44219     44220     44219     44222
     44219     44223     44219     44221     44222     44223     44224     44225
     44224     44227     44224     44228     44224     44226     44227     44228
     44229     44230     44229     44232     44229     44233     44229     44231
     44232     44233     44234     44235     44234     44237     44234     44238
     44234     44236     44237     44238     44239     44240     44239     44242
     44239     44243     44239     44241     44242     44243     44244     44245
     44244     44247     44244     44248     44244     44246     44247     44248
     44249     44250     44249     44252     44249     44253     44249     44251
     44252     44253     44254     44255     44254     44257     44254     44258
     44254     44256     44257     44258     44259     44260     44259     44262
     44259     44263     44259     44261     44262     44263     44264     44265
     44264     44267     44264     44268     44264     44266     44267     44268
     44269     44270     44269     44272     44269     44273     44269     44271
     44272     44273     44274     44275     44274     44277     44274     44278
     44274     44276     44277     44278     44279     44280     44279     44282
     44279     44283     44279     44281     44282     44283     44284     44285
     44284     44287     44284     44288     44284     44286     44287     44288
     44289     44290     44289     44292     44289     44293     44289     44291
     44292     44293     44294     44295     44294     44297     44294     44298
     44294     44296     44297     44298     44299     44300     44299     44302
     44299     44303     44299     44301     44302     44303     44304     44305
     44304     44307     44304     44308     44304     44306     44307     44308
     44309     44310     44309     44312     44309     44313     44309     44311
     44312     44313     44314     44315     44314     44317     44314     44318
     44314     44316     44317     44318     44319     44320     44319     44322
     44319     44323     44319     44321     44322     44323     44324     44325
     44324     44327     44324     44328     44324     44326     44327     44328
     44329     44330     44329     44332     44329     44333     44329     44331
     44332     44333     44334     44335     44334     44337     44334     44338
     44334     44336     44337     44338     44339     44340     44339     44342
     44339     44343     44339     44341     44342     44343     44344     44345
     44344     44347     44344     44348     44344     44346     44347     44348
     44349     44350     44349     44352     44349     44353     44349     44351
     44352     44353     44354     44355     44354     44357     44354     44358
     44354     44356     44357     44358     44359     44360     44359     44362
     44359     44363     44359     44361     44362     44363     44364     44365
     44364     44367     44364     44368     44364     44366     44367     44368
     44369     44370     44369     44372     44369     44373     44369     44371
     44372     44373     44374     44375     44374     44377     44374     44378
     44374     44376     44377     44378     44379     44380     44379     44382
     44379     44383     44379     44381     44382     44383     44384     44385
     44384     44387     44384     44388     44384     44386     44387     44388
     44389     44390     44389     44392     44389     44393     44389     44391
     44392     44393     44394     44395     44394     44397     44394     44398
     44394     44396     44397     44398     44399     44400     44399     44402
     44399     44403     44399     44401     44402     44403     44404     44405
     44404     44407     44404     44408     44404     44406     44407     44408
     44409     44410     44409     44412     44409     44413     44409     44411
     44412     44413     44414     44415     44414     44417     44414     44418
     44414     44416     44417     44418     44419     44420     44419     44422
     44419     44423     44419     44421     44422     44423     44424     44425
     44424     44427     44424     44428     44424     44426     44427     44428
     44429     44430     44429     44432     44429     44433     44429     44431
     44432     44433     44434     44435     44434     44437     44434     44438
     44434     44436     44437     44438     44439     44440     44439     44442
     44439     44443     44439     44441     44442     44443     44444     44445
     44444     44447     44444     44448     44444     44446     44447     44448
     44449     44450     44449     44452     44449     44453     44449     44451
     44452     44453     44454     44455     44454     44457     44454     44458
     44454     44456     44457     44458     44459     44460     44459     44462
     44459     44463     44459     44461     44462     44463     44464     44465
     44464     44467     44464     44468     44464     44466     44467     44468
     44469     44470     44469     44472     44469     44473     44469     44471
     44472     44473     44474     44475     44474     44477     44474     44478
     44474     44476     44477     44478     44479     44480     44479     44482
     44479     44483     44479     44481     44482     44483     44484     44485
     44484     44487     44484     44488     44484     44486     44487     44488
     44489     44490     44489     44492     44489     44493     44489     44491
     44492     44493     44494     44495     44494     44497     44494     44498
     44494     44496     44497     44498     44499     44500     44499     44502
     44499     44503     44499     44501     44502     44503     44504     44505
     44504     44507     44504     44508     44504     44506     44507     44508
     44509     44510     44509     44512     44509     44513     44509     44511
     44512     44513     44514     44515     44514     44517     44514     44518
     44514     44516     44517     44518     44519     44520     44519     44522
     44519     44523     44519     44521     44522     44523     44524     44525
     44524     44527     44524     44528     44524     44526     44527     44528
     44529     44530     44529     44532     44529     44533     44529     44531
     44532     44533     44534     44535     44534     44537     44534     44538
     44534     44536     44537     44538     44539     44540     44539     44542
     44539     44543     44539     44541     44542     44543     44544     44545
     44544     44547     44544     44548     44544     44546     44547     44548
     44549     44550     44549     44552     44549     44553     44549     44551
     44552     44553     44554     44555     44554     44557     44554     44558
     44554     44556     44557     44558     44559     44560     44559     44562
     44559     44563     44559     44561     44562     44563     44564     44565
     44564     44567     44564     44568     44564     44566     44567     44568
     44569     44570     44569     44572     44569     44573     44569     44571
     44572     44573     44574     44575     44574     44577     44574     44578
     44574     44576     44577     44578     44579     44580     44579     44582
     44579     44583     44579     44581     44582     44583     44584     44585
     44584     44587     44584     44588     44584     44586     44587     44588
     44589     44590     44589     44592     44589     44593     44589     44591
     44592     44593     44594     44595     44594     44597     44594     44598
     44594     44596     44597     44598     44599     44600     44599     44602
     44599     44603     44599     44601     44602     44603     44604     44605
     44604     44607     44604     44608     44604     44606     44607     44608
     44609     44610     44609     44612     44609     44613     44609     44611
     44612     44613     44614     44615     44614     44617     44614     44618
     44614     44616     44617     44618     44619     44620     44619     44622
     44619     44623     44619     44621     44622     44623     44624     44625
     44624     44627     44624     44628     44624     44626     44627     44628
     44629     44630     44629     44632     44629     44633     44629     44631
     44632     44633     44634     44635     44634     44637     44634     44638
     44634     44636     44637     44638     44639     44640     44639     44642
     44639     44643     44639     44641     44642     44643     44644     44645
     44644     44647     44644     44648     44644     44646     44647     44648
     44649     44650     44649     44652     44649     44653     44649     44651
     44652     44653     44654     44655     44654     44657     44654     44658
     44654     44656     44657     44658     44659     44660     44659     44662
     44659     44663     44659     44661     44662     44663     44664     44665
     44664     44667     44664     44668     44664     44666     44667     44668
     44669     44670     44669     44672     44669     44673     44669     44671
     44672     44673     44674     44675     44674     44677     44674     44678
     44674     44676     44677     44678     44679     44680     44679     44682
     44679     44683     44679     44681     44682     44683     44684     44685
     44684     44687     44684     44688     44684     44686     44687     44688
     44689     44690     44689     44692     44689     44693     44689     44691
     44692     44693     44694     44695     44694     44697     44694     44698
     44694     44696     44697     44698     44699     44700     44699     44702
     44699     44703     44699     44701     44702     44703     44704     44705
     44704     44707     44704     44708     44704     44706     44707     44708
     44709     44710     44709     44712     44709     44713     44709     44711
     44712     44713     44714     44715     44714     44717     44714     44718
     44714     44716     44717     44718     44719     44720     44719     44722
     44719     44723     44719     44721     44722     44723     44724     44725
     44724     44727     44724     44728     44724     44726     44727     44728
     44729     44730     44729     44732     44729     44733     44729     44731
     44732     44733     44734     44735     44734     44737     44734     44738
     44734     44736     44737     44738     44739     44740     44739     44742
     44739     44743     44739     44741     44742     44743     44744     44745
     44744     44747     44744     44748     44744     44746     44747     44748
     44749     44750     44749     44752     44749     44753     44749     44751
     44752     44753     44754     44755     44754     44757     44754     44758
     44754     44756     44757     44758     44759     44760     44759     44762
     44759     44763     44759     44761     44762     44763     44764     44765
     44764     44767     44764     44768     44764     44766     44767     44768
     44769     44770     44769     44772     44769     44773     44769     44771
     44772     44773     44774     44775     44774     44777     44774     44778
     44774     44776     44777     44778     44779     44780     44779     44782
     44779     44783     44779     44781     44782     44783     44784     44785
     44784     44787     44784     44788     44784     44786     44787     44788
     44789     44790     44789     44792     44789     44793     44789     44791
     44792     44793     44794     44795     44794     44797     44794     44798
     44794     44796     44797     44798     44799     44800     44799     44802
     44799     44803     44799     44801     44802     44803     44804     44805
     44804     44807     44804     44808     44804     44806     44807     44808
     44809     44810     44809     44812     44809     44813     44809     44811
     44812     44813     44814     44815     44814     44817     44814     44818
     44814     44816     44817     44818     44819     44820     44819     44822
     44819     44823     44819     44821     44822     44823     44824     44825
     44824     44827     44824     44828     44824     44826     44827     44828
     44829     44830     44829     44832     44829     44833     44829     44831
     44832     44833     44834     44835     44834     44837     44834     44838
     44834     44836     44837     44838     44839     44840     44839     44842
     44839     44843     44839     44841     44842     44843     44844     44845
     44844     44847     44844     44848     44844     44846     44847     44848
     44849     44850     44849     44852     44849     44853     44849     44851
     44852     44853     44854     44855     44854     44857     44854     44858
     44854     44856     44857     44858     44859     44860     44859     44862
     44859     44863     44859     44861     44862     44863     44864     44865
     44864     44867     44864     44868     44864     44866     44867     44868
     44869     44870     44869     44872     44869     44873     44869     44871
     44872     44873     44874     44875     44874     44877     44874     44878
     44874     44876     44877     44878     44879     44880     44879     44882
     44879     44883     44879     44881     44882     44883     44884     44885
     44884     44887     44884     44888     44884     44886     44887     44888
     44889     44890     44889     44892     44889     44893     44889     44891
     44892     44893     44894     44895     44894     44897     44894     44898
     44894     44896     44897     44898     44899     44900     44899     44902
     44899     44903     44899     44901     44902     44903     44904     44905
     44904     44907     44904     44908     44904     44906     44907     44908
     44909     44910     44909     44912     44909     44913     44909     44911
     44912     44913     44914     44915     44914     44917     44914     44918
     44914     44916     44917     44918     44919     44920     44919     44922
     44919     44923     44919     44921     44922     44923     44924     44925
     44924     44927     44924     44928     44924     44926     44927     44928
     44929     44930     44929     44932     44929     44933     44929     44931
     44932     44933     44934     44935     44934     44937     44934     44938
     44934     44936     44937     44938     44939     44940     44939     44942
     44939     44943     44939     44941     44942     44943     44944     44945
     44944     44947     44944     44948     44944     44946     44947     44948
     44949     44950     44949     44952     44949     44953     44949     44951
     44952     44953     44954     44955     44954     44957     44954     44958
     44954     44956     44957     44958     44959     44960     44959     44962
     44959     44963     44959     44961     44962     44963     44964     44965
     44964     44967     44964     44968     44964     44966     44967     44968
     44969     44970     44969     44972     44969     44973     44969     44971
     44972     44973     44974     44975     44974     44977     44974     44978
     44974     44976     44977     44978     44979     44980     44979     44982
     44979     44983     44979     44981     44982     44983     44984     44985
     44984     44987     44984     44988     44984     44986     44987     44988
     44989     44990     44989     44992     44989     44993     44989     44991
     44992     44993     44994     44995     44994     44997     44994     44998
     44994     44996     44997     44998     44999     45000     44999     45002
     44999     45003     44999     45001     45002     45003     45004     45005
     45004     45007     45004     45008     45004     45006     45007     45008
     45009     45010     45009     45012     45009     45013     45009     45011
     45012     45013     45014     45015     45014     45017     45014     45018
     45014     45016     45017     45018     45019     45020     45019     45022
     45019     45023     45019     45021     45022     45023     45024     45025
     45024     45027     45024     45028     45024     45026     45027     45028
     45029     45030     45029     45032     45029     45033     45029     45031
     45032     45033     45034     45035     45034     45037     45034     45038
     45034     45036     45037     45038     45039     45040     45039     45042
     45039     45043     45039     45041     45042     45043     45044     45045
     45044     45047     45044     45048     45044     45046     45047     45048
     45049     45050     45049     45052     45049     45053     45049     45051
     45052     45053     45054     45055     45054     45057     45054     45058
     45054     45056     45057     45058     45059     45060     45059     45062
     45059     45063     45059     45061     45062     45063     45064     45065
     45064     45067     45064     45068     45064     45066     45067     45068
     45069     45070     45069     45072     45069     45073     45069     45071
     45072     45073     45074     45075     45074     45077     45074     45078
     45074     45076     45077     45078     45079     45080     45079     45082
     45079     45083     45079     45081     45082     45083     45084     45085
     45084     45087     45084     45088     45084     45086     45087     45088
     45089     45090     45089     45092     45089     45093     45089     45091
     45092     45093     45094     45095     45094     45097     45094     45098
     45094     45096     45097     45098     45099     45100     45099     45102
     45099     45103     45099     45101     45102     45103     45104     45105
     45104     45107     45104     45108     45104     45106     45107     45108
     45109     45110     45109     45112     45109     45113     45109     45111
     45112     45113     45114     45115     45114     45117     45114     45118
     45114     45116     45117     45118     45119     45120     45119     45122
     45119     45123     45119     45121     45122     45123     45124     45125
     45124     45127     45124     45128     45124     45126     45127     45128
     45129     45130     45129     45132     45129     45133     45129     45131
     45132     45133     45134     45135     45134     45137     45134     45138
     45134     45136     45137     45138     45139     45140     45139     45142
     45139     45143     45139     45141     45142     45143     45144     45145
     45144     45147     45144     45148     45144     45146     45147     45148
     45149     45150     45149     45152     45149     45153     45149     45151
     45152     45153     45154     45155     45154     45157     45154     45158
     45154     45156     45157     45158     45159     45160     45159     45162
     45159     45163     45159     45161     45162     45163     45164     45165
     45164     45167     45164     45168     45164     45166     45167     45168
     45169     45170     45169     45172     45169     45173     45169     45171
     45172     45173     45174     45175     45174     45177     45174     45178
     45174     45176     45177     45178     45179     45180     45179     45182
     45179     45183     45179     45181     45182     45183     45184     45185
     45184     45187     45184     45188     45184     45186     45187     45188
     45189     45190     45189     45192     45189     45193     45189     45191
     45192     45193     45194     45195     45194     45197     45194     45198
     45194     45196     45197     45198     45199     45200     45199     45202
     45199     45203     45199     45201     45202     45203     45204     45205
     45204     45207     45204     45208     45204     45206     45207     45208
     45209     45210     45209     45212     45209     45213     45209     45211
     45212     45213     45214     45215     45214     45217     45214     45218
     45214     45216     45217     45218     45219     45220     45219     45222
     45219     45223     45219     45221     45222     45223     45224     45225
     45224     45227     45224     45228     45224     45226     45227     45228
     45229     45230     45229     45232     45229     45233     45229     45231
     45232     45233     45234     45235     45234     45237     45234     45238
     45234     45236     45237     45238     45239     45240     45239     45242
     45239     45243     45239     45241     45242     45243     45244     45245
     45244     45247     45244     45248     45244     45246     45247     45248
     45249     45250     45249     45252     45249     45253     45249     45251
     45252     45253     45254     45255     45254     45257     45254     45258
     45254     45256     45257     45258     45259     45260     45259     45262
     45259     45263     45259     45261     45262     45263     45264     45265
     45264     45267     45264     45268     45264     45266     45267     45268
     45269     45270     45269     45272     45269     45273     45269     45271
     45272     45273     45274     45275     45274     45277     45274     45278
     45274     45276     45277     45278     45279     45280     45279     45282
     45279     45283     45279     45281     45282     45283     45284     45285
     45284     45287     45284     45288     45284     45286     45287     45288
     45289     45290     45289     45292     45289     45293     45289     45291
     45292     45293     45294     45295     45294     45297     45294     45298
     45294     45296     45297     45298     45299     45300     45299     45302
     45299     45303     45299     45301     45302     45303     45304     45305
     45304     45307     45304     45308     45304     45306     45307     45308
     45309     45310     45309     45312     45309     45313     45309     45311
     45312     45313     45314     45315     45314     45317     45314     45318
     45314     45316     45317     45318     45319     45320     45319     45322
     45319     45323     45319     45321     45322     45323     45324     45325
     45324     45327     45324     45328     45324     45326     45327     45328
     45329     45330     45329     45332     45329     45333     45329     45331
     45332     45333     45334     45335     45334     45337     45334     45338
     45334     45336     45337     45338     45339     45340     45339     45342
     45339     45343     45339     45341     45342     45343     45344     45345
     45344     45347     45344     45348     45344     45346     45347     45348
     45349     45350     45349     45352     45349     45353     45349     45351
     45352     45353     45354     45355     45354     45357     45354     45358
     45354     45356     45357     45358     45359     45360     45359     45362
     45359     45363     45359     45361     45362     45363     45364     45365
     45364     45367     45364     45368     45364     45366     45367     45368
     45369     45370     45369     45372     45369     45373     45369     45371
     45372     45373     45374     45375     45374     45377     45374     45378
     45374     45376     45377     45378     45379     45380     45379     45382
     45379     45383     45379     45381     45382     45383     45384     45385
     45384     45387     45384     45388     45384     45386     45387     45388
     45389     45390     45389     45392     45389     45393     45389     45391
     45392     45393     45394     45395     45394     45397     45394     45398
     45394     45396     45397     45398     45399     45400     45399     45402
     45399     45403     45399     45401     45402     45403     45404     45405
     45404     45407     45404     45408     45404     45406     45407     45408
     45409     45410     45409     45412     45409     45413     45409     45411
     45412     45413     45414     45415     45414     45417     45414     45418
     45414     45416     45417     45418     45419     45420     45419     45422
     45419     45423     45419     45421     45422     45423     45424     45425
     45424     45427     45424     45428     45424     45426     45427     45428
     45429     45430     45429     45432     45429     45433     45429     45431
     45432     45433     45434     45435     45434     45437     45434     45438
     45434     45436     45437     45438     45439     45440     45439     45442
     45439     45443     45439     45441     45442     45443     45444     45445
     45444     45447     45444     45448     45444     45446     45447     45448
     45449     45450     45449     45452     45449     45453     45449     45451
     45452     45453     45454     45455     45454     45457     45454     45458
     45454     45456     45457     45458     45459     45460     45459     45462
     45459     45463     45459     45461     45462     45463     45464     45465
     45464     45467     45464     45468     45464     45466     45467     45468
     45469     45470     45469     45472     45469     45473     45469     45471
     45472     45473     45474     45475     45474     45477     45474     45478
     45474     45476     45477     45478     45479     45480     45479     45482
     45479     45483     45479     45481     45482     45483     45484     45485
     45484     45487     45484     45488     45484     45486     45487     45488
     45489     45490     45489     45492     45489     45493     45489     45491
     45492     45493     45494     45495     45494     45497     45494     45498
     45494     45496     45497     45498     45499     45500     45499     45502
     45499     45503     45499     45501     45502     45503     45504     45505
     45504     45507     45504     45508     45504     45506     45507     45508
     45509     45510     45509     45512     45509     45513     45509     45511
     45512     45513     45514     45515     45514     45517     45514     45518
     45514     45516     45517     45518     45519     45520     45519     45522
     45519     45523     45519     45521     45522     45523     45524     45525
     45524     45527     45524     45528     45524     45526     45527     45528
     45529     45530     45529     45532     45529     45533     45529     45531
     45532     45533     45534     45535     45534     45537     45534     45538
     45534     45536     45537     45538     45539     45540     45539     45542
     45539     45543     45539     45541     45542     45543     45544     45545
     45544     45547     45544     45548     45544     45546     45547     45548
     45549     45550     45549     45552     45549     45553     45549     45551
     45552     45553     45554     45555     45554     45557     45554     45558
     45554     45556     45557     45558     45559     45560     45559     45562
     45559     45563     45559     45561     45562     45563     45564     45565
     45564     45567     45564     45568     45564     45566     45567     45568
     45569     45570     45569     45572     45569     45573     45569     45571
     45572     45573     45574     45575     45574     45577     45574     45578
     45574     45576     45577     45578     45579     45580     45579     45582
     45579     45583     45579     45581     45582     45583     45584     45585
     45584     45587     45584     45588     45584     45586     45587     45588
     45589     45590     45589     45592     45589     45593     45589     45591
     45592     45593     45594     45595     45594     45597     45594     45598
     45594     45596     45597     45598     45599     45600     45599     45602
     45599     45603     45599     45601     45602     45603     45604     45605
     45604     45607     45604     45608     45604     45606     45607     45608
     45609     45610     45609     45612     45609     45613     45609     45611
     45612     45613     45614     45615     45614     45617     45614     45618
     45614     45616     45617     45618     45619     45620     45619     45622
     45619     45623     45619     45621     45622     45623     45624     45625
     45624     45627     45624     45628     45624     45626     45627     45628
     45629     45630     45629     45632     45629     45633     45629     45631
     45632     45633     45634     45635     45634     45637     45634     45638
     45634     45636     45637     45638     45639     45640     45639     45642
     45639     45643     45639     45641     45642     45643     45644     45645
     45644     45647     45644     45648     45644     45646     45647     45648
     45649     45650     45649     45652     45649     45653     45649     45651
     45652     45653     45654     45655     45654     45657     45654     45658
     45654     45656     45657     45658     45659     45660     45659     45662
     45659     45663     45659     45661     45662     45663     45664     45665
     45664     45667     45664     45668     45664     45666     45667     45668
     45669     45670     45669     45672     45669     45673     45669     45671
     45672     45673     45674     45675     45674     45677     45674     45678
     45674     45676     45677     45678     45679     45680     45679     45682
     45679     45683     45679     45681     45682     45683     45684     45685
     45684     45687     45684     45688     45684     45686     45687     45688
     45689     45690     45689     45692     45689     45693     45689     45691
     45692     45693     45694     45695     45694     45697     45694     45698
     45694     45696     45697     45698     45699     45700     45699     45702
     45699     45703     45699     45701     45702     45703     45704     45705
     45704     45707     45704     45708     45704     45706     45707     45708
     45709     45710     45709     45712     45709     45713     45709     45711
     45712     45713     45714     45715     45714     45717     45714     45718
     45714     45716     45717     45718     45719     45720     45719     45722
     45719     45723     45719     45721     45722     45723     45724     45725
     45724     45727     45724     45728     45724     45726     45727     45728
     45729     45730     45729     45732     45729     45733     45729     45731
     45732     45733     45734     45735     45734     45737     45734     45738
     45734     45736     45737     45738     45739     45740     45739     45742
     45739     45743     45739     45741     45742     45743     45744     45745
     45744     45747     45744     45748     45744     45746     45747     45748
     45749     45750     45749     45752     45749     45753     45749     45751
     45752     45753     45754     45755     45754     45757     45754     45758
     45754     45756     45757     45758     45759     45760     45759     45762
     45759     45763     45759     45761     45762     45763     45764     45765
     45764     45767     45764     45768     45764     45766     45767     45768
     45769     45770     45769     45772     45769     45773     45769     45771
     45772     45773     45774     45775     45774     45777     45774     45778
     45774     45776     45777     45778     45779     45780     45779     45782
     45779     45783     45779     45781     45782     45783     45784     45785
     45784     45787     45784     45788     45784     45786     45787     45788
     45789     45790     45789     45792     45789     45793     45789     45791
     45792     45793     45794     45795     45794     45797     45794     45798
     45794     45796     45797     45798     45799     45800     45799     45802
     45799     45803     45799     45801     45802     45803     45804     45805
     45804     45807     45804     45808     45804     45806     45807     45808
     45809     45810     45809     45812     45809     45813     45809     45811
     45812     45813     45814     45815     45814     45817     45814     45818
     45814     45816     45817     45818     45819     45820     45819     45822
     45819     45823     45819     45821     45822     45823     45824     45825
     45824     45827     45824     45828     45824     45826     45827     45828
     45829     45830     45829     45832     45829     45833     45829     45831
     45832     45833     45834     45835     45834     45837     45834     45838
     45834     45836     45837     45838     45839     45840     45839     45842
     45839     45843     45839     45841     45842     45843     45844     45845
     45844     45847     45844     45848     45844     45846     45847     45848
     45849     45850     45849     45852     45849     45853     45849     45851
     45852     45853     45854     45855     45854     45857     45854     45858
     45854     45856     45857     45858     45859     45860     45859     45862
     45859     45863     45859     45861     45862     45863     45864     45865
     45864     45867     45864     45868     45864     45866     45867     45868
     45869     45870     45869     45872     45869     45873     45869     45871
     45872     45873     45874     45875     45874     45877     45874     45878
     45874     45876     45877     45878     45879     45880     45879     45882
     45879     45883     45879     45881     45882     45883     45884     45885
     45884     45887     45884     45888     45884     45886     45887     45888
     45889     45890     45889     45892     45889     45893     45889     45891
     45892     45893     45894     45895     45894     45897     45894     45898
     45894     45896     45897     45898     45899     45900     45899     45902
     45899     45903     45899     45901     45902     45903     45904     45905
     45904     45907     45904     45908     45904     45906     45907     45908
     45909     45910     45909     45912     45909     45913     45909     45911
     45912     45913     45914     45915     45914     45917     45914     45918
     45914     45916     45917     45918     45919     45920     45919     45922
     45919     45923     45919     45921     45922     45923     45924     45925
     45924     45927     45924     45928     45924     45926     45927     45928
     45929     45930     45929     45932     45929     45933     45929     45931
     45932     45933     45934     45935     45934     45937     45934     45938
     45934     45936     45937     45938     45939     45940     45939     45942
     45939     45943     45939     45941     45942     45943     45944     45945
     45944     45947     45944     45948     45944     45946     45947     45948
     45949     45950     45949     45952     45949     45953     45949     45951
     45952     45953     45954     45955     45954     45957     45954     45958
     45954     45956     45957     45958     45959     45960     45959     45962
     45959     45963     45959     45961     45962     45963     45964     45965
     45964     45967     45964     45968     45964     45966     45967     45968
     45969     45970     45969     45972     45969     45973     45969     45971
     45972     45973     45974     45975     45974     45977     45974     45978
     45974     45976     45977     45978     45979     45980     45979     45982
     45979     45983     45979     45981     45982     45983     45984     45985
     45984     45987     45984     45988     45984     45986     45987     45988
     45989     45990     45989     45992     45989     45993     45989     45991
     45992     45993     45994     45995     45994     45997     45994     45998
     45994     45996     45997     45998     45999     46000     45999     46002
     45999     46003     45999     46001     46002     46003     46004     46005
     46004     46007     46004     46008     46004     46006     46007     46008
     46009     46010     46009     46012     46009     46013     46009     46011
     46012     46013     46014     46015     46014     46017     46014     46018
     46014     46016     46017     46018     46019     46020     46019     46022
     46019     46023     46019     46021     46022     46023     46024     46025
     46024     46027     46024     46028     46024     46026     46027     46028
     46029     46030     46029     46032     46029     46033     46029     46031
     46032     46033     46034     46035     46034     46037     46034     46038
     46034     46036     46037     46038     46039     46040     46039     46042
     46039     46043     46039     46041     46042     46043     46044     46045
     46044     46047     46044     46048     46044     46046     46047     46048
     46049     46050     46049     46052     46049     46053     46049     46051
     46052     46053     46054     46055     46054     46057     46054     46058
     46054     46056     46057     46058     46059     46060     46059     46062
     46059     46063     46059     46061     46062     46063     46064     46065
     46064     46067     46064     46068     46064     46066     46067     46068
     46069     46070     46069     46072     46069     46073     46069     46071
     46072     46073     46074     46075     46074     46077     46074     46078
     46074     46076     46077     46078     46079     46080     46079     46082
     46079     46083     46079     46081     46082     46083     46084     46085
     46084     46087     46084     46088     46084     46086     46087     46088
     46089     46090     46089     46092     46089     46093     46089     46091
     46092     46093     46094     46095     46094     46097     46094     46098
     46094     46096     46097     46098     46099     46100     46099     46102
     46099     46103     46099     46101     46102     46103     46104     46105
     46104     46107     46104     46108     46104     46106     46107     46108
     46109     46110     46109     46112     46109     46113     46109     46111
     46112     46113     46114     46115     46114     46117     46114     46118
     46114     46116     46117     46118     46119     46120     46119     46122
     46119     46123     46119     46121     46122     46123     46124     46125
     46124     46127     46124     46128     46124     46126     46127     46128
     46129     46130     46129     46132     46129     46133     46129     46131
     46132     46133     46134     46135     46134     46137     46134     46138
     46134     46136     46137     46138     46139     46140     46139     46142
     46139     46143     46139     46141     46142     46143     46144     46145
     46144     46147     46144     46148     46144     46146     46147     46148
     46149     46150     46149     46152     46149     46153     46149     46151
     46152     46153     46154     46155     46154     46157     46154     46158
     46154     46156     46157     46158     46159     46160     46159     46162
     46159     46163     46159     46161     46162     46163     46164     46165
     46164     46167     46164     46168     46164     46166     46167     46168
     46169     46170     46169     46172     46169     46173     46169     46171
     46172     46173     46174     46175     46174     46177     46174     46178
     46174     46176     46177     46178     46179     46180     46179     46182
     46179     46183     46179     46181     46182     46183     46184     46185
     46184     46187     46184     46188     46184     46186     46187     46188
     46189     46190     46189     46192     46189     46193     46189     46191
     46192     46193     46194     46195     46194     46197     46194     46198
     46194     46196     46197     46198     46199     46200     46199     46202
     46199     46203     46199     46201     46202     46203     46204     46205
     46204     46207     46204     46208     46204     46206     46207     46208
     46209     46210     46209     46212     46209     46213     46209     46211
     46212     46213     46214     46215     46214     46217     46214     46218
     46214     46216     46217     46218     46219     46220     46219     46222
     46219     46223     46219     46221     46222     46223     46224     46225
     46224     46227     46224     46228     46224     46226     46227     46228
     46229     46230     46229     46232     46229     46233     46229     46231
     46232     46233     46234     46235     46234     46237     46234     46238
     46234     46236     46237     46238     46239     46240     46239     46242
     46239     46243     46239     46241     46242     46243     46244     46245
     46244     46247     46244     46248     46244     46246     46247     46248
     46249     46250     46249     46252     46249     46253     46249     46251
     46252     46253     46254     46255     46254     46257     46254     46258
     46254     46256     46257     46258     46259     46260     46259     46262
     46259     46263     46259     46261     46262     46263     46264     46265
     46264     46267     46264     46268     46264     46266     46267     46268
     46269     46270     46269     46272     46269     46273     46269     46271
     46272     46273     46274     46275     46274     46277     46274     46278
     46274     46276     46277     46278     46279     46280     46279     46282
     46279     46283     46279     46281     46282     46283     46284     46285
     46284     46287     46284     46288     46284     46286     46287     46288
     46289     46290     46289     46292     46289     46293     46289     46291
     46292     46293     46294     46295     46294     46297     46294     46298
     46294     46296     46297     46298     46299     46300     46299     46302
     46299     46303     46299     46301     46302     46303     46304     46305
     46304     46307     46304     46308     46304     46306     46307     46308
     46309     46310     46309     46312     46309     46313     46309     46311
     46312     46313     46314     46315     46314     46317     46314     46318
     46314     46316     46317     46318     46319     46320     46319     46322
     46319     46323     46319     46321     46322     46323     46324     46325
     46324     46327     46324     46328     46324     46326     46327     46328
     46329     46330     46329     46332     46329     46333     46329     46331
     46332     46333     46334     46335     46334     46337     46334     46338
     46334     46336     46337     46338     46339     46340     46339     46342
     46339     46343     46339     46341     46342     46343     46344     46345
     46344     46347     46344     46348     46344     46346     46347     46348
     46349     46350     46349     46352     46349     46353     46349     46351
     46352     46353     46354     46355     46354     46357     46354     46358
     46354     46356     46357     46358     46359     46360     46359     46362
     46359     46363     46359     46361     46362     46363     46364     46365
     46364     46367     46364     46368     46364     46366     46367     46368
     46369     46370     46369     46372     46369     46373     46369     46371
     46372     46373     46374     46375     46374     46377     46374     46378
     46374     46376     46377     46378     46379     46380     46379     46382
     46379     46383     46379     46381     46382     46383     46384     46385
     46384     46387     46384     46388     46384     46386     46387     46388
     46389     46390     46389     46392     46389     46393     46389     46391
     46392     46393     46394     46395     46394     46397     46394     46398
     46394     46396     46397     46398     46399     46400     46399     46402
     46399     46403     46399     46401     46402     46403     46404     46405
     46404     46407     46404     46408     46404     46406     46407     46408
     46409     46410     46409     46412     46409     46413     46409     46411
     46412     46413     46414     46415     46414     46417     46414     46418
     46414     46416     46417     46418     46419     46420     46419     46422
     46419     46423     46419     46421     46422     46423     46424     46425
     46424     46427     46424     46428     46424     46426     46427     46428
     46429     46430     46429     46432     46429     46433     46429     46431
     46432     46433     46434     46435     46434     46437     46434     46438
     46434     46436     46437     46438     46439     46440     46439     46442
     46439     46443     46439     46441     46442     46443     46444     46445
     46444     46447     46444     46448     46444     46446     46447     46448
     46449     46450     46449     46452     46449     46453     46449     46451
     46452     46453     46454     46455     46454     46457     46454     46458
     46454     46456     46457     46458     46459     46460     46459     46462
     46459     46463     46459     46461     46462     46463     46464     46465
     46464     46467     46464     46468     46464     46466     46467     46468
     46469     46470     46469     46472     46469     46473     46469     46471
     46472     46473     46474     46475     46474     46477     46474     46478
     46474     46476     46477     46478     46479     46480     46479     46482
     46479     46483     46479     46481     46482     46483     46484     46485
     46484     46487     46484     46488     46484     46486     46487     46488
     46489     46490     46489     46492     46489     46493     46489     46491
     46492     46493     46494     46495     46494     46497     46494     46498
     46494     46496     46497     46498     46499     46500     46499     46502
     46499     46503     46499     46501     46502     46503     46504     46505
     46504     46507     46504     46508     46504     46506     46507     46508
     46509     46510     46509     46512     46509     46513     46509     46511
     46512     46513     46514     46515     46514     46517     46514     46518
     46514     46516     46517     46518     46519     46520     46519     46522
     46519     46523     46519     46521     46522     46523     46524     46525
     46524     46527     46524     46528     46524     46526     46527     46528
     46529     46530     46529     46532     46529     46533     46529     46531
     46532     46533     46534     46535     46534     46537     46534     46538
     46534     46536     46537     46538     46539     46540     46539     46542
     46539     46543     46539     46541     46542     46543     46544     46545
     46544     46547     46544     46548     46544     46546     46547     46548
     46549     46550     46549     46552     46549     46553     46549     46551
     46552     46553     46554     46555     46554     46557     46554     46558
     46554     46556     46557     46558     46559     46560     46559     46562
     46559     46563     46559     46561     46562     46563     46564     46565
     46564     46567     46564     46568     46564     46566     46567     46568
     46569     46570     46569     46572     46569     46573     46569     46571
     46572     46573     46574     46575     46574     46577     46574     46578
     46574     46576     46577     46578     46579     46580     46579     46582
     46579     46583     46579     46581     46582     46583     46584     46585
     46584     46587     46584     46588     46584     46586     46587     46588
     46589     46590     46589     46592     46589     46593     46589     46591
     46592     46593     46594     46595     46594     46597     46594     46598
     46594     46596     46597     46598     46599     46600     46599     46602
     46599     46603     46599     46601     46602     46603     46604     46605
     46604     46607     46604     46608     46604     46606     46607     46608
     46609     46610     46609     46612     46609     46613     46609     46611
     46612     46613     46614     46615     46614     46617     46614     46618
     46614     46616     46617     46618     46619     46620     46619     46622
     46619     46623     46619     46621     46622     46623     46624     46625
     46624     46627     46624     46628     46624     46626     46627     46628
     46629     46630     46629     46632     46629     46633     46629     46631
     46632     46633     46634     46635     46634     46637     46634     46638
     46634     46636     46637     46638     46639     46640     46639     46642
     46639     46643     46639     46641     46642     46643     46644     46645
     46644     46647     46644     46648     46644     46646     46647     46648
     46649     46650     46649     46652     46649     46653     46649     46651
     46652     46653     46654     46655     46654     46657     46654     46658
     46654     46656     46657     46658     46659     46660     46659     46662
     46659     46663     46659     46661     46662     46663     46664     46665
     46664     46667     46664     46668     46664     46666     46667     46668
     46669     46670     46669     46672     46669     46673     46669     46671
     46672     46673     46674     46675     46674     46677     46674     46678
     46674     46676     46677     46678     46679     46680     46679     46682
     46679     46683     46679     46681     46682     46683     46684     46685
     46684     46687     46684     46688     46684     46686     46687     46688
     46689     46690     46689     46692     46689     46693     46689     46691
     46692     46693     46694     46695     46694     46697     46694     46698
     46694     46696     46697     46698     46699     46700     46699     46702
     46699     46703     46699     46701     46702     46703     46704     46705
     46704     46707     46704     46708     46704     46706     46707     46708
     46709     46710     46709     46712     46709     46713     46709     46711
     46712     46713     46714     46715     46714     46717     46714     46718
     46714     46716     46717     46718     46719     46720     46719     46722
     46719     46723     46719     46721     46722     46723     46724     46725
     46724     46727     46724     46728     46724     46726     46727     46728
     46729     46730     46729     46732     46729     46733     46729     46731
     46732     46733     46734     46735     46734     46737     46734     46738
     46734     46736     46737     46738     46739     46740     46739     46742
     46739     46743     46739     46741     46742     46743     46744     46745
     46744     46747     46744     46748     46744     46746     46747     46748
     46749     46750     46749     46752     46749     46753     46749     46751
     46752     46753     46754     46755     46754     46757     46754     46758
     46754     46756     46757     46758     46759     46760     46759     46762
     46759     46763     46759     46761     46762     46763     46764     46765
     46764     46767     46764     46768     46764     46766     46767     46768
     46769     46770     46769     46772     46769     46773     46769     46771
     46772     46773     46774     46775     46774     46777     46774     46778
     46774     46776     46777     46778     46779     46780     46779     46782
     46779     46783     46779     46781     46782     46783     46784     46785
     46784     46787     46784     46788     46784     46786     46787     46788
     46789     46790     46789     46792     46789     46793     46789     46791
     46792     46793     46794     46795     46794     46797     46794     46798
     46794     46796     46797     46798     46799     46800     46799     46802
     46799     46803     46799     46801     46802     46803     46804     46805
     46804     46807     46804     46808     46804     46806     46807     46808
     46809     46810     46809     46812     46809     46813     46809     46811
     46812     46813     46814     46815     46814     46817     46814     46818
     46814     46816     46817     46818     46819     46820     46819     46822
     46819     46823     46819     46821     46822     46823     46824     46825
     46824     46827     46824     46828     46824     46826     46827     46828
     46829     46830     46829     46832     46829     46833     46829     46831
     46832     46833     46834     46835     46834     46837     46834     46838
     46834     46836     46837     46838     46839     46840     46839     46842
     46839     46843     46839     46841     46842     46843     46844     46845
     46844     46847     46844     46848     46844     46846     46847     46848
     46849     46850     46849     46852     46849     46853     46849     46851
     46852     46853     46854     46855     46854     46857     46854     46858
     46854     46856     46857     46858     46859     46860     46859     46862
     46859     46863     46859     46861     46862     46863     46864     46865
     46864     46867     46864     46868     46864     46866     46867     46868
     46869     46870     46869     46872     46869     46873     46869     46871
     46872     46873     46874     46875     46874     46877     46874     46878
     46874     46876     46877     46878     46879     46880     46879     46882
     46879     46883     46879     46881     46882     46883     46884     46885
     46884     46887     46884     46888     46884     46886     46887     46888
     46889     46890     46889     46892     46889     46893     46889     46891
     46892     46893     46894     46895     46894     46897     46894     46898
     46894     46896     46897     46898     46899     46900     46899     46902
     46899     46903     46899     46901     46902     46903     46904     46905
     46904     46907     46904     46908     46904     46906     46907     46908
     46909     46910     46909     46912     46909     46913     46909     46911
     46912     46913     46914     46915     46914     46917     46914     46918
     46914     46916     46917     46918     46919     46920     46919     46922
     46919     46923     46919     46921     46922     46923     46924     46925
     46924     46927     46924     46928     46924     46926     46927     46928
     46929     46930     46929     46932     46929     46933     46929     46931
     46932     46933     46934     46935     46934     46937     46934     46938
     46934     46936     46937     46938     46939     46940     46939     46942
     46939     46943     46939     46941     46942     46943     46944     46945
     46944     46947     46944     46948     46944     46946     46947     46948
     46949     46950     46949     46952     46949     46953     46949     46951
     46952     46953     46954     46955     46954     46957     46954     46958
     46954     46956     46957     46958     46959     46960     46959     46962
     46959     46963     46959     46961     46962     46963     46964     46965
     46964     46967     46964     46968     46964     46966     46967     46968
     46969     46970     46969     46972     46969     46973     46969     46971
     46972     46973     46974     46975     46974     46977     46974     46978
     46974     46976     46977     46978     46979     46980     46979     46982
     46979     46983     46979     46981     46982     46983     46984     46985
     46984     46987     46984     46988     46984     46986     46987     46988
     46989     46990     46989     46992     46989     46993     46989     46991
     46992     46993     46994     46995     46994     46997     46994     46998
     46994     46996     46997     46998     46999     47000     46999     47002
     46999     47003     46999     47001     47002     47003     47004     47005
     47004     47007     47004     47008     47004     47006     47007     47008
     47009     47010     47009     47012     47009     47013     47009     47011
     47012     47013     47014     47015     47014     47017     47014     47018
     47014     47016     47017     47018     47019     47020     47019     47022
     47019     47023     47019     47021     47022     47023     47024     47025
     47024     47027     47024     47028     47024     47026     47027     47028
     47029     47030     47029     47032     47029     47033     47029     47031
     47032     47033     47034     47035     47034     47037     47034     47038
     47034     47036     47037     47038     47039     47040     47039     47042
     47039     47043     47039     47041     47042     47043     47044     47045
     47044     47047     47044     47048     47044     47046     47047     47048
     47049     47050     47049     47052     47049     47053     47049     47051
     47052     47053     47054     47055     47054     47057     47054     47058
     47054     47056     47057     47058     47059     47060     47059     47062
     47059     47063     47059     47061     47062     47063     47064     47065
     47064     47067     47064     47068     47064     47066     47067     47068
     47069     47070     47069     47072     47069     47073     47069     47071
     47072     47073     47074     47075     47074     47077     47074     47078
     47074     47076     47077     47078     47079     47080     47079     47082
     47079     47083     47079     47081     47082     47083     47084     47085
     47084     47087     47084     47088     47084     47086     47087     47088
     47089     47090     47089     47092     47089     47093     47089     47091
     47092     47093     47094     47095     47094     47097     47094     47098
     47094     47096     47097     47098     47099     47100     47099     47102
     47099     47103     47099     47101     47102     47103     47104     47105
     47104     47107     47104     47108     47104     47106     47107     47108
     47109     47110     47109     47112     47109     47113     47109     47111
     47112     47113     47114     47115     47114     47117     47114     47118
     47114     47116     47117     47118     47119     47120     47119     47122
     47119     47123     47119     47121     47122     47123     47124     47125
     47124     47127     47124     47128     47124     47126     47127     47128
     47129     47130     47129     47132     47129     47133     47129     47131
     47132     47133     47134     47135     47134     47137     47134     47138
     47134     47136     47137     47138     47139     47140     47139     47142
     47139     47143     47139     47141     47142     47143     47144     47145
     47144     47147     47144     47148     47144     47146     47147     47148
     47149     47150     47149     47152     47149     47153     47149     47151
     47152     47153     47154     47155     47154     47157     47154     47158
     47154     47156     47157     47158     47159     47160     47159     47162
     47159     47163     47159     47161     47162     47163     47164     47165
     47164     47167     47164     47168     47164     47166     47167     47168
     47169     47170     47169     47172     47169     47173     47169     47171
     47172     47173     47174     47175     47174     47177     47174     47178
     47174     47176     47177     47178     47179     47180     47179     47182
     47179     47183     47179     47181     47182     47183     47184     47185
     47184     47187     47184     47188     47184     47186     47187     47188
     47189     47190     47189     47192     47189     47193     47189     47191
     47192     47193     47194     47195     47194     47197     47194     47198
     47194     47196     47197     47198     47199     47200     47199     47202
     47199     47203     47199     47201     47202     47203     47204     47205
     47204     47207     47204     47208     47204     47206     47207     47208
     47209     47210     47209     47212     47209     47213     47209     47211
     47212     47213     47214     47215     47214     47217     47214     47218
     47214     47216     47217     47218     47219     47220     47219     47222
     47219     47223     47219     47221     47222     47223     47224     47225
     47224     47227     47224     47228     47224     47226     47227     47228
     47229     47230     47229     47232     47229     47233     47229     47231
     47232     47233     47234     47235     47234     47237     47234     47238
     47234     47236     47237     47238     47239     47240     47239     47242
     47239     47243     47239     47241     47242     47243     47244     47245
     47244     47247     47244     47248     47244     47246     47247     47248
     47249     47250     47249     47252     47249     47253     47249     47251
     47252     47253     47254     47255     47254     47257     47254     47258
     47254     47256     47257     47258     47259     47260     47259     47262
     47259     47263     47259     47261     47262     47263     47264     47265
     47264     47267     47264     47268     47264     47266     47267     47268
     47269     47270     47269     47272     47269     47273     47269     47271
     47272     47273     47274     47275     47274     47277     47274     47278
     47274     47276     47277     47278     47279     47280     47279     47282
     47279     47283     47279     47281     47282     47283     47284     47285
     47284     47287     47284     47288     47284     47286     47287     47288
     47289     47290     47289     47292     47289     47293     47289     47291
     47292     47293     47294     47295     47294     47297     47294     47298
     47294     47296     47297     47298     47299     47300     47299     47302
     47299     47303     47299     47301     47302     47303     47304     47305
     47304     47307     47304     47308     47304     47306     47307     47308
     47309     47310     47309     47312     47309     47313     47309     47311
     47312     47313     47314     47315     47314     47317     47314     47318
     47314     47316     47317     47318     47319     47320     47319     47322
     47319     47323     47319     47321     47322     47323     47324     47325
     47324     47327     47324     47328     47324     47326     47327     47328
     47329     47330     47329     47332     47329     47333     47329     47331
     47332     47333     47334     47335     47334     47337     47334     47338
     47334     47336     47337     47338     47339     47340     47339     47342
     47339     47343     47339     47341     47342     47343     47344     47345
     47344     47347     47344     47348     47344     47346     47347     47348
     47349     47350     47349     47352     47349     47353     47349     47351
     47352     47353     47354     47355     47354     47357     47354     47358
     47354     47356     47357     47358     47359     47360     47359     47362
     47359     47363     47359     47361     47362     47363     47364     47365
     47364     47367     47364     47368     47364     47366     47367     47368
     47369     47370     47369     47372     47369     47373     47369     47371
     47372     47373     47374     47375     47374     47377     47374     47378
     47374     47376     47377     47378     47379     47380     47379     47382
     47379     47383     47379     47381     47382     47383     47384     47385
     47384     47387     47384     47388     47384     47386     47387     47388
     47389     47390     47389     47392     47389     47393     47389     47391
     47392     47393     47394     47395     47394     47397     47394     47398
     47394     47396     47397     47398     47399     47400     47399     47402
     47399     47403     47399     47401     47402     47403     47404     47405
     47404     47407     47404     47408     47404     47406     47407     47408
     47409     47410     47409     47412     47409     47413     47409     47411
     47412     47413     47414     47415     47414     47417     47414     47418
     47414     47416     47417     47418     47419     47420     47419     47422
     47419     47423     47419     47421     47422     47423     47424     47425
     47424     47427     47424     47428     47424     47426     47427     47428
     47429     47430     47429     47432     47429     47433     47429     47431
     47432     47433     47434     47435     47434     47437     47434     47438
     47434     47436     47437     47438     47439     47440     47439     47442
     47439     47443     47439     47441     47442     47443     47444     47445
     47444     47447     47444     47448     47444     47446     47447     47448
     47449     47450     47449     47452     47449     47453     47449     47451
     47452     47453     47454     47455     47454     47457     47454     47458
     47454     47456     47457     47458     47459     47460     47459     47462
     47459     47463     47459     47461     47462     47463     47464     47465
     47464     47467     47464     47468     47464     47466     47467     47468
     47469     47470     47469     47472     47469     47473     47469     47471
     47472     47473     47474     47475     47474     47477     47474     47478
     47474     47476     47477     47478     47479     47480     47479     47482
     47479     47483     47479     47481     47482     47483     47484     47485
     47484     47487     47484     47488     47484     47486     47487     47488
     47489     47490     47489     47492     47489     47493     47489     47491
     47492     47493     47494     47495     47494     47497     47494     47498
     47494     47496     47497     47498     47499     47500     47499     47502
     47499     47503     47499     47501     47502     47503     47504     47505
     47504     47507     47504     47508     47504     47506     47507     47508
     47509     47510     47509     47512     47509     47513     47509     47511
     47512     47513     47514     47515     47514     47517     47514     47518
     47514     47516     47517     47518     47519     47520     47519     47522
     47519     47523     47519     47521     47522     47523     47524     47525
     47524     47527     47524     47528     47524     47526     47527     47528
     47529     47530     47529     47532     47529     47533     47529     47531
     47532     47533     47534     47535     47534     47537     47534     47538
     47534     47536     47537     47538     47539     47540     47539     47542
     47539     47543     47539     47541     47542     47543     47544     47545
     47544     47547     47544     47548     47544     47546     47547     47548
     47549     47550     47549     47552     47549     47553     47549     47551
     47552     47553     47554     47555     47554     47557     47554     47558
     47554     47556     47557     47558     47559     47560     47559     47562
     47559     47563     47559     47561     47562     47563     47564     47565
     47564     47567     47564     47568     47564     47566     47567     47568
     47569     47570     47569     47572     47569     47573     47569     47571
     47572     47573     47574     47575     47574     47577     47574     47578
     47574     47576     47577     47578     47579     47580     47579     47582
     47579     47583     47579     47581     47582     47583     47584     47585
     47584     47587     47584     47588     47584     47586     47587     47588
     47589     47590     47589     47592     47589     47593     47589     47591
     47592     47593     47594     47595     47594     47597     47594     47598
     47594     47596     47597     47598     47599     47600     47599     47602
     47599     47603     47599     47601     47602     47603     47604     47605
     47604     47607     47604     47608     47604     47606     47607     47608
     47609     47610     47609     47612     47609     47613     47609     47611
     47612     47613     47614     47615     47614     47617     47614     47618
     47614     47616     47617     47618     47619     47620     47619     47622
     47619     47623     47619     47621     47622     47623     47624     47625
     47624     47627     47624     47628     47624     47626     47627     47628
     47629     47630     47629     47632     47629     47633     47629     47631
     47632     47633     47634     47635     47634     47637     47634     47638
     47634     47636     47637     47638     47639     47640     47639     47642
     47639     47643     47639     47641     47642     47643     47644     47645
     47644     47647     47644     47648     47644     47646     47647     47648
     47649     47650     47649     47652     47649     47653     47649     47651
     47652     47653     47654     47655     47654     47657     47654     47658
     47654     47656     47657     47658     47659     47660     47659     47662
     47659     47663     47659     47661     47662     47663     47664     47665
     47664     47667     47664     47668     47664     47666     47667     47668
     47669     47670     47669     47672     47669     47673     47669     47671
     47672     47673     47674     47675     47674     47677     47674     47678
     47674     47676     47677     47678     47679     47680     47679     47682
     47679     47683     47679     47681     47682     47683     47684     47685
     47684     47687     47684     47688     47684     47686     47687     47688
     47689     47690     47689     47692     47689     47693     47689     47691
     47692     47693     47694     47695     47694     47697     47694     47698
     47694     47696     47697     47698     47699     47700     47699     47702
     47699     47703     47699     47701     47702     47703     47704     47705
     47704     47707     47704     47708     47704     47706     47707     47708
     47709     47710     47709     47712     47709     47713     47709     47711
     47712     47713     47714     47715     47714     47717     47714     47718
     47714     47716     47717     47718     47719     47720     47719     47722
     47719     47723     47719     47721     47722     47723     47724     47725
     47724     47727     47724     47728     47724     47726     47727     47728
     47729     47730     47729     47732     47729     47733     47729     47731
     47732     47733     47734     47735     47734     47737     47734     47738
     47734     47736     47737     47738     47739     47740     47739     47742
     47739     47743     47739     47741     47742     47743     47744     47745
     47744     47747     47744     47748     47744     47746     47747     47748
     47749     47750     47749     47752     47749     47753     47749     47751
     47752     47753     47754     47755     47754     47757     47754     47758
     47754     47756     47757     47758     47759     47760     47759     47762
     47759     47763     47759     47761     47762     47763     47764     47765
     47764     47767     47764     47768     47764     47766     47767     47768
     47769     47770     47769     47772     47769     47773     47769     47771
     47772     47773     47774     47775     47774     47777     47774     47778
     47774     47776     47777     47778     47779     47780     47779     47782
     47779     47783     47779     47781     47782     47783     47784     47785
     47784     47787     47784     47788     47784     47786     47787     47788
     47789     47790     47789     47792     47789     47793     47789     47791
     47792     47793     47794     47795     47794     47797     47794     47798
     47794     47796     47797     47798     47799     47800     47799     47802
     47799     47803     47799     47801     47802     47803     47804     47805
     47804     47807     47804     47808     47804     47806     47807     47808
     47809     47810     47809     47812     47809     47813     47809     47811
     47812     47813     47814     47815     47814     47817     47814     47818
     47814     47816     47817     47818     47819     47820     47819     47822
     47819     47823     47819     47821     47822     47823     47824     47825
     47824     47827     47824     47828     47824     47826     47827     47828
     47829     47830     47829     47832     47829     47833     47829     47831
     47832     47833     47834     47835     47834     47837     47834     47838
     47834     47836     47837     47838     47839     47840     47839     47842
     47839     47843     47839     47841     47842     47843     47844     47845
     47844     47847     47844     47848     47844     47846     47847     47848
     47849     47850     47849     47852     47849     47853     47849     47851
     47852     47853     47854     47855     47854     47857     47854     47858
     47854     47856     47857     47858     47859     47860     47859     47862
     47859     47863     47859     47861     47862     47863     47864     47865
     47864     47867     47864     47868     47864     47866     47867     47868
     47869     47870     47869     47872     47869     47873     47869     47871
     47872     47873     47874     47875     47874     47877     47874     47878
     47874     47876     47877     47878     47879     47880     47879     47882
     47879     47883     47879     47881     47882     47883     47884     47885
     47884     47887     47884     47888     47884     47886     47887     47888
     47889     47890     47889     47892     47889     47893     47889     47891
     47892     47893     47894     47895     47894     47897     47894     47898
     47894     47896     47897     47898     47899     47900     47899     47902
     47899     47903     47899     47901     47902     47903     47904     47905
     47904     47907     47904     47908     47904     47906     47907     47908
     47909     47910     47909     47912     47909     47913     47909     47911
     47912     47913     47914     47915     47914     47917     47914     47918
     47914     47916     47917     47918     47919     47920     47919     47922
     47919     47923     47919     47921     47922     47923     47924     47925
     47924     47927     47924     47928     47924     47926     47927     47928
     47929     47930     47929     47932     47929     47933     47929     47931
     47932     47933     47934     47935     47934     47937     47934     47938
     47934     47936     47937     47938     47939     47940     47939     47942
     47939     47943     47939     47941     47942     47943     47944     47945
     47944     47947     47944     47948     47944     47946     47947     47948
     47949     47950     47949     47952     47949     47953     47949     47951
     47952     47953     47954     47955     47954     47957     47954     47958
     47954     47956     47957     47958     47959     47960     47959     47962
     47959     47963     47959     47961     47962     47963     47964     47965
     47964     47967     47964     47968     47964     47966     47967     47968
     47969     47970     47969     47972     47969     47973     47969     47971
     47972     47973     47974     47975     47974     47977     47974     47978
     47974     47976     47977     47978     47979     47980     47979     47982
     47979     47983     47979     47981     47982     47983     47984     47985
     47984     47987     47984     47988     47984     47986     47987     47988
     47989     47990     47989     47992     47989     47993     47989     47991
     47992     47993     47994     47995     47994     47997     47994     47998
     47994     47996     47997     47998     47999     48000     47999     48002
     47999     48003     47999     48001     48002     48003     48004     48005
     48004     48007     48004     48008     48004     48006     48007     48008
     48009     48010     48009     48012     48009     48013     48009     48011
     48012     48013     48014     48015     48014     48017     48014     48018
     48014     48016     48017     48018     48019     48020     48019     48022
     48019     48023     48019     48021     48022     48023     48024     48025
     48024     48027     48024     48028     48024     48026     48027     48028
     48029     48030     48029     48032     48029     48033     48029     48031
     48032     48033     48034     48035     48034     48037     48034     48038
     48034     48036     48037     48038     48039     48040     48039     48042
     48039     48043     48039     48041     48042     48043     48044     48045
     48044     48047     48044     48048     48044     48046     48047     48048
     48049     48050     48049     48052     48049     48053     48049     48051
     48052     48053     48054     48055     48054     48057     48054     48058
     48054     48056     48057     48058     48059     48060     48059     48062
     48059     48063     48059     48061     48062     48063     48064     48065
     48064     48067     48064     48068     48064     48066     48067     48068
     48069     48070     48069     48072     48069     48073     48069     48071
     48072     48073     48074     48075     48074     48077     48074     48078
     48074     48076     48077     48078     48079     48080     48079     48082
     48079     48083     48079     48081     48082     48083     48084     48085
     48084     48087     48084     48088     48084     48086     48087     48088
     48089     48090     48089     48092     48089     48093     48089     48091
     48092     48093     48094     48095     48094     48097     48094     48098
     48094     48096     48097     48098     48099     48100     48099     48102
     48099     48103     48099     48101     48102     48103     48104     48105
     48104     48107     48104     48108     48104     48106     48107     48108
     48109     48110     48109     48112     48109     48113     48109     48111
     48112     48113     48114     48115     48114     48117     48114     48118
     48114     48116     48117     48118     48119     48120     48119     48122
     48119     48123     48119     48121     48122     48123     48124     48125
     48124     48127     48124     48128     48124     48126     48127     48128
     48129     48130     48129     48132     48129     48133     48129     48131
     48132     48133     48134     48135     48134     48137     48134     48138
     48134     48136     48137     48138     48139     48140     48139     48142
     48139     48143     48139     48141     48142     48143     48144     48145
     48144     48147     48144     48148     48144     48146     48147     48148
     48149     48150     48149     48152     48149     48153     48149     48151
     48152     48153     48154     48155     48154     48157     48154     48158
     48154     48156     48157     48158     48159     48160     48159     48162
     48159     48163     48159     48161     48162     48163     48164     48165
     48164     48167     48164     48168     48164     48166     48167     48168
     48169     48170     48169     48172     48169     48173     48169     48171
     48172     48173     48174     48175     48174     48177     48174     48178
     48174     48176     48177     48178     48179     48180     48179     48182
     48179     48183     48179     48181     48182     48183     48184     48185
     48184     48187     48184     48188     48184     48186     48187     48188
     48189     48190     48189     48192     48189     48193     48189     48191
     48192     48193     48194     48195     48194     48197     48194     48198
     48194     48196     48197     48198     48199     48200     48199     48202
     48199     48203     48199     48201     48202     48203     48204     48205
     48204     48207     48204     48208     48204     48206     48207     48208
     48209     48210     48209     48212     48209     48213     48209     48211
     48212     48213     48214     48215     48214     48217     48214     48218
     48214     48216     48217     48218     48219     48220     48219     48222
     48219     48223     48219     48221     48222     48223     48224     48225
     48224     48227     48224     48228     48224     48226     48227     48228
     48229     48230     48229     48232     48229     48233     48229     48231
     48232     48233     48234     48235     48234     48237     48234     48238
     48234     48236     48237     48238     48239     48240     48239     48242
     48239     48243     48239     48241     48242     48243     48244     48245
     48244     48247     48244     48248     48244     48246     48247     48248
     48249     48250     48249     48252     48249     48253     48249     48251
     48252     48253     48254     48255     48254     48257     48254     48258
     48254     48256     48257     48258     48259     48260     48259     48262
     48259     48263     48259     48261     48262     48263     48264     48265
     48264     48267     48264     48268     48264     48266     48267     48268
     48269     48270     48269     48272     48269     48273     48269     48271
     48272     48273     48274     48275     48274     48277     48274     48278
     48274     48276     48277     48278     48279     48280     48279     48282
     48279     48283     48279     48281     48282     48283     48284     48285
     48284     48287     48284     48288     48284     48286     48287     48288
     48289     48290     48289     48292     48289     48293     48289     48291
     48292     48293     48294     48295     48294     48297     48294     48298
     48294     48296     48297     48298     48299     48300     48299     48302
     48299     48303     48299     48301     48302     48303     48304     48305
     48304     48307     48304     48308     48304     48306     48307     48308
     48309     48310     48309     48312     48309     48313     48309     48311
     48312     48313     48314     48315     48314     48317     48314     48318
     48314     48316     48317     48318     48319     48320     48319     48322
     48319     48323     48319     48321     48322     48323     48324     48325
     48324     48327     48324     48328     48324     48326     48327     48328
     48329     48330     48329     48332     48329     48333     48329     48331
     48332     48333     48334     48335     48334     48337     48334     48338
     48334     48336     48337     48338     48339     48340     48339     48342
     48339     48343     48339     48341     48342     48343     48344     48345
     48344     48347     48344     48348     48344     48346     48347     48348
     48349     48350     48349     48352     48349     48353     48349     48351
     48352     48353     48354     48355     48354     48357     48354     48358
     48354     48356     48357     48358     48359     48360     48359     48362
     48359     48363     48359     48361     48362     48363     48364     48365
     48364     48367     48364     48368     48364     48366     48367     48368
     48369     48370     48369     48372     48369     48373     48369     48371
     48372     48373     48374     48375     48374     48377     48374     48378
     48374     48376     48377     48378     48379     48380     48379     48382
     48379     48383     48379     48381     48382     48383     48384     48385
     48384     48387     48384     48388     48384     48386     48387     48388
     48389     48390     48389     48392     48389     48393     48389     48391
     48392     48393     48394     48395     48394     48397     48394     48398
     48394     48396     48397     48398     48399     48400     48399     48402
     48399     48403     48399     48401     48402     48403     48404     48405
     48404     48407     48404     48408     48404     48406     48407     48408
     48409     48410     48409     48412     48409     48413     48409     48411
     48412     48413     48414     48415     48414     48417     48414     48418
     48414     48416     48417     48418     48419     48420     48419     48422
     48419     48423     48419     48421     48422     48423     48424     48425
     48424     48427     48424     48428     48424     48426     48427     48428
     48429     48430     48429     48432     48429     48433     48429     48431
     48432     48433     48434     48435     48434     48437     48434     48438
     48434     48436     48437     48438     48439     48440     48439     48442
     48439     48443     48439     48441     48442     48443     48444     48445
     48444     48447     48444     48448     48444     48446     48447     48448
     48449     48450     48449     48452     48449     48453     48449     48451
     48452     48453     48454     48455     48454     48457     48454     48458
     48454     48456     48457     48458     48459     48460     48459     48462
     48459     48463     48459     48461     48462     48463     48464     48465
     48464     48467     48464     48468     48464     48466     48467     48468
     48469     48470     48469     48472     48469     48473     48469     48471
     48472     48473     48474     48475     48474     48477     48474     48478
     48474     48476     48477     48478     48479     48480     48479     48482
     48479     48483     48479     48481     48482     48483     48484     48485
     48484     48487     48484     48488     48484     48486     48487     48488
     48489     48490     48489     48492     48489     48493     48489     48491
     48492     48493     48494     48495     48494     48497     48494     48498
     48494     48496     48497     48498     48499     48500     48499     48502
     48499     48503     48499     48501     48502     48503     48504     48505
     48504     48507     48504     48508     48504     48506     48507     48508
     48509     48510     48509     48512     48509     48513     48509     48511
     48512     48513     48514     48515     48514     48517     48514     48518
     48514     48516     48517     48518     48519     48520     48519     48522
     48519     48523     48519     48521     48522     48523     48524     48525
     48524     48527     48524     48528     48524     48526     48527     48528
     48529     48530     48529     48532     48529     48533     48529     48531
     48532     48533     48534     48535     48534     48537     48534     48538
     48534     48536     48537     48538     48539     48540     48539     48542
     48539     48543     48539     48541     48542     48543     48544     48545
     48544     48547     48544     48548     48544     48546     48547     48548
     48549     48550     48549     48552     48549     48553     48549     48551
     48552     48553     48554     48555     48554     48557     48554     48558
     48554     48556     48557     48558     48559     48560     48559     48562
     48559     48563     48559     48561     48562     48563     48564     48565
     48564     48567     48564     48568     48564     48566     48567     48568
     48569     48570     48569     48572     48569     48573     48569     48571
     48572     48573     48574     48575     48574     48577     48574     48578
     48574     48576     48577     48578     48579     48580     48579     48582
     48579     48583     48579     48581     48582     48583     48584     48585
     48584     48587     48584     48588     48584     48586     48587     48588
     48589     48590     48589     48592     48589     48593     48589     48591
     48592     48593     48594     48595     48594     48597     48594     48598
     48594     48596     48597     48598     48599     48600     48599     48602
     48599     48603     48599     48601     48602     48603     48604     48605
     48604     48607     48604     48608     48604     48606     48607     48608
     48609     48610     48609     48612     48609     48613     48609     48611
     48612     48613     48614     48615     48614     48617     48614     48618
     48614     48616     48617     48618     48619     48620     48619     48622
     48619     48623     48619     48621     48622     48623     48624     48625
     48624     48627     48624     48628     48624     48626     48627     48628
     48629     48630     48629     48632     48629     48633     48629     48631
     48632     48633     48634     48635     48634     48637     48634     48638
     48634     48636     48637     48638     48639     48640     48639     48642
     48639     48643     48639     48641     48642     48643     48644     48645
     48644     48647     48644     48648     48644     48646     48647     48648
     48649     48650     48649     48652     48649     48653     48649     48651
     48652     48653     48654     48655     48654     48657     48654     48658
     48654     48656     48657     48658     48659     48660     48659     48662
     48659     48663     48659     48661     48662     48663     48664     48665
     48664     48667     48664     48668     48664     48666     48667     48668
     48669     48670     48669     48672     48669     48673     48669     48671
     48672     48673     48674     48675     48674     48677     48674     48678
     48674     48676     48677     48678     48679     48680     48679     48682
     48679     48683     48679     48681     48682     48683     48684     48685
     48684     48687     48684     48688     48684     48686     48687     48688
     48689     48690     48689     48692     48689     48693     48689     48691
     48692     48693     48694     48695     48694     48697     48694     48698
     48694     48696     48697     48698     48699     48700     48699     48702
     48699     48703     48699     48701     48702     48703     48704     48705
     48704     48707     48704     48708     48704     48706     48707     48708
     48709     48710     48709     48712     48709     48713     48709     48711
     48712     48713     48714     48715     48714     48717     48714     48718
     48714     48716     48717     48718     48719     48720     48719     48722
     48719     48723     48719     48721     48722     48723     48724     48725
     48724     48727     48724     48728     48724     48726     48727     48728
     48729     48730     48729     48732     48729     48733     48729     48731
     48732     48733     48734     48735     48734     48737     48734     48738
     48734     48736     48737     48738     48739     48740     48739     48742
     48739     48743     48739     48741     48742     48743     48744     48745
     48744     48747     48744     48748     48744     48746     48747     48748
     48749     48750     48749     48752     48749     48753     48749     48751
     48752     48753     48754     48755     48754     48757     48754     48758
     48754     48756     48757     48758     48759     48760     48759     48762
     48759     48763     48759     48761     48762     48763     48764     48765
     48764     48767     48764     48768     48764     48766     48767     48768
     48769     48770     48769     48772     48769     48773     48769     48771
     48772     48773     48774     48775     48774     48777     48774     48778
     48774     48776     48777     48778     48779     48780     48779     48782
     48779     48783     48779     48781     48782     48783     48784     48785
     48784     48787     48784     48788     48784     48786     48787     48788
     48789     48790     48789     48792     48789     48793     48789     48791
     48792     48793     48794     48795     48794     48797     48794     48798
     48794     48796     48797     48798     48799     48800     48799     48802
     48799     48803     48799     48801     48802     48803     48804     48805
     48804     48807     48804     48808     48804     48806     48807     48808
     48809     48810     48809     48812     48809     48813     48809     48811
     48812     48813     48814     48815     48814     48817     48814     48818
     48814     48816     48817     48818     48819     48820     48819     48822
     48819     48823     48819     48821     48822     48823     48824     48825
     48824     48827     48824     48828     48824     48826     48827     48828
     48829     48830     48829     48832     48829     48833     48829     48831
     48832     48833     48834     48835     48834     48837     48834     48838
     48834     48836     48837     48838     48839     48840     48839     48842
     48839     48843     48839     48841     48842     48843     48844     48845
     48844     48847     48844     48848     48844     48846     48847     48848
     48849     48850     48849     48852     48849     48853     48849     48851
     48852     48853     48854     48855     48854     48857     48854     48858
     48854     48856     48857     48858     48859     48860     48859     48862
     48859     48863     48859     48861     48862     48863     48864     48865
     48864     48867     48864     48868     48864     48866     48867     48868
     48869     48870     48869     48872     48869     48873     48869     48871
     48872     48873     48874     48875     48874     48877     48874     48878
     48874     48876     48877     48878     48879     48880     48879     48882
     48879     48883     48879     48881     48882     48883     48884     48885
     48884     48887     48884     48888     48884     48886     48887     48888
     48889     48890     48889     48892     48889     48893     48889     48891
     48892     48893     48894     48895     48894     48897     48894     48898
     48894     48896     48897     48898     48899     48900     48899     48902
     48899     48903     48899     48901     48902     48903     48904     48905
     48904     48907     48904     48908     48904     48906     48907     48908
     48909     48910     48909     48912     48909     48913     48909     48911
     48912     48913     48914     48915     48914     48917     48914     48918
     48914     48916     48917     48918     48919     48920     48919     48922
     48919     48923     48919     48921     48922     48923     48924     48925
     48924     48927     48924     48928     48924     48926     48927     48928
     48929     48930     48929     48932     48929     48933     48929     48931
     48932     48933     48934     48935     48934     48937     48934     48938
     48934     48936     48937     48938     48939     48940     48939     48942
     48939     48943     48939     48941     48942     48943     48944     48945
     48944     48947     48944     48948     48944     48946     48947     48948
     48949     48950     48949     48952     48949     48953     48949     48951
     48952     48953     48954     48955     48954     48957     48954     48958
     48954     48956     48957     48958     48959     48960     48959     48962
     48959     48963     48959     48961     48962     48963     48964     48965
     48964     48967     48964     48968     48964     48966     48967     48968
     48969     48970     48969     48972     48969     48973     48969     48971
     48972     48973     48974     48975     48974     48977     48974     48978
     48974     48976     48977     48978     48979     48980     48979     48982
     48979     48983     48979     48981     48982     48983     48984     48985
     48984     48987     48984     48988     48984     48986     48987     48988
     48989     48990     48989     48992     48989     48993     48989     48991
     48992     48993     48994     48995     48994     48997     48994     48998
     48994     48996     48997     48998     48999     49000     48999     49002
     48999     49003     48999     49001     49002     49003     49004     49005
     49004     49007     49004     49008     49004     49006     49007     49008
     49009     49010     49009     49012     49009     49013     49009     49011
     49012     49013     49014     49015     49014     49017     49014     49018
     49014     49016     49017     49018     49019     49020     49019     49022
     49019     49023     49019     49021     49022     49023     49024     49025
     49024     49027     49024     49028     49024     49026     49027     49028
     49029     49030     49029     49032     49029     49033     49029     49031
     49032     49033     49034     49035     49034     49037     49034     49038
     49034     49036     49037     49038     49039     49040     49039     49042
     49039     49043     49039     49041     49042     49043     49044     49045
     49044     49047     49044     49048     49044     49046     49047     49048
     49049     49050     49049     49052     49049     49053     49049     49051
     49052     49053     49054     49055     49054     49057     49054     49058
     49054     49056     49057     49058     49059     49060     49059     49062
     49059     49063     49059     49061     49062     49063     49064     49065
     49064     49067     49064     49068     49064     49066     49067     49068
     49069     49070     49069     49072     49069     49073     49069     49071
     49072     49073     49074     49075     49074     49077     49074     49078
     49074     49076     49077     49078     49079     49080     49079     49082
     49079     49083     49079     49081     49082     49083     49084     49085
     49084     49087     49084     49088     49084     49086     49087     49088
     49089     49090     49089     49092     49089     49093     49089     49091
     49092     49093     49094     49095     49094     49097     49094     49098
     49094     49096     49097     49098     49099     49100     49099     49102
     49099     49103     49099     49101     49102     49103     49104     49105
     49104     49107     49104     49108     49104     49106     49107     49108
     49109     49110     49109     49112     49109     49113     49109     49111
     49112     49113     49114     49115     49114     49117     49114     49118
     49114     49116     49117     49118     49119     49120     49119     49122
     49119     49123     49119     49121     49122     49123     49124     49125
     49124     49127     49124     49128     49124     49126     49127     49128
     49129     49130     49129     49132     49129     49133     49129     49131
     49132     49133     49134     49135     49134     49137     49134     49138
     49134     49136     49137     49138     49139     49140     49139     49142
     49139     49143     49139     49141     49142     49143     49144     49145
     49144     49147     49144     49148     49144     49146     49147     49148
     49149     49150     49149     49152     49149     49153     49149     49151
     49152     49153     49154     49155     49154     49157     49154     49158
     49154     49156     49157     49158     49159     49160     49159     49162
     49159     49163     49159     49161     49162     49163     49164     49165
     49164     49167     49164     49168     49164     49166     49167     49168
     49169     49170     49169     49172     49169     49173     49169     49171
     49172     49173     49174     49175     49174     49177     49174     49178
     49174     49176     49177     49178     49179     49180     49179     49182
     49179     49183     49179     49181     49182     49183     49184     49185
     49184     49187     49184     49188     49184     49186     49187     49188
     49189     49190     49189     49192     49189     49193     49189     49191
     49192     49193     49194     49195     49194     49197     49194     49198
     49194     49196     49197     49198     49199     49200     49199     49202
     49199     49203     49199     49201     49202     49203     49204     49205
     49204     49207     49204     49208     49204     49206     49207     49208
     49209     49210     49209     49212     49209     49213     49209     49211
     49212     49213     49214     49215     49214     49217     49214     49218
     49214     49216     49217     49218     49219     49220     49219     49222
     49219     49223     49219     49221     49222     49223     49224     49225
     49224     49227     49224     49228     49224     49226     49227     49228
     49229     49230     49229     49232     49229     49233     49229     49231
     49232     49233     49234     49235     49234     49237     49234     49238
     49234     49236     49237     49238     49239     49240     49239     49242
     49239     49243     49239     49241     49242     49243     49244     49245
     49244     49247     49244     49248     49244     49246     49247     49248
     49249     49250     49249     49252     49249     49253     49249     49251
     49252     49253     49254     49255     49254     49257     49254     49258
     49254     49256     49257     49258     49259     49260     49259     49262
     49259     49263     49259     49261     49262     49263     49264     49265
     49264     49267     49264     49268     49264     49266     49267     49268
     49269     49270     49269     49272     49269     49273     49269     49271
     49272     49273     49274     49275     49274     49277     49274     49278
     49274     49276     49277     49278     49279     49280     49279     49282
     49279     49283     49279     49281     49282     49283     49284     49285
     49284     49287     49284     49288     49284     49286     49287     49288
     49289     49290     49289     49292     49289     49293     49289     49291
     49292     49293     49294     49295     49294     49297     49294     49298
     49294     49296     49297     49298     49299     49300     49299     49302
     49299     49303     49299     49301     49302     49303     49304     49305
     49304     49307     49304     49308     49304     49306     49307     49308
     49309     49310     49309     49312     49309     49313     49309     49311
     49312     49313     49314     49315     49314     49317     49314     49318
     49314     49316     49317     49318     49319     49320     49319     49322
     49319     49323     49319     49321     49322     49323     49324     49325
     49324     49327     49324     49328     49324     49326     49327     49328
     49329     49330     49329     49332     49329     49333     49329     49331
     49332     49333     49334     49335     49334     49337     49334     49338
     49334     49336     49337     49338     49339     49340     49339     49342
     49339     49343     49339     49341     49342     49343     49344     49345
     49344     49347     49344     49348     49344     49346     49347     49348
     49349     49350     49349     49352     49349     49353     49349     49351
     49352     49353     49354     49355     49354     49357     49354     49358
     49354     49356     49357     49358     49359     49360     49359     49362
     49359     49363     49359     49361     49362     49363     49364     49365
     49364     49367     49364     49368     49364     49366     49367     49368
     49369     49370     49369     49372     49369     49373     49369     49371
     49372     49373     49374     49375     49374     49377     49374     49378
     49374     49376     49377     49378     49379     49380     49379     49382
     49379     49383     49379     49381     49382     49383     49384     49385
     49384     49387     49384     49388     49384     49386     49387     49388
     49389     49390     49389     49392     49389     49393     49389     49391
     49392     49393     49394     49395     49394     49397     49394     49398
     49394     49396     49397     49398     49399     49400     49399     49402
     49399     49403     49399     49401     49402     49403     49404     49405
     49404     49407     49404     49408     49404     49406     49407     49408
     49409     49410     49409     49412     49409     49413     49409     49411
     49412     49413     49414     49415     49414     49417     49414     49418
     49414     49416     49417     49418     49419     49420     49419     49422
     49419     49423     49419     49421     49422     49423     49424     49425
     49424     49427     49424     49428     49424     49426     49427     49428
     49429     49430     49429     49432     49429     49433     49429     49431
     49432     49433     49434     49435     49434     49437     49434     49438
     49434     49436     49437     49438     49439     49440     49439     49442
     49439     49443     49439     49441     49442     49443     49444     49445
     49444     49447     49444     49448     49444     49446     49447     49448
     49449     49450     49449     49452     49449     49453     49449     49451
     49452     49453     49454     49455     49454     49457     49454     49458
     49454     49456     49457     49458     49459     49460     49459     49462
     49459     49463     49459     49461     49462     49463     49464     49465
     49464     49467     49464     49468     49464     49466     49467     49468
     49469     49470     49469     49472     49469     49473     49469     49471
     49472     49473     49474     49475     49474     49477     49474     49478
     49474     49476     49477     49478     49479     49480     49479     49482
     49479     49483     49479     49481     49482     49483     49484     49485
     49484     49487     49484     49488     49484     49486     49487     49488
     49489     49490     49489     49492     49489     49493     49489     49491
     49492     49493     49494     49495     49494     49497     49494     49498
     49494     49496     49497     49498     49499     49500     49499     49502
     49499     49503     49499     49501     49502     49503     49504     49505
     49504     49507     49504     49508     49504     49506     49507     49508
     49509     49510     49509     49512     49509     49513     49509     49511
     49512     49513     49514     49515     49514     49517     49514     49518
     49514     49516     49517     49518     49519     49520     49519     49522
     49519     49523     49519     49521     49522     49523     49524     49525
     49524     49527     49524     49528     49524     49526     49527     49528
     49529     49530     49529     49532     49529     49533     49529     49531
     49532     49533     49534     49535     49534     49537     49534     49538
     49534     49536     49537     49538     49539     49540     49539     49542
     49539     49543     49539     49541     49542     49543     49544     49545
     49544     49547     49544     49548     49544     49546     49547     49548
     49549     49550     49549     49552     49549     49553     49549     49551
     49552     49553     49554     49555     49554     49557     49554     49558
     49554     49556     49557     49558     49559     49560     49559     49562
     49559     49563     49559     49561     49562     49563     49564     49565
     49564     49567     49564     49568     49564     49566     49567     49568
     49569     49570     49569     49572     49569     49573     49569     49571
     49572     49573     49574     49575     49574     49577     49574     49578
     49574     49576     49577     49578     49579     49580     49579     49582
     49579     49583     49579     49581     49582     49583     49584     49585
     49584     49587     49584     49588     49584     49586     49587     49588
     49589     49590     49589     49592     49589     49593     49589     49591
     49592     49593     49594     49595     49594     49597     49594     49598
     49594     49596     49597     49598     49599     49600     49599     49602
     49599     49603     49599     49601     49602     49603     49604     49605
     49604     49607     49604     49608     49604     49606     49607     49608
     49609     49610     49609     49612     49609     49613     49609     49611
     49612     49613     49614     49615     49614     49617     49614     49618
     49614     49616     49617     49618     49619     49620     49619     49622
     49619     49623     49619     49621     49622     49623     49624     49625
     49624     49627     49624     49628     49624     49626     49627     49628
     49629     49630     49629     49632     49629     49633     49629     49631
     49632     49633     49634     49635     49634     49637     49634     49638
     49634     49636     49637     49638     49639     49640     49639     49642
     49639     49643     49639     49641     49642     49643     49644     49645
     49644     49647     49644     49648     49644     49646     49647     49648
     49649     49650     49649     49652     49649     49653     49649     49651
     49652     49653     49654     49655     49654     49657     49654     49658
     49654     49656     49657     49658     49659     49660     49659     49662
     49659     49663     49659     49661     49662     49663     49664     49665
     49664     49667     49664     49668     49664     49666     49667     49668
     49669     49670     49669     49672     49669     49673     49669     49671
     49672     49673     49674     49675     49674     49677     49674     49678
     49674     49676     49677     49678     49679     49680     49679     49682
     49679     49683     49679     49681     49682     49683     49684     49685
     49684     49687     49684     49688     49684     49686     49687     49688
     49689     49690     49689     49692     49689     49693     49689     49691
     49692     49693     49694     49695     49694     49697     49694     49698
     49694     49696     49697     49698     49699     49700     49699     49702
     49699     49703     49699     49701     49702     49703     49704     49705
     49704     49707     49704     49708     49704     49706     49707     49708
     49709     49710     49709     49712     49709     49713     49709     49711
     49712     49713     49714     49715     49714     49717     49714     49718
     49714     49716     49717     49718     49719     49720     49719     49722
     49719     49723     49719     49721     49722     49723     49724     49725
     49724     49727     49724     49728     49724     49726     49727     49728
     49729     49730     49729     49732     49729     49733     49729     49731
     49732     49733     49734     49735     49734     49737     49734     49738
     49734     49736     49737     49738     49739     49740     49739     49742
     49739     49743     49739     49741     49742     49743     49744     49745
     49744     49747     49744     49748     49744     49746     49747     49748
     49749     49750     49749     49752     49749     49753     49749     49751
     49752     49753     49754     49755     49754     49757     49754     49758
     49754     49756     49757     49758     49759     49760     49759     49762
     49759     49763     49759     49761     49762     49763     49764     49765
     49764     49767     49764     49768     49764     49766     49767     49768
     49769     49770     49769     49772     49769     49773     49769     49771
     49772     49773     49774     49775     49774     49777     49774     49778
     49774     49776     49777     49778     49779     49780     49779     49782
     49779     49783     49779     49781     49782     49783     49784     49785
     49784     49787     49784     49788     49784     49786     49787     49788
     49789     49790     49789     49792     49789     49793     49789     49791
     49792     49793     49794     49795     49794     49797     49794     49798
     49794     49796     49797     49798     49799     49800     49799     49802
     49799     49803     49799     49801     49802     49803     49804     49805
     49804     49807     49804     49808     49804     49806     49807     49808
     49809     49810     49809     49812     49809     49813     49809     49811
     49812     49813     49814     49815     49814     49817     49814     49818
     49814     49816     49817     49818     49819     49820     49819     49822
     49819     49823     49819     49821     49822     49823     49824     49825
     49824     49827     49824     49828     49824     49826     49827     49828
     49829     49830     49829     49832     49829     49833     49829     49831
     49832     49833     49834     49835     49834     49837     49834     49838
     49834     49836     49837     49838     49839     49840     49839     49842
     49839     49843     49839     49841     49842     49843     49844     49845
     49844     49847     49844     49848     49844     49846     49847     49848
     49849     49850     49849     49852     49849     49853     49849     49851
     49852     49853     49854     49855     49854     49857     49854     49858
     49854     49856     49857     49858     49859     49860     49859     49862
     49859     49863     49859     49861     49862     49863     49864     49865
     49864     49867     49864     49868     49864     49866     49867     49868
     49869     49870     49869     49872     49869     49873     49869     49871
     49872     49873     49874     49875     49874     49877     49874     49878
     49874     49876     49877     49878     49879     49880     49879     49882
     49879     49883     49879     49881     49882     49883     49884     49885
     49884     49887     49884     49888     49884     49886     49887     49888
     49889     49890     49889     49892     49889     49893     49889     49891
     49892     49893     49894     49895     49894     49897     49894     49898
     49894     49896     49897     49898     49899     49900     49899     49902
     49899     49903     49899     49901     49902     49903     49904     49905
     49904     49907     49904     49908     49904     49906     49907     49908
     49909     49910     49909     49912     49909     49913     49909     49911
     49912     49913     49914     49915     49914     49917     49914     49918
     49914     49916     49917     49918     49919     49920     49919     49922
     49919     49923     49919     49921     49922     49923     49924     49925
     49924     49927     49924     49928     49924     49926     49927     49928
     49929     49930     49929     49932     49929     49933     49929     49931
     49932     49933     49934     49935     49934     49937     49934     49938
     49934     49936     49937     49938     49939     49940     49939     49942
     49939     49943     49939     49941     49942     49943     49944     49945
     49944     49947     49944     49948     49944     49946     49947     49948
     49949     49950     49949     49952     49949     49953     49949     49951
     49952     49953     49954     49955     49954     49957     49954     49958
     49954     49956     49957     49958     49959     49960     49959     49962
     49959     49963     49959     49961     49962     49963     49964     49965
     49964     49967     49964     49968     49964     49966     49967     49968
     49969     49970     49969     49972     49969     49973     49969     49971
     49972     49973     49974     49975     49974     49977     49974     49978
     49974     49976     49977     49978     49979     49980     49979     49982
     49979     49983     49979     49981     49982     49983     49984     49985
     49984     49987     49984     49988     49984     49986     49987     49988
     49989     49990     49989     49992     49989     49993     49989     49991
     49992     49993     49994     49995     49994     49997     49994     49998
     49994     49996     49997     49998     49999     50000     49999     50002
     49999     50003     49999     50001     50002     50003     50004     50005
     50004     50007     50004     50008     50004     50006     50007     50008
     50009     50010     50009     50012     50009     50013     50009     50011
     50012     50013     50014     50015     50014     50017     50014     50018
     50014     50016     50017     50018     50019     50020     50019     50022
     50019     50023     50019     50021     50022     50023     50024     50025
     50024     50027     50024     50028     50024     50026     50027     50028
     50029     50030     50029     50032     50029     50033     50029     50031
     50032     50033     50034     50035     50034     50037     50034     50038
     50034     50036     50037     50038     50039     50040     50039     50042
     50039     50043     50039     50041     50042     50043     50044     50045
     50044     50047     50044     50048     50044     50046     50047     50048
     50049     50050     50049     50052     50049     50053     50049     50051
     50052     50053     50054     50055     50054     50057     50054     50058
     50054     50056     50057     50058     50059     50060     50059     50062
     50059     50063     50059     50061     50062     50063     50064     50065
     50064     50067     50064     50068     50064     50066     50067     50068
     50069     50070     50069     50072     50069     50073     50069     50071
     50072     50073     50074     50075     50074     50077     50074     50078
     50074     50076     50077     50078     50079     50080     50079     50082
     50079     50083     50079     50081     50082     50083     50084     50085
     50084     50087     50084     50088     50084     50086     50087     50088
     50089     50090     50089     50092     50089     50093     50089     50091
     50092     50093     50094     50095     50094     50097     50094     50098
     50094     50096     50097     50098     50099     50100     50099     50102
     50099     50103     50099     50101     50102     50103     50104     50105
     50104     50107     50104     50108     50104     50106     50107     50108
     50109     50110     50109     50112     50109     50113     50109     50111
     50112     50113     50114     50115     50114     50117     50114     50118
     50114     50116     50117     50118     50119     50120     50119     50122
     50119     50123     50119     50121     50122     50123     50124     50125
     50124     50127     50124     50128     50124     50126     50127     50128
     50129     50130     50129     50132     50129     50133     50129     50131
     50132     50133     50134     50135     50134     50137     50134     50138
     50134     50136     50137     50138     50139     50140     50139     50142
     50139     50143     50139     50141     50142     50143     50144     50145
     50144     50147     50144     50148     50144     50146     50147     50148
     50149     50150     50149     50152     50149     50153     50149     50151
     50152     50153     50154     50155     50154     50157     50154     50158
     50154     50156     50157     50158     50159     50160     50159     50162
     50159     50163     50159     50161     50162     50163     50164     50165
     50164     50167     50164     50168     50164     50166     50167     50168
     50169     50170     50169     50172     50169     50173     50169     50171
     50172     50173     50174     50175     50174     50177     50174     50178
     50174     50176     50177     50178     50179     50180     50179     50182
     50179     50183     50179     50181     50182     50183     50184     50185
     50184     50187     50184     50188     50184     50186     50187     50188
     50189     50190     50189     50192     50189     50193     50189     50191
     50192     50193     50194     50195     50194     50197     50194     50198
     50194     50196     50197     50198     50199     50200     50199     50202
     50199     50203     50199     50201     50202     50203     50204     50205
     50204     50207     50204     50208     50204     50206     50207     50208
     50209     50210     50209     50212     50209     50213     50209     50211
     50212     50213     50214     50215     50214     50217     50214     50218
     50214     50216     50217     50218     50219     50220     50219     50222
     50219     50223     50219     50221     50222     50223     50224     50225
     50224     50227     50224     50228     50224     50226     50227     50228
     50229     50230     50229     50232     50229     50233     50229     50231
     50232     50233     50234     50235     50234     50237     50234     50238
     50234     50236     50237     50238     50239     50240     50239     50242
     50239     50243     50239     50241     50242     50243     50244     50245
     50244     50247     50244     50248     50244     50246     50247     50248
     50249     50250     50249     50252     50249     50253     50249     50251
     50252     50253     50254     50255     50254     50257     50254     50258
     50254     50256     50257     50258     50259     50260     50259     50262
     50259     50263     50259     50261     50262     50263     50264     50265
     50264     50267     50264     50268     50264     50266     50267     50268
     50269     50270     50269     50272     50269     50273     50269     50271
     50272     50273     50274     50275     50274     50277     50274     50278
     50274     50276     50277     50278     50279     50280     50279     50282
     50279     50283     50279     50281     50282     50283     50284     50285
     50284     50287     50284     50288     50284     50286     50287     50288
     50289     50290     50289     50292     50289     50293     50289     50291
     50292     50293     50294     50295     50294     50297     50294     50298
     50294     50296     50297     50298     50299     50300     50299     50302
     50299     50303     50299     50301     50302     50303     50304     50305
     50304     50307     50304     50308     50304     50306     50307     50308
     50309     50310     50309     50312     50309     50313     50309     50311
     50312     50313     50314     50315     50314     50317     50314     50318
     50314     50316     50317     50318     50319     50320     50319     50322
     50319     50323     50319     50321     50322     50323     50324     50325
     50324     50327     50324     50328     50324     50326     50327     50328
     50329     50330     50329     50332     50329     50333     50329     50331
     50332     50333     50334     50335     50334     50337     50334     50338
     50334     50336     50337     50338     50339     50340     50339     50342
     50339     50343     50339     50341     50342     50343     50344     50345
     50344     50347     50344     50348     50344     50346     50347     50348
     50349     50350     50349     50352     50349     50353     50349     50351
     50352     50353     50354     50355     50354     50357     50354     50358
     50354     50356     50357     50358     50359     50360     50359     50362
     50359     50363     50359     50361     50362     50363     50364     50365
     50364     50367     50364     50368     50364     50366     50367     50368
     50369     50370     50369     50372     50369     50373     50369     50371
     50372     50373     50374     50375     50374     50377     50374     50378
     50374     50376     50377     50378     50379     50380     50379     50382
     50379     50383     50379     50381     50382     50383     50384     50385
     50384     50387     50384     50388     50384     50386     50387     50388
     50389     50390     50389     50392     50389     50393     50389     50391
     50392     50393     50394     50395     50394     50397     50394     50398
     50394     50396     50397     50398     50399     50400     50399     50402
     50399     50403     50399     50401     50402     50403     50404     50405
     50404     50407     50404     50408     50404     50406     50407     50408
     50409     50410     50409     50412     50409     50413     50409     50411
     50412     50413     50414     50415     50414     50417     50414     50418
     50414     50416     50417     50418     50419     50420     50419     50422
     50419     50423     50419     50421     50422     50423     50424     50425
     50424     50427     50424     50428     50424     50426     50427     50428
     50429     50430     50429     50432     50429     50433     50429     50431
     50432     50433     50434     50435     50434     50437     50434     50438
     50434     50436     50437     50438     50439     50440     50439     50442
     50439     50443     50439     50441     50442     50443     50444     50445
     50444     50447     50444     50448     50444     50446     50447     50448
     50449     50450     50449     50452     50449     50453     50449     50451
     50452     50453     50454     50455     50454     50457     50454     50458
     50454     50456     50457     50458     50459     50460     50459     50462
     50459     50463     50459     50461     50462     50463     50464     50465
     50464     50467     50464     50468     50464     50466     50467     50468
     50469     50470     50469     50472     50469     50473     50469     50471
     50472     50473     50474     50475     50474     50477     50474     50478
     50474     50476     50477     50478     50479     50480     50479     50482
     50479     50483     50479     50481     50482     50483     50484     50485
     50484     50487     50484     50488     50484     50486     50487     50488
     50489     50490     50489     50492     50489     50493     50489     50491
     50492     50493     50494     50495     50494     50497     50494     50498
     50494     50496     50497     50498     50499     50500     50499     50502
     50499     50503     50499     50501     50502     50503     50504     50505
     50504     50507     50504     50508     50504     50506     50507     50508
     50509     50510     50509     50512     50509     50513     50509     50511
     50512     50513     50514     50515     50514     50517     50514     50518
     50514     50516     50517     50518     50519     50520     50519     50522
     50519     50523     50519     50521     50522     50523     50524     50525
     50524     50527     50524     50528     50524     50526     50527     50528
     50529     50530     50529     50532     50529     50533     50529     50531
     50532     50533     50534     50535     50534     50537     50534     50538
     50534     50536     50537     50538     50539     50540     50539     50542
     50539     50543     50539     50541     50542     50543     50544     50545
     50544     50547     50544     50548     50544     50546     50547     50548
     50549     50550     50549     50552     50549     50553     50549     50551
     50552     50553     50554     50555     50554     50557     50554     50558
     50554     50556     50557     50558     50559     50560     50559     50562
     50559     50563     50559     50561     50562     50563     50564     50565
     50564     50567     50564     50568     50564     50566     50567     50568
     50569     50570     50569     50572     50569     50573     50569     50571
     50572     50573     50574     50575     50574     50577     50574     50578
     50574     50576     50577     50578     50579     50580     50579     50582
     50579     50583     50579     50581     50582     50583     50584     50585
     50584     50587     50584     50588     50584     50586     50587     50588
     50589     50590     50589     50592     50589     50593     50589     50591
     50592     50593     50594     50595     50594     50597     50594     50598
     50594     50596     50597     50598     50599     50600     50599     50602
     50599     50603     50599     50601     50602     50603     50604     50605
     50604     50607     50604     50608     50604     50606     50607     50608
     50609     50610     50609     50612     50609     50613     50609     50611
     50612     50613     50614     50615     50614     50617     50614     50618
     50614     50616     50617     50618     50619     50620     50619     50622
     50619     50623     50619     50621     50622     50623     50624     50625
     50624     50627     50624     50628     50624     50626     50627     50628
     50629     50630     50629     50632     50629     50633     50629     50631
     50632     50633     50634     50635     50634     50637     50634     50638
     50634     50636     50637     50638     50639     50640     50639     50642
     50639     50643     50639     50641     50642     50643     50644     50645
     50644     50647     50644     50648     50644     50646     50647     50648
     50649     50650     50649     50652     50649     50653     50649     50651
     50652     50653     50654     50655     50654     50657     50654     50658
     50654     50656     50657     50658     50659     50660     50659     50662
     50659     50663     50659     50661     50662     50663     50664     50665
     50664     50667     50664     50668     50664     50666     50667     50668
     50669     50670     50669     50672     50669     50673     50669     50671
     50672     50673     50674     50675     50674     50677     50674     50678
     50674     50676     50677     50678     50679     50680     50679     50682
     50679     50683     50679     50681     50682     50683     50684     50685
     50684     50687     50684     50688     50684     50686     50687     50688
     50689     50690     50689     50692     50689     50693     50689     50691
     50692     50693     50694     50695     50694     50697     50694     50698
     50694     50696     50697     50698     50699     50700     50699     50702
     50699     50703     50699     50701     50702     50703     50704     50705
     50704     50707     50704     50708     50704     50706     50707     50708
     50709     50710     50709     50712     50709     50713     50709     50711
     50712     50713     50714     50715     50714     50717     50714     50718
     50714     50716     50717     50718     50719     50720     50719     50722
     50719     50723     50719     50721     50722     50723     50724     50725
     50724     50727     50724     50728     50724     50726     50727     50728
     50729     50730     50729     50732     50729     50733     50729     50731
     50732     50733     50734     50735     50734     50737     50734     50738
     50734     50736     50737     50738     50739     50740     50739     50742
     50739     50743     50739     50741     50742     50743     50744     50745
     50744     50747     50744     50748     50744     50746     50747     50748
     50749     50750     50749     50752     50749     50753     50749     50751
     50752     50753     50754     50755     50754     50757     50754     50758
     50754     50756     50757     50758     50759     50760     50759     50762
     50759     50763     50759     50761     50762     50763     50764     50765
     50764     50767     50764     50768     50764     50766     50767     50768
     50769     50770     50769     50772     50769     50773     50769     50771
     50772     50773     50774     50775     50774     50777     50774     50778
     50774     50776     50777     50778     50779     50780     50779     50782
     50779     50783     50779     50781     50782     50783     50784     50785
     50784     50787     50784     50788     50784     50786     50787     50788
     50789     50790     50789     50792     50789     50793     50789     50791
     50792     50793     50794     50795     50794     50797     50794     50798
     50794     50796     50797     50798     50799     50800     50799     50802
     50799     50803     50799     50801     50802     50803     50804     50805
     50804     50807     50804     50808     50804     50806     50807     50808
     50809     50810     50809     50812     50809     50813     50809     50811
     50812     50813     50814     50815     50814     50817     50814     50818
     50814     50816     50817     50818     50819     50820     50819     50822
     50819     50823     50819     50821     50822     50823     50824     50825
     50824     50827     50824     50828     50824     50826     50827     50828
     50829     50830     50829     50832     50829     50833     50829     50831
     50832     50833     50834     50835     50834     50837     50834     50838
     50834     50836     50837     50838     50839     50840     50839     50842
     50839     50843     50839     50841     50842     50843     50844     50845
     50844     50847     50844     50848     50844     50846     50847     50848
     50849     50850     50849     50852     50849     50853     50849     50851
     50852     50853     50854     50855     50854     50857     50854     50858
     50854     50856     50857     50858     50859     50860     50859     50862
     50859     50863     50859     50861     50862     50863     50864     50865
     50864     50867     50864     50868     50864     50866     50867     50868
     50869     50870     50869     50872     50869     50873     50869     50871
     50872     50873     50874     50875     50874     50877     50874     50878
     50874     50876     50877     50878     50879     50880     50879     50882
     50879     50883     50879     50881     50882     50883     50884     50885
     50884     50887     50884     50888     50884     50886     50887     50888
     50889     50890     50889     50892     50889     50893     50889     50891
     50892     50893     50894     50895     50894     50897     50894     50898
     50894     50896     50897     50898     50899     50900     50899     50902
     50899     50903     50899     50901     50902     50903     50904     50905
     50904     50907     50904     50908     50904     50906     50907     50908
     50909     50910     50909     50912     50909     50913     50909     50911
     50912     50913     50914     50915     50914     50917     50914     50918
     50914     50916     50917     50918     50919     50920     50919     50922
     50919     50923     50919     50921     50922     50923     50924     50925
     50924     50927     50924     50928     50924     50926     50927     50928
     50929     50930     50929     50932     50929     50933     50929     50931
     50932     50933     50934     50935     50934     50937     50934     50938
     50934     50936     50937     50938     50939     50940     50939     50942
     50939     50943     50939     50941     50942     50943     50944     50945
     50944     50947     50944     50948     50944     50946     50947     50948
     50949     50950     50949     50952     50949     50953     50949     50951
     50952     50953     50954     50955     50954     50957     50954     50958
     50954     50956     50957     50958     50959     50960     50959     50962
     50959     50963     50959     50961     50962     50963     50964     50965
     50964     50967     50964     50968     50964     50966     50967     50968
     50969     50970     50969     50972     50969     50973     50969     50971
     50972     50973     50974     50975     50974     50977     50974     50978
     50974     50976     50977     50978     50979     50980     50979     50982
     50979     50983     50979     50981     50982     50983     50984     50985
     50984     50987     50984     50988     50984     50986     50987     50988
     50989     50990     50989     50992     50989     50993     50989     50991
     50992     50993     50994     50995     50994     50997     50994     50998
     50994     50996     50997     50998     50999     51000     50999     51002
     50999     51003     50999     51001     51002     51003     51004     51005
     51004     51007     51004     51008     51004     51006     51007     51008
     51009     51010     51009     51012     51009     51013     51009     51011
     51012     51013     51014     51015     51014     51017     51014     51018
     51014     51016     51017     51018     51019     51020     51019     51022
     51019     51023     51019     51021     51022     51023     51024     51025
     51024     51027     51024     51028     51024     51026     51027     51028
     51029     51030     51029     51032     51029     51033     51029     51031
     51032     51033     51034     51035     51034     51037     51034     51038
     51034     51036     51037     51038     51039     51040     51039     51042
     51039     51043     51039     51041     51042     51043     51044     51045
     51044     51047     51044     51048     51044     51046     51047     51048
     51049     51050     51049     51052     51049     51053     51049     51051
     51052     51053     51054     51055     51054     51057     51054     51058
     51054     51056     51057     51058     51059     51060     51059     51062
     51059     51063     51059     51061     51062     51063     51064     51065
     51064     51067     51064     51068     51064     51066     51067     51068
     51069     51070     51069     51072     51069     51073     51069     51071
     51072     51073     51074     51075     51074     51077     51074     51078
     51074     51076     51077     51078     51079     51080     51079     51082
     51079     51083     51079     51081     51082     51083     51084     51085
     51084     51087     51084     51088     51084     51086     51087     51088
     51089     51090     51089     51092     51089     51093     51089     51091
     51092     51093     51094     51095     51094     51097     51094     51098
     51094     51096     51097     51098     51099     51100     51099     51102
     51099     51103     51099     51101     51102     51103     51104     51105
     51104     51107     51104     51108     51104     51106     51107     51108
     51109     51110     51109     51112     51109     51113     51109     51111
     51112     51113     51114     51115     51114     51117     51114     51118
     51114     51116     51117     51118     51119     51120     51119     51122
     51119     51123     51119     51121     51122     51123     51124     51125
     51124     51127     51124     51128     51124     51126     51127     51128
     51129     51130     51129     51132     51129     51133     51129     51131
     51132     51133     51134     51135     51134     51137     51134     51138
     51134     51136     51137     51138     51139     51140     51139     51142
     51139     51143     51139     51141     51142     51143     51144     51145
     51144     51147     51144     51148     51144     51146     51147     51148
     51149     51150     51149     51152     51149     51153     51149     51151
     51152     51153     51154     51155     51154     51157     51154     51158
     51154     51156     51157     51158     51159     51160     51159     51162
     51159     51163     51159     51161     51162     51163     51164     51165
     51164     51167     51164     51168     51164     51166     51167     51168
     51169     51170     51169     51172     51169     51173     51169     51171
     51172     51173     51174     51175     51174     51177     51174     51178
     51174     51176     51177     51178     51179     51180     51179     51182
     51179     51183     51179     51181     51182     51183     51184     51185
     51184     51187     51184     51188     51184     51186     51187     51188
     51189     51190     51189     51192     51189     51193     51189     51191
     51192     51193     51194     51195     51194     51197     51194     51198
     51194     51196     51197     51198     51199     51200     51199     51202
     51199     51203     51199     51201     51202     51203     51204     51205
     51204     51207     51204     51208     51204     51206     51207     51208
     51209     51210     51209     51212     51209     51213     51209     51211
     51212     51213     51214     51215     51214     51217     51214     51218
     51214     51216     51217     51218     51219     51220     51219     51222
     51219     51223     51219     51221     51222     51223     51224     51225
     51224     51227     51224     51228     51224     51226     51227     51228
     51229     51230     51229     51232     51229     51233     51229     51231
     51232     51233     51234     51235     51234     51237     51234     51238
     51234     51236     51237     51238     51239     51240     51239     51242
     51239     51243     51239     51241     51242     51243     51244     51245
     51244     51247     51244     51248     51244     51246     51247     51248
     51249     51250     51249     51252     51249     51253     51249     51251
     51252     51253     51254     51255     51254     51257     51254     51258
     51254     51256     51257     51258     51259     51260     51259     51262
     51259     51263     51259     51261     51262     51263     51264     51265
     51264     51267     51264     51268     51264     51266     51267     51268
     51269     51270     51269     51272     51269     51273     51269     51271
     51272     51273     51274     51275     51274     51277     51274     51278
     51274     51276     51277     51278     51279     51280     51279     51282
     51279     51283     51279     51281     51282     51283     51284     51285
     51284     51287     51284     51288     51284     51286     51287     51288
     51289     51290     51289     51292     51289     51293     51289     51291
     51292     51293     51294     51295     51294     51297     51294     51298
     51294     51296     51297     51298     51299     51300     51299     51302
     51299     51303     51299     51301     51302     51303     51304     51305
     51304     51307     51304     51308     51304     51306     51307     51308
     51309     51310     51309     51312     51309     51313     51309     51311
     51312     51313     51314     51315     51314     51317     51314     51318
     51314     51316     51317     51318     51319     51320     51319     51322
     51319     51323     51319     51321     51322     51323     51324     51325
     51324     51327     51324     51328     51324     51326     51327     51328
     51329     51330     51329     51332     51329     51333     51329     51331
     51332     51333     51334     51335     51334     51337     51334     51338
     51334     51336     51337     51338     51339     51340     51339     51342
     51339     51343     51339     51341     51342     51343     51344     51345
     51344     51347     51344     51348     51344     51346     51347     51348
     51349     51350     51349     51352     51349     51353     51349     51351
     51352     51353     51354     51355     51354     51357     51354     51358
     51354     51356     51357     51358     51359     51360     51359     51362
     51359     51363     51359     51361     51362     51363     51364     51365
     51364     51367     51364     51368     51364     51366     51367     51368
     51369     51370     51369     51372     51369     51373     51369     51371
     51372     51373     51374     51375     51374     51377     51374     51378
     51374     51376     51377     51378     51379     51380     51379     51382
     51379     51383     51379     51381     51382     51383     51384     51385
     51384     51387     51384     51388     51384     51386     51387     51388
     51389     51390     51389     51392     51389     51393     51389     51391
     51392     51393     51394     51395     51394     51397     51394     51398
     51394     51396     51397     51398     51399     51400     51399     51402
     51399     51403     51399     51401     51402     51403     51404     51405
     51404     51407     51404     51408     51404     51406     51407     51408

     39312 !NTHETA: angles
         3         1         4         3         1         5         3         1         6
         4         1         5         4         1         6         5         1         6
         1         6         8         1         6         9         1         6        10
         8         6         9         8         6        10         9         6        10
         6        10        12         6        10        13         6        10        22
        12        10        13        12        10        22        13        10        22
        16        14        18        16        14        20        16        14        22
        18        14        20        18        14        22        20        14        22
        14        20        24        10        22        14        20        24        26
        20        24        27        20        24        28        26        24        27
        26        24        28        27        24        28        24        28        30
        24        28        31        24        28        45        30        28        31
        30        28        45        31        28        45        28        31        33
        31        33        35        31        33        37        35        33        37
        33        37        39        33        37        40        33        37        63
        39        37        40        39        37        63        40        37        63
        28        45        47        28        45        48        28        45        49
        47        45        48        47        45        49        48        45        49
        45        49        51        49        51        53        49        51        55
        53        51        55        51        55        57        51        55        58
        51        55       126        57        55        58        57        55       126
        58        55       126        37        63        65        37        63        66
        37        63        67        65        63        66        65        63        67
        66        63        67        63        67        69        63        67        70
        63        67        71        69        67        70        69        67        71
        70        67        71        67        71        73        67        71        74
        67        71        75        73        71        74        73        71        75
        74        71        75        71        75        77        71        75        78
        71        75        79        77        75        78        77        75        79
        78        75        79        75        79        81        75        79        82
        75        79        83        81        79        82        81        79        83
        82        79        83        79        83        85        79        83        86
        79        83        87        85        83        86        85        83        87
        86        83        87        83        87        89        83        87        90
        89        87        90        87        90        92        87        90        93
        92        90        93        90        93        95        90        93        96
        90        93        97        95        93        96        95        93        97
        96        93        97        93        97        99        93        97       100
        93        97       101        99        97       100        99        97       101
       100        97       101        97       101       103        97       101       104
        97       101       105       103       101       104       103       101       105
       104       101       105       101       105       107       101       105       108
       101       105       109       107       105       108       107       105       109
       108       105       109       105       109       111       105       109       112
       105       109       113       111       109       112       111       109       113
       112       109       113       109       113       115       109       113       116
       109       113       117       115       113       116       115       113       117
       116       113       117       113       117       119       113       117       120
       113       117       121       119       117       120       119       117       121
       120       117       121       117       121       123       117       121       124
       117       121       125       123       121       124       123       121       125
       124       121       125        55       126       128        55       126       129
        55       126       130       128       126       129       128       126       130
       129       126       130       126       130       132       126       130       133
       126       130       134       132       130       133       132       130       134
       133       130       134       130       134       136       130       134       137
       130       134       138       136       134       137       136       134       138
       137       134       138       134       138       140       134       138       141
       134       138       142       140       138       141       140       138       142
       141       138       142       138       142       144       138       142       145
       138       142       146       144       142       145       144       142       146
       145       142       146       142       146       148       142       146       149
       142       146       150       148       146       149       148       146       150
       149       146       150       146       150       152       146       150       153
       146       150       154       152       150       153       152       150       154
       153       150       154       150       154       156       150       154       157
       150       154       158       156       154       157       156       154       158
       157       154       158       154       158       160       154       158       161
       154       158       162       160       158       161       160       158       162
       161       158       162       158       162       164       158       162       165
       158       162       166       164       162       165       164       162       166
       165       162       166       162       166       168       162       166       169
       162       166       170       168       166       169       168       166       170
       169       166       170       166       170       172       166       170       173
       166       170       174       172       170       173       172       170       174
       173       170       174       170       174       176       170       174       177
       170       174       178       176       174       177       176       174       178
       177       174       178       174       178       180       174       178       181
       174       178       182       180       178       181       180       178       182
       181       178       182       185       183       186       185       183       187
       185       183       188       186       183       187       186       183       188
       187       183       188       183       188       190       183       188       191
       183       188       192       190       188       191       190       188       192
       191       188       192       188       192       194       188       192       195
       188       192       204       194       192       195       194       192       204
       195       192       204       198       196       200       198       196       202
       198       196       204       200       196       202       200       196       204
       202       196       204       196       202       206       192       204       196
       202       206       208       202       206       209       202       206       210
       208       206       209       208       206       210       209       206       210
       206       210       212       206       210       213       206       210       227
       212       210       213       212       210       227       213       210       227
       210       213       215       213       215       217       213       215       219
       217       215       219       215       219       221       215       219       222
       215       219       245       221       219       222       221       219       245
       222       219       245       210       227       229       210       227       230
       210       227       231       229       227       230       229       227       231
       230       227       231       227       231       233       231       233       235
       231       233       237       235       233       237       233       237       239
       233       237       240       233       237       308       239       237       240
       239       237       308       240       237       308       219       245       247
       219       245       248       219       245       249       247       245       248
       247       245       249       248       245       249       245       249       251
       245       249       252       245       249       253       251       249       252
       251       249       253       252       249       253       249       253       255
       249       253       256       249       253       257       255       253       256
       255       253       257       256       253       257       253       257       259
       253       257       260       253       257       261       259       257       260
       259       257       261       260       257       261       257       261       263
       257       261       264       257       261       265       263       261       264
       263       261       265       264       261       265       261       265       267
       261       265       268       261       265       269       267       265       268
       267       265       269       268       265       269       265       269       271
       265       269       272       271       269       272       269       272       274
       269       272       275       274       272       275       272       275       277
       272       275       278       272       275       279       277       275       278
       277       275       279       278       275       279       275       279       281
       275       279       282       275       279       283       281       279       282
       281       279       283       282       279       283       279       283       285
       279       283       286       279       283       287       285       283       286
       285       283       287       286       283       287       283       287       289
       283       287       290       283       287       291       289       287       290
       289       287       291       290       287       291       287       291       293
       287       291       294       287       291       295       293       291       294
       293       291       295       294       291       295       291       295       297
       291       295       298       291       295       299       297       295       298
       297       295       299       298       295       299       295       299       301
       295       299       302       295       299       303       301       299       302
       301       299       303       302       299       303       299       303       305
       299       303       306       299       303       307       305       303       306
       305       303       307       306       303       307       237       308       310
       237       308       311       237       308       312       310       308       311
       310       308       312       311       308       312       308       312       314
       308       312       315       308       312       316       314       312       315
       314       312       316       315       312       316       312       316       318
       312       316       319       312       316       320       318       316       319
       318       316       320       319       316       320       316       320       322
       316       320       323       316       320       324       322       320       323
       322       320       324       323       320       324       320       324       326
       320       324       327       320       324       328       326       324       327
       326       324       328       327       324       328       324       328       330
       324       328       331       324       328       332       330       328       331
       330       328       332       331       328       332       328       332       334
       328       332       335       328       332       336       334       332       335
       334       332       336       335       332       336       332       336       338
       332       336       339       332       336       340       338       336       339
       338       336       340       339       336       340       336       340       342
       336       340       343       336       340       344       342       340       343
       342       340       344       343       340       344       340       344       346
       340       344       347       340       344       348       346       344       347
       346       344       348       347       344       348       344       348       350
       344       348       351       344       348       352       350       348       351
       350       348       352       351       348       352       348       352       354
       348       352       355       348       352       356       354       352       355
       354       352       356       355       352       356       352       356       358
       352       356       359       352       356       360       358       356       359
       358       356       360       359       356       360       356       360       362
       356       360       363       356       360       364       362       360       363
       362       360       364       363       360       364       367       365       368
       367       365       369       367       365       370       368       365       369
       368       365       370       369       365       370       365       370       372
       365       370       373       365       370       374       372       370       373
       372       370       374       373       370       374       370       374       376
       370       374       377       370       374       386       376       374       377
       376       374       386       377       374       386       380       378       382
       380       378       384       380       378       386       382       378       384
       382       378       386       384       378       386       378       384       388
       374       386       378       384       388       390       384       388       391
       384       388       392       390       388       391       390       388       392
       391       388       392       388       392       394       388       392       395
       388       392       409       394       392       395       394       392       409
       395       392       409       392       395       397       395       397       399
       395       397       401       399       397       401       397       401       403
       397       401       404       397       401       427       403       401       404
       403       401       427       404       401       427       392       409       411
       392       409       412       392       409       413       411       409       412
       411       409       413       412       409       413       409       413       415
       413       415       417       413       415       419       417       415       419
       415       419       421       415       419       422       415       419       490
       421       419       422       421       419       490       422       419       490
       401       427       429       401       427       430       401       427       431
       429       427       430       429       427       431       430       427       431
       427       431       433       427       431       434       427       431       435
       433       431       434       433       431       435       434       431       435
       431       435       437       431       435       438       431       435       439
       437       435       438       437       435       439       438       435       439
       435       439       441       435       439       442       435       439       443
       441       439       442       441       439       443       442       439       443
       439       443       445       439       443       446       439       443       447
       445       443       446       445       443       447       446       443       447
       443       447       449       443       447       450       443       447       451
       449       447       450       449       447       451       450       447       451
       447       451       453       447       451       454       453       451       454
       451       454       456       451       454       457       456       454       457
       454       457       459       454       457       460       454       457       461
       459       457       460       459       457       461       460       457       461
       457       461       463       457       461       464       457       461       465
       463       461       464       463       461       465       464       461       465
       461       465       467       461       465       468       461       465       469
       467       465       468       467       465       469       468       465       469
       465       469       471       465       469       472       465       469       473
       471       469       472       471       469       473       472       469       473
       469       473       475       469       473       476       469       473       477
       475       473       476       475       473       477       476       473       477
       473       477       479       473       477       480       473       477       481
       479       477       480       479       477       481       480       477       481
       477       481       483       477       481       484       477       481       485
       483       481       484       483       481       485       484       481       485
       481       485       487       481       485       488       481       485       489
       487       485       488       487       485       489       488       485       489
       419       490       492       419       490       493       419       490       494
       492       490       493       492       490       494       493       490       494
       490       494       496       490       494       497       490       494       498
       496       494       497       496       494       498       497       494       498
       494       498       500       494       498       501       494       498       502
       500       498       501       500       498       502       501       498       502
       498       502       504       498       502       505       498       502       506
       504       502       505       504       502       506       505       502       506
       502       506       508       502       506       509       502       506       510
       508       506       509       508       506       510       509       506       510
       506       510       512       506       510       513       506       510       514
       512       510       513       512       510       514       513       510       514
       510       514       516       510       514       517       510       514       518
       516       514       517       516       514       518       517       514       518
       514       518       520       514       518       521       514       518       522
       520       518       521       520       518       522       521       518       522
       518       522       524       518       522       525       518       522       526
       524       522       525       524       522       526       525       522       526
       522       526       528       522       526       529       522       526       530
       528       526       529       528       526       530       529       526       530
       526       530       532       526       530       533       526       530       534
       532       530       533       532       530       534       533       530       534
       530       534       536       530       534       537       530       534       538
       536       534       537       536       534       538       537       534       538
       534       538       540       534       538       541       534       538       542
       540       538       541       540       538       542       541       538       542
       538       542       544       538       542       545       538       542       546
       544       542       545       544       542       546       545       542       546
       549       547       550       549       547       551       549       547       552
       550       547       551       550       547       552       551       547       552
       547       552       554       547       552       555       547       552       556
       554       552       555       554       552       556       555       552       556
       552       556       558       552       556       559       552       556       568
       558       556       559       558       556       568       559       556       568
       562       560       564       562       560       566       562       560       568
       564       560       566       564       560       568       566       560       568
       560       566       570       556       568       560       566       570       572
       566       570       573       566       570       574       572       570       573
       572       570       574       573       570       574       570       574       576
       570       574       577       570       574       591       576       574       577
       576       574       591       577       574       591       574       577       579
       577       579       581       577       579       583       581       579       583
       579       583       585       579       583       586       579       583       609
       585       583       586       585       583       609       586       583       609
       574       591       593       574       591       594       574       591       595
       593       591       594       593       591       595       594       591       595
       591       595       597       595       597       599       595       597       601
       599       597       601       597       601       603       597       601       604
       597       601       672       603       601       604       603       601       672
       604       601       672       583       609       611       583       609       612
       583       609       613       611       609       612       611       609       613
       612       609       613       609       613       615       609       613       616
       609       613       617       615       613       616       615       613       617
       616       613       617       613       617       619       613       617       620
       613       617       621       619       617       620       619       617       621
       620       617       621       617       621       623       617       621       624
       617       621       625       623       621       624       623       621       625
       624       621       625       621       625       627       621       625       628
       621       625       629       627       625       628       627       625       629
       628       625       629       625       629       631       625       629       632
       625       629       633       631       629       632       631       629       633
       632       629       633       629       633       635       629       633       636
       635       633       636       633       636       638       633       636       639
       638       636       639       636       639       641       636       639       642
       636       639       643       641       639       642       641       639       643
       642       639       643       639       643       645       639       643       646
       639       643       647       645       643       646       645       643       647
       646       643       647       643       647       649       643       647       650
       643       647       651       649       647       650       649       647       651
       650       647       651       647       651       653       647       651       654
       647       651       655       653       651       654       653       651       655
       654       651       655       651       655       657       651       655       658
       651       655       659       657       655       658       657       655       659
       658       655       659       655       659       661       655       659       662
       655       659       663       661       659       662       661       659       663
       662       659       663       659       663       665       659       663       666
       659       663       667       665       663       666       665       663       667
       666       663       667       663       667       669       663       667       670
       663       667       671       669       667       670       669       667       671
       670       667       671       601       672       674       601       672       675
       601       672       676       674       672       675       674       672       676
       675       672       676       672       676       678       672       676       679
       672       676       680       678       676       679       678       676       680
       679       676       680       676       680       682       676       680       683
       676       680       684       682       680       683       682       680       684
       683       680       684       680       684       686       680       684       687
       680       684       688       686       684       687       686       684       688
       687       684       688       684       688       690       684       688       691
       684       688       692       690       688       691       690       688       692
       691       688       692       688       692       694       688       692       695
       688       692       696       694       692       695       694       692       696
       695       692       696       692       696       698       692       696       699
       692       696       700       698       696       699       698       696       700
       699       696       700       696       700       702       696       700       703
       696       700       704       702       700       703       702       700       704
       703       700       704       700       704       706       700       704       707
       700       704       708       706       704       707       706       704       708
       707       704       708       704       708       710       704       708       711
       704       708       712       710       708       711       710       708       712
       711       708       712       708       712       714       708       712       715
       708       712       716       714       712       715       714       712       716
       715       712       716       712       716       718       712       716       719
       712       716       720       718       716       719       718       716       720
       719       716       720       716       720       722       716       720       723
       716       720       724       722       720       723       722       720       724
       723       720       724       720       724       726       720       724       727
       720       724       728       726       724       727       726       724       728
       727       724       728       731       729       732       731       729       733
       731       729       734       732       729       733       732       729       734
       733       729       734       729       734       736       729       734       737
       729       734       738       736       734       737       736       734       738
       737       734       738       734       738       740       734       738       741
       734       738       750       740       738       741       740       738       750
       741       738       750       744       742       746       744       742       748
       744       742       750       746       742       748       746       742       750
       748       742       750       742       748       752       738       750       742
       748       752       754       748       752       755       748       752       756
       754       752       755       754       752       756       755       752       756
       752       756       758       752       756       759       752       756       773
       758       756       759       758       756       773       759       756       773
       756       759       761       759       761       763       759       761       765
       763       761       765       761       765       767       761       765       768
       761       765       791       767       765       768       767       765       791
       768       765       791       756       773       775       756       773       776
       756       773       777       775       773       776       775       773       777
       776       773       777       773       777       779       777       779       781
       777       779       783       781       779       783       779       783       785
       779       783       786       779       783       854       785       783       786
       785       783       854       786       783       854       765       791       793
       765       791       794       765       791       795       793       791       794
       793       791       795       794       791       795       791       795       797
       791       795       798       791       795       799       797       795       798
       797       795       799       798       795       799       795       799       801
       795       799       802       795       799       803       801       799       802
       801       799       803       802       799       803       799       803       805
       799       803       806       799       803       807       805       803       806
       805       803       807       806       803       807       803       807       809
       803       807       810       803       807       811       809       807       810
       809       807       811       810       807       811       807       811       813
       807       811       814       807       811       815       813       811       814
       813       811       815       814       811       815       811       815       817
       811       815       818       817       815       818       815       818       820
       815       818       821       820       818       821       818       821       823
       818       821       824       818       821       825       823       821       824
       823       821       825       824       821       825       821       825       827
       821       825       828       821       825       829       827       825       828
       827       825       829       828       825       829       825       829       831
       825       829       832       825       829       833       831       829       832
       831       829       833       832       829       833       829       833       835
       829       833       836       829       833       837       835       833       836
       835       833       837       836       833       837       833       837       839
       833       837       840       833       837       841       839       837       840
       839       837       841       840       837       841       837       841       843
       837       841       844       837       841       845       843       841       844
       843       841       845       844       841       845       841       845       847
       841       845       848       841       845       849       847       845       848
       847       845       849       848       845       849       845       849       851
       845       849       852       845       849       853       851       849       852
       851       849       853       852       849       853       783       854       856
       783       854       857       783       854       858       856       854       857
       856       854       858       857       854       858       854       858       860
       854       858       861       854       858       862       860       858       861
       860       858       862       861       858       862       858       862       864
       858       862       865       858       862       866       864       862       865
       864       862       866       865       862       866       862       866       868
       862       866       869       862       866       870       868       866       869
       868       866       870       869       866       870       866       870       872
       866       870       873       866       870       874       872       870       873
       872       870       874       873       870       874       870       874       876
       870       874       877       870       874       878       876       874       877
       876       874       878       877       874       878       874       878       880
       874       878       881       874       878       882       880       878       881
       880       878       882       881       878       882       878       882       884
       878       882       885       878       882       886       884       882       885
       884       882       886       885       882       886       882       886       888
       882       886       889       882       886       890       888       886       889
       888       886       890       889       886       890       886       890       892
       886       890       893       886       890       894       892       890       893
       892       890       894       893       890       894       890       894       896
       890       894       897       890       894       898       896       894       897
       896       894       898       897       894       898       894       898       900
       894       898       901       894       898       902       900       898       901
       900       898       902       901       898       902       898       902       904
       898       902       905       898       902       906       904       902       905
       904       902       906       905       902       906       902       906       908
       902       906       909       902       906       910       908       906       909
       908       906       910       909       906       910       913       911       914
       913       911       915       913       911       916       914       911       915
       914       911       916       915       911       916       911       916       918
       911       916       919       911       916       920       918       916       919
       918       916       920       919       916       920       916       920       922
       916       920       923       916       920       932       922       920       923
       922       920       932       923       920       932       926       924       928
       926       924       930       926       924       932       928       924       930
       928       924       932       930       924       932       924       930       934
       920       932       924       930       934       936       930       934       937
       930       934       938       936       934       937       936       934       938
       937       934       938       934       938       940       934       938       941
       934       938       955       940       938       941       940       938       955
       941       938       955       938       941       943       941       943       945
       941       943       947       945       943       947       943       947       949
       943       947       950       943       947       973       949       947       950
       949       947       973       950       947       973       938       955       957
       938       955       958       938       955       959       957       955       958
       957       955       959       958       955       959       955       959       961
       959       961       963       959       961       965       963       961       965
       961       965       967       961       965       968       961       965      1036
       967       965       968       967       965      1036       968       965      1036
       947       973       975       947       973       976       947       973       977
       975       973       976       975       973       977       976       973       977
       973       977       979       973       977       980       973       977       981
       979       977       980       979       977       981       980       977       981
       977       981       983       977       981       984       977       981       985
       983       981       984       983       981       985       984       981       985
       981       985       987       981       985       988       981       985       989
       987       985       988       987       985       989       988       985       989
       985       989       991       985       989       992       985       989       993
       991       989       992       991       989       993       992       989       993
       989       993       995       989       993       996       989       993       997
       995       993       996       995       993       997       996       993       997
       993       997       999       993       997      1000       999       997      1000
       997      1000      1002       997      1000      1003      1002      1000      1003
      1000      1003      1005      1000      1003      1006      1000      1003      1007
      1005      1003      1006      1005      1003      1007      1006      1003      1007
      1003      1007      1009      1003      1007      1010      1003      1007      1011
      1009      1007      1010      1009      1007      1011      1010      1007      1011
      1007      1011      1013      1007      1011      1014      1007      1011      1015
      1013      1011      1014      1013      1011      1015      1014      1011      1015
      1011      1015      1017      1011      1015      1018      1011      1015      1019
      1017      1015      1018      1017      1015      1019      1018      1015      1019
      1015      1019      1021      1015      1019      1022      1015      1019      1023
      1021      1019      1022      1021      1019      1023      1022      1019      1023
      1019      1023      1025      1019      1023      1026      1019      1023      1027
      1025      1023      1026      1025      1023      1027      1026      1023      1027
      1023      1027      1029      1023      1027      1030      1023      1027      1031
      1029      1027      1030      1029      1027      1031      1030      1027      1031
      1027      1031      1033      1027      1031      1034      1027      1031      1035
      1033      1031      1034      1033      1031      1035      1034      1031      1035
       965      1036      1038       965      1036      1039       965      1036      1040
      1038      1036      1039      1038      1036      1040      1039      1036      1040
      1036      1040      1042      1036      1040      1043      1036      1040      1044
      1042      1040      1043      1042      1040      1044      1043      1040      1044
      1040      1044      1046      1040      1044      1047      1040      1044      1048
      1046      1044      1047      1046      1044      1048      1047      1044      1048
      1044      1048      1050      1044      1048      1051      1044      1048      1052
      1050      1048      1051      1050      1048      1052      1051      1048      1052
      1048      1052      1054      1048      1052      1055      1048      1052      1056
      1054      1052      1055      1054      1052      1056      1055      1052      1056
      1052      1056      1058      1052      1056      1059      1052      1056      1060
      1058      1056      1059      1058      1056      1060      1059      1056      1060
      1056      1060      1062      1056      1060      1063      1056      1060      1064
      1062      1060      1063      1062      1060      1064      1063      1060      1064
      1060      1064      1066      1060      1064      1067      1060      1064      1068
      1066      1064      1067      1066      1064      1068      1067      1064      1068
      1064      1068      1070      1064      1068      1071      1064      1068      1072
      1070      1068      1071      1070      1068      1072      1071      1068      1072
      1068      1072      1074      1068      1072      1075      1068      1072      1076
      1074      1072      1075      1074      1072      1076      1075      1072      1076
      1072      1076      1078      1072      1076      1079      1072      1076      1080
      1078      1076      1079      1078      1076      1080      1079      1076      1080
      1076      1080      1082      1076      1080      1083      1076      1080      1084
      1082      1080      1083      1082      1080      1084      1083      1080      1084
      1080      1084      1086      1080      1084      1087      1080      1084      1088
      1086      1084      1087      1086      1084      1088      1087      1084      1088
      1084      1088      1090      1084      1088      1091      1084      1088      1092
      1090      1088      1091      1090      1088      1092      1091      1088      1092
      1095      1093      1096      1095      1093      1097      1095      1093      1098
      1096      1093      1097      1096      1093      1098      1097      1093      1098
      1093      1098      1100      1093      1098      1101      1093      1098      1102
      1100      1098      1101      1100      1098      1102      1101      1098      1102
      1098      1102      1104      1098      1102      1105      1098      1102      1114
      1104      1102      1105      1104      1102      1114      1105      1102      1114
      1108      1106      1110      1108      1106      1112      1108      1106      1114
      1110      1106      1112      1110      1106      1114      1112      1106      1114
      1106      1112      1116      1102      1114      1106      1112      1116      1118
      1112      1116      1119      1112      1116      1120      1118      1116      1119
      1118      1116      1120      1119      1116      1120      1116      1120      1122
      1116      1120      1123      1116      1120      1137      1122      1120      1123
      1122      1120      1137      1123      1120      1137      1120      1123      1125
      1123      1125      1127      1123      1125      1129      1127      1125      1129
      1125      1129      1131      1125      1129      1132      1125      1129      1155
      1131      1129      1132      1131      1129      1155      1132      1129      1155
      1120      1137      1139      1120      1137      1140      1120      1137      1141
      1139      1137      1140      1139      1137      1141      1140      1137      1141
      1137      1141      1143      1141      1143      1145      1141      1143      1147
      1145      1143      1147      1143      1147      1149      1143      1147      1150
      1143      1147      1218      1149      1147      1150      1149      1147      1218
      1150      1147      1218      1129      1155      1157      1129      1155      1158
      1129      1155      1159      1157      1155      1158      1157      1155      1159
      1158      1155      1159      1155      1159      1161      1155      1159      1162
      1155      1159      1163      1161      1159      1162      1161      1159      1163
      1162      1159      1163      1159      1163      1165      1159      1163      1166
      1159      1163      1167      1165      1163      1166      1165      1163      1167
      1166      1163      1167      1163      1167      1169      1163      1167      1170
      1163      1167      1171      1169      1167      1170      1169      1167      1171
      1170      1167      1171      1167      1171      1173      1167      1171      1174
      1167      1171      1175      1173      1171      1174      1173      1171      1175
      1174      1171      1175      1171      1175      1177      1171      1175      1178
      1171      1175      1179      1177      1175      1178      1177      1175      1179
      1178      1175      1179      1175      1179      1181      1175      1179      1182
      1181      1179      1182      1179      1182      1184      1179      1182      1185
      1184      1182      1185      1182      1185      1187      1182      1185      1188
      1182      1185      1189      1187      1185      1188      1187      1185      1189
      1188      1185      1189      1185      1189      1191      1185      1189      1192
      1185      1189      1193      1191      1189      1192      1191      1189      1193
      1192      1189      1193      1189      1193      1195      1189      1193      1196
      1189      1193      1197      1195      1193      1196      1195      1193      1197
      1196      1193      1197      1193      1197      1199      1193      1197      1200
      1193      1197      1201      1199      1197      1200      1199      1197      1201
      1200      1197      1201      1197      1201      1203      1197      1201      1204
      1197      1201      1205      1203      1201      1204      1203      1201      1205
      1204      1201      1205      1201      1205      1207      1201      1205      1208
      1201      1205      1209      1207      1205      1208      1207      1205      1209
      1208      1205      1209      1205      1209      1211      1205      1209      1212
      1205      1209      1213      1211      1209      1212      1211      1209      1213
      1212      1209      1213      1209      1213      1215      1209      1213      1216
      1209      1213      1217      1215      1213      1216      1215      1213      1217
      1216      1213      1217      1147      1218      1220      1147      1218      1221
      1147      1218      1222      1220      1218      1221      1220      1218      1222
      1221      1218      1222      1218      1222      1224      1218      1222      1225
      1218      1222      1226      1224      1222      1225      1224      1222      1226
      1225      1222      1226      1222      1226      1228      1222      1226      1229
      1222      1226      1230      1228      1226      1229      1228      1226      1230
      1229      1226      1230      1226      1230      1232      1226      1230      1233
      1226      1230      1234      1232      1230      1233      1232      1230      1234
      1233      1230      1234      1230      1234      1236      1230      1234      1237
      1230      1234      1238      1236      1234      1237      1236      1234      1238
      1237      1234      1238      1234      1238      1240      1234      1238      1241
      1234      1238      1242      1240      1238      1241      1240      1238      1242
      1241      1238      1242      1238      1242      1244      1238      1242      1245
      1238      1242      1246      1244      1242      1245      1244      1242      1246
      1245      1242      1246      1242      1246      1248      1242      1246      1249
      1242      1246      1250      1248      1246      1249      1248      1246      1250
      1249      1246      1250      1246      1250      1252      1246      1250      1253
      1246      1250      1254      1252      1250      1253      1252      1250      1254
      1253      1250      1254      1250      1254      1256      1250      1254      1257
      1250      1254      1258      1256      1254      1257      1256      1254      1258
      1257      1254      1258      1254      1258      1260      1254      1258      1261
      1254      1258      1262      1260      1258      1261      1260      1258      1262
      1261      1258      1262      1258      1262      1264      1258      1262      1265
      1258      1262      1266      1264      1262      1265      1264      1262      1266
      1265      1262      1266      1262      1266      1268      1262      1266      1269
      1262      1266      1270      1268      1266      1269      1268      1266      1270
      1269      1266      1270      1266      1270      1272      1266      1270      1273
      1266      1270      1274      1272      1270      1273      1272      1270      1274
      1273      1270      1274      1277      1275      1278      1277      1275      1279
      1277      1275      1280      1278      1275      1279      1278      1275      1280
      1279      1275      1280      1275      1280      1282      1275      1280      1283
      1275      1280      1284      1282      1280      1283      1282      1280      1284
      1283      1280      1284      1280      1284      1286      1280      1284      1287
      1280      1284      1296      1286      1284      1287      1286      1284      1296
      1287      1284      1296      1290      1288      1292      1290      1288      1294
      1290      1288      1296      1292      1288      1294      1292      1288      1296
      1294      1288      1296      1288      1294      1298      1284      1296      1288
      1294      1298      1300      1294      1298      1301      1294      1298      1302
      1300      1298      1301      1300      1298      1302      1301      1298      1302
      1298      1302      1304      1298      1302      1305      1298      1302      1319
      1304      1302      1305      1304      1302      1319      1305      1302      1319
      1302      1305      1307      1305      1307      1309      1305      1307      1311
      1309      1307      1311      1307      1311      1313      1307      1311      1314
      1307      1311      1337      1313      1311      1314      1313      1311      1337
      1314      1311      1337      1302      1319      1321      1302      1319      1322
      1302      1319      1323      1321      1319      1322      1321      1319      1323
      1322      1319      1323      1319      1323      1325      1323      1325      1327
      1323      1325      1329      1327      1325      1329      1325      1329      1331
      1325      1329      1332      1325      1329      1400      1331      1329      1332
      1331      1329      1400      1332      1329      1400      1311      1337      1339
      1311      1337      1340      1311      1337      1341      1339      1337      1340
      1339      1337      1341      1340      1337      1341      1337      1341      1343
      1337      1341      1344      1337      1341      1345      1343      1341      1344
      1343      1341      1345      1344      1341      1345      1341      1345      1347
      1341      1345      1348      1341      1345      1349      1347      1345      1348
      1347      1345      1349      1348      1345      1349      1345      1349      1351
      1345      1349      1352      1345      1349      1353      1351      1349      1352
      1351      1349      1353      1352      1349      1353      1349      1353      1355
      1349      1353      1356      1349      1353      1357      1355      1353      1356
      1355      1353      1357      1356      1353      1357      1353      1357      1359
      1353      1357      1360      1353      1357      1361      1359      1357      1360
      1359      1357      1361      1360      1357      1361      1357      1361      1363
      1357      1361      1364      1363      1361      1364      1361      1364      1366
      1361      1364      1367      1366      1364      1367      1364      1367      1369
      1364      1367      1370      1364      1367      1371      1369      1367      1370
      1369      1367      1371      1370      1367      1371      1367      1371      1373
      1367      1371      1374      1367      1371      1375      1373      1371      1374
      1373      1371      1375      1374      1371      1375      1371      1375      1377
      1371      1375      1378      1371      1375      1379      1377      1375      1378
      1377      1375      1379      1378      1375      1379      1375      1379      1381
      1375      1379      1382      1375      1379      1383      1381      1379      1382
      1381      1379      1383      1382      1379      1383      1379      1383      1385
      1379      1383      1386      1379      1383      1387      1385      1383      1386
      1385      1383      1387      1386      1383      1387      1383      1387      1389
      1383      1387      1390      1383      1387      1391      1389      1387      1390
      1389      1387      1391      1390      1387      1391      1387      1391      1393
      1387      1391      1394      1387      1391      1395      1393      1391      1394
      1393      1391      1395      1394      1391      1395      1391      1395      1397
      1391      1395      1398      1391      1395      1399      1397      1395      1398
      1397      1395      1399      1398      1395      1399      1329      1400      1402
      1329      1400      1403      1329      1400      1404      1402      1400      1403
      1402      1400      1404      1403      1400      1404      1400      1404      1406
      1400      1404      1407      1400      1404      1408      1406      1404      1407
      1406      1404      1408      1407      1404      1408      1404      1408      1410
      1404      1408      1411      1404      1408      1412      1410      1408      1411
      1410      1408      1412      1411      1408      1412      1408      1412      1414
      1408      1412      1415      1408      1412      1416      1414      1412      1415
      1414      1412      1416      1415      1412      1416      1412      1416      1418
      1412      1416      1419      1412      1416      1420      1418      1416      1419
      1418      1416      1420      1419      1416      1420      1416      1420      1422
      1416      1420      1423      1416      1420      1424      1422      1420      1423
      1422      1420      1424      1423      1420      1424      1420      1424      1426
      1420      1424      1427      1420      1424      1428      1426      1424      1427
      1426      1424      1428      1427      1424      1428      1424      1428      1430
      1424      1428      1431      1424      1428      1432      1430      1428      1431
      1430      1428      1432      1431      1428      1432      1428      1432      1434
      1428      1432      1435      1428      1432      1436      1434      1432      1435
      1434      1432      1436      1435      1432      1436      1432      1436      1438
      1432      1436      1439      1432      1436      1440      1438      1436      1439
      1438      1436      1440      1439      1436      1440      1436      1440      1442
      1436      1440      1443      1436      1440      1444      1442      1440      1443
      1442      1440      1444      1443      1440      1444      1440      1444      1446
      1440      1444      1447      1440      1444      1448      1446      1444      1447
      1446      1444      1448      1447      1444      1448      1444      1448      1450
      1444      1448      1451      1444      1448      1452      1450      1448      1451
      1450      1448      1452      1451      1448      1452      1448      1452      1454
      1448      1452      1455      1448      1452      1456      1454      1452      1455
      1454      1452      1456      1455      1452      1456      1459      1457      1460
      1459      1457      1461      1459      1457      1462      1460      1457      1461
      1460      1457      1462      1461      1457      1462      1457      1462      1464
      1457      1462      1465      1457      1462      1466      1464      1462      1465
      1464      1462      1466      1465      1462      1466      1462      1466      1468
      1462      1466      1469      1462      1466      1478      1468      1466      1469
      1468      1466      1478      1469      1466      1478      1472      1470      1474
      1472      1470      1476      1472      1470      1478      1474      1470      1476
      1474      1470      1478      1476      1470      1478      1470      1476      1480
      1466      1478      1470      1476      1480      1482      1476      1480      1483
      1476      1480      1484      1482      1480      1483      1482      1480      1484
      1483      1480      1484      1480      1484      1486      1480      1484      1487
      1480      1484      1501      1486      1484      1487      1486      1484      1501
      1487      1484      1501      1484      1487      1489      1487      1489      1491
      1487      1489      1493      1491      1489      1493      1489      1493      1495
      1489      1493      1496      1489      1493      1519      1495      1493      1496
      1495      1493      1519      1496      1493      1519      1484      1501      1503
      1484      1501      1504      1484      1501      1505      1503      1501      1504
      1503      1501      1505      1504      1501      1505      1501      1505      1507
      1505      1507      1509      1505      1507      1511      1509      1507      1511
      1507      1511      1513      1507      1511      1514      1507      1511      1582
      1513      1511      1514      1513      1511      1582      1514      1511      1582
      1493      1519      1521      1493      1519      1522      1493      1519      1523
      1521      1519      1522      1521      1519      1523      1522      1519      1523
      1519      1523      1525      1519      1523      1526      1519      1523      1527
      1525      1523      1526      1525      1523      1527      1526      1523      1527
      1523      1527      1529      1523      1527      1530      1523      1527      1531
      1529      1527      1530      1529      1527      1531      1530      1527      1531
      1527      1531      1533      1527      1531      1534      1527      1531      1535
      1533      1531      1534      1533      1531      1535      1534      1531      1535
      1531      1535      1537      1531      1535      1538      1531      1535      1539
      1537      1535      1538      1537      1535      1539      1538      1535      1539
      1535      1539      1541      1535      1539      1542      1535      1539      1543
      1541      1539      1542      1541      1539      1543      1542      1539      1543
      1539      1543      1545      1539      1543      1546      1545      1543      1546
      1543      1546      1548      1543      1546      1549      1548      1546      1549
      1546      1549      1551      1546      1549      1552      1546      1549      1553
      1551      1549      1552      1551      1549      1553      1552      1549      1553
      1549      1553      1555      1549      1553      1556      1549      1553      1557
      1555      1553      1556      1555      1553      1557      1556      1553      1557
      1553      1557      1559      1553      1557      1560      1553      1557      1561
      1559      1557      1560      1559      1557      1561      1560      1557      1561
      1557      1561      1563      1557      1561      1564      1557      1561      1565
      1563      1561      1564      1563      1561      1565      1564      1561      1565
      1561      1565      1567      1561      1565      1568      1561      1565      1569
      1567      1565      1568      1567      1565      1569      1568      1565      1569
      1565      1569      1571      1565      1569      1572      1565      1569      1573
      1571      1569      1572      1571      1569      1573      1572      1569      1573
      1569      1573      1575      1569      1573      1576      1569      1573      1577
      1575      1573      1576      1575      1573      1577      1576      1573      1577
      1573      1577      1579      1573      1577      1580      1573      1577      1581
      1579      1577      1580      1579      1577      1581      1580      1577      1581
      1511      1582      1584      1511      1582      1585      1511      1582      1586
      1584      1582      1585      1584      1582      1586      1585      1582      1586
      1582      1586      1588      1582      1586      1589      1582      1586      1590
      1588      1586      1589      1588      1586      1590      1589      1586      1590
      1586      1590      1592      1586      1590      1593      1586      1590      1594
      1592      1590      1593      1592      1590      1594      1593      1590      1594
      1590      1594      1596      1590      1594      1597      1590      1594      1598
      1596      1594      1597      1596      1594      1598      1597      1594      1598
      1594      1598      1600      1594      1598      1601      1594      1598      1602
      1600      1598      1601      1600      1598      1602      1601      1598      1602
      1598      1602      1604      1598      1602      1605      1598      1602      1606
      1604      1602      1605      1604      1602      1606      1605      1602      1606
      1602      1606      1608      1602      1606      1609      1602      1606      1610
      1608      1606      1609      1608      1606      1610      1609      1606      1610
      1606      1610      1612      1606      1610      1613      1606      1610      1614
      1612      1610      1613      1612      1610      1614      1613      1610      1614
      1610      1614      1616      1610      1614      1617      1610      1614      1618
      1616      1614      1617      1616      1614      1618      1617      1614      1618
      1614      1618      1620      1614      1618      1621      1614      1618      1622
      1620      1618      1621      1620      1618      1622      1621      1618      1622
      1618      1622      1624      1618      1622      1625      1618      1622      1626
      1624      1622      1625      1624      1622      1626      1625      1622      1626
      1622      1626      1628      1622      1626      1629      1622      1626      1630
      1628      1626      1629      1628      1626      1630      1629      1626      1630
      1626      1630      1632      1626      1630      1633      1626      1630      1634
      1632      1630      1633      1632      1630      1634      1633      1630      1634
      1630      1634      1636      1630      1634      1637      1630      1634      1638
      1636      1634      1637      1636      1634      1638      1637      1634      1638
      1641      1639      1642      1641      1639      1643      1641      1639      1644
      1642      1639      1643      1642      1639      1644      1643      1639      1644
      1639      1644      1646      1639      1644      1647      1639      1644      1648
      1646      1644      1647      1646      1644      1648      1647      1644      1648
      1644      1648      1650      1644      1648      1651      1644      1648      1660
      1650      1648      1651      1650      1648      1660      1651      1648      1660
      1654      1652      1656      1654      1652      1658      1654      1652      1660
      1656      1652      1658      1656      1652      1660      1658      1652      1660
      1652      1658      1662      1648      1660      1652      1658      1662      1664
      1658      1662      1665      1658      1662      1666      1664      1662      1665
      1664      1662      1666      1665      1662      1666      1662      1666      1668
      1662      1666      1669      1662      1666      1683      1668      1666      1669
      1668      1666      1683      1669      1666      1683      1666      1669      1671
      1669      1671      1673      1669      1671      1675      1673      1671      1675
      1671      1675      1677      1671      1675      1678      1671      1675      1701
      1677      1675      1678      1677      1675      1701      1678      1675      1701
      1666      1683      1685      1666      1683      1686      1666      1683      1687
      1685      1683      1686      1685      1683      1687      1686      1683      1687
      1683      1687      1689      1687      1689      1691      1687      1689      1693
      1691      1689      1693      1689      1693      1695      1689      1693      1696
      1689      1693      1764      1695      1693      1696      1695      1693      1764
      1696      1693      1764      1675      1701      1703      1675      1701      1704
      1675      1701      1705      1703      1701      1704      1703      1701      1705
      1704      1701      1705      1701      1705      1707      1701      1705      1708
      1701      1705      1709      1707      1705      1708      1707      1705      1709
      1708      1705      1709      1705      1709      1711      1705      1709      1712
      1705      1709      1713      1711      1709      1712      1711      1709      1713
      1712      1709      1713      1709      1713      1715      1709      1713      1716
      1709      1713      1717      1715      1713      1716      1715      1713      1717
      1716      1713      1717      1713      1717      1719      1713      1717      1720
      1713      1717      1721      1719      1717      1720      1719      1717      1721
      1720      1717      1721      1717      1721      1723      1717      1721      1724
      1717      1721      1725      1723      1721      1724      1723      1721      1725
      1724      1721      1725      1721      1725      1727      1721      1725      1728
      1727      1725      1728      1725      1728      1730      1725      1728      1731
      1730      1728      1731      1728      1731      1733      1728      1731      1734
      1728      1731      1735      1733      1731      1734      1733      1731      1735
      1734      1731      1735      1731      1735      1737      1731      1735      1738
      1731      1735      1739      1737      1735      1738      1737      1735      1739
      1738      1735      1739      1735      1739      1741      1735      1739      1742
      1735      1739      1743      1741      1739      1742      1741      1739      1743
      1742      1739      1743      1739      1743      1745      1739      1743      1746
      1739      1743      1747      1745      1743      1746      1745      1743      1747
      1746      1743      1747      1743      1747      1749      1743      1747      1750
      1743      1747      1751      1749      1747      1750      1749      1747      1751
      1750      1747      1751      1747      1751      1753      1747      1751      1754
      1747      1751      1755      1753      1751      1754      1753      1751      1755
      1754      1751      1755      1751      1755      1757      1751      1755      1758
      1751      1755      1759      1757      1755      1758      1757      1755      1759
      1758      1755      1759      1755      1759      1761      1755      1759      1762
      1755      1759      1763      1761      1759      1762      1761      1759      1763
      1762      1759      1763      1693      1764      1766      1693      1764      1767
      1693      1764      1768      1766      1764      1767      1766      1764      1768
      1767      1764      1768      1764      1768      1770      1764      1768      1771
      1764      1768      1772      1770      1768      1771      1770      1768      1772
      1771      1768      1772      1768      1772      1774      1768      1772      1775
      1768      1772      1776      1774      1772      1775      1774      1772      1776
      1775      1772      1776      1772      1776      1778      1772      1776      1779
      1772      1776      1780      1778      1776      1779      1778      1776      1780
      1779      1776      1780      1776      1780      1782      1776      1780      1783
      1776      1780      1784      1782      1780      1783      1782      1780      1784
      1783      1780      1784      1780      1784      1786      1780      1784      1787
      1780      1784      1788      1786      1784      1787      1786      1784      1788
      1787      1784      1788      1784      1788      1790      1784      1788      1791
      1784      1788      1792      1790      1788      1791      1790      1788      1792
      1791      1788      1792      1788      1792      1794      1788      1792      1795
      1788      1792      1796      1794      1792      1795      1794      1792      1796
      1795      1792      1796      1792      1796      1798      1792      1796      1799
      1792      1796      1800      1798      1796      1799      1798      1796      1800
      1799      1796      1800      1796      1800      1802      1796      1800      1803
      1796      1800      1804      1802      1800      1803      1802      1800      1804
      1803      1800      1804      1800      1804      1806      1800      1804      1807
      1800      1804      1808      1806      1804      1807      1806      1804      1808
      1807      1804      1808      1804      1808      1810      1804      1808      1811
      1804      1808      1812      1810      1808      1811      1810      1808      1812
      1811      1808      1812      1808      1812      1814      1808      1812      1815
      1808      1812      1816      1814      1812      1815      1814      1812      1816
      1815      1812      1816      1812      1816      1818      1812      1816      1819
      1812      1816      1820      1818      1816      1819      1818      1816      1820
      1819      1816      1820      1823      1821      1824      1823      1821      1825
      1823      1821      1826      1824      1821      1825      1824      1821      1826
      1825      1821      1826      1821      1826      1828      1821      1826      1829
      1821      1826      1830      1828      1826      1829      1828      1826      1830
      1829      1826      1830      1826      1830      1832      1826      1830      1833
      1826      1830      1842      1832      1830      1833      1832      1830      1842
      1833      1830      1842      1836      1834      1838      1836      1834      1840
      1836      1834      1842      1838      1834      1840      1838      1834      1842
      1840      1834      1842      1834      1840      1844      1830      1842      1834
      1840      1844      1846      1840      1844      1847      1840      1844      1848
      1846      1844      1847      1846      1844      1848      1847      1844      1848
      1844      1848      1850      1844      1848      1851      1844      1848      1865
      1850      1848      1851      1850      1848      1865      1851      1848      1865
      1848      1851      1853      1851      1853      1855      1851      1853      1857
      1855      1853      1857      1853      1857      1859      1853      1857      1860
      1853      1857      1883      1859      1857      1860      1859      1857      1883
      1860      1857      1883      1848      1865      1867      1848      1865      1868
      1848      1865      1869      1867      1865      1868      1867      1865      1869
      1868      1865      1869      1865      1869      1871      1869      1871      1873
      1869      1871      1875      1873      1871      1875      1871      1875      1877
      1871      1875      1878      1871      1875      1946      1877      1875      1878
      1877      1875      1946      1878      1875      1946      1857      1883      1885
      1857      1883      1886      1857      1883      1887      1885      1883      1886
      1885      1883      1887      1886      1883      1887      1883      1887      1889
      1883      1887      1890      1883      1887      1891      1889      1887      1890
      1889      1887      1891      1890      1887      1891      1887      1891      1893
      1887      1891      1894      1887      1891      1895      1893      1891      1894
      1893      1891      1895      1894      1891      1895      1891      1895      1897
      1891      1895      1898      1891      1895      1899      1897      1895      1898
      1897      1895      1899      1898      1895      1899      1895      1899      1901
      1895      1899      1902      1895      1899      1903      1901      1899      1902
      1901      1899      1903      1902      1899      1903      1899      1903      1905
      1899      1903      1906      1899      1903      1907      1905      1903      1906
      1905      1903      1907      1906      1903      1907      1903      1907      1909
      1903      1907      1910      1909      1907      1910      1907      1910      1912
      1907      1910      1913      1912      1910      1913      1910      1913      1915
      1910      1913      1916      1910      1913      1917      1915      1913      1916
      1915      1913      1917      1916      1913      1917      1913      1917      1919
      1913      1917      1920      1913      1917      1921      1919      1917      1920
      1919      1917      1921      1920      1917      1921      1917      1921      1923
      1917      1921      1924      1917      1921      1925      1923      1921      1924
      1923      1921      1925      1924      1921      1925      1921      1925      1927
      1921      1925      1928      1921      1925      1929      1927      1925      1928
      1927      1925      1929      1928      1925      1929      1925      1929      1931
      1925      1929      1932      1925      1929      1933      1931      1929      1932
      1931      1929      1933      1932      1929      1933      1929      1933      1935
      1929      1933      1936      1929      1933      1937      1935      1933      1936
      1935      1933      1937      1936      1933      1937      1933      1937      1939
      1933      1937      1940      1933      1937      1941      1939      1937      1940
      1939      1937      1941      1940      1937      1941      1937      1941      1943
      1937      1941      1944      1937      1941      1945      1943      1941      1944
      1943      1941      1945      1944      1941      1945      1875      1946      1948
      1875      1946      1949      1875      1946      1950      1948      1946      1949
      1948      1946      1950      1949      1946      1950      1946      1950      1952
      1946      1950      1953      1946      1950      1954      1952      1950      1953
      1952      1950      1954      1953      1950      1954      1950      1954      1956
      1950      1954      1957      1950      1954      1958      1956      1954      1957
      1956      1954      1958      1957      1954      1958      1954      1958      1960
      1954      1958      1961      1954      1958      1962      1960      1958      1961
      1960      1958      1962      1961      1958      1962      1958      1962      1964
      1958      1962      1965      1958      1962      1966      1964      1962      1965
      1964      1962      1966      1965      1962      1966      1962      1966      1968
      1962      1966      1969      1962      1966      1970      1968      1966      1969
      1968      1966      1970      1969      1966      1970      1966      1970      1972
      1966      1970      1973      1966      1970      1974      1972      1970      1973
      1972      1970      1974      1973      1970      1974      1970      1974      1976
      1970      1974      1977      1970      1974      1978      1976      1974      1977
      1976      1974      1978      1977      1974      1978      1974      1978      1980
      1974      1978      1981      1974      1978      1982      1980      1978      1981
      1980      1978      1982      1981      1978      1982      1978      1982      1984
      1978      1982      1985      1978      1982      1986      1984      1982      1985
      1984      1982      1986      1985      1982      1986      1982      1986      1988
      1982      1986      1989      1982      1986      1990      1988      1986      1989
      1988      1986      1990      1989      1986      1990      1986      1990      1992
      1986      1990      1993      1986      1990      1994      1992      1990      1993
      1992      1990      1994      1993      1990      1994      1990      1994      1996
      1990      1994      1997      1990      1994      1998      1996      1994      1997
      1996      1994      1998      1997      1994      1998      1994      1998      2000
      1994      1998      2001      1994      1998      2002      2000      1998      2001
      2000      1998      2002      2001      1998      2002      2005      2003      2006
      2005      2003      2007      2005      2003      2008      2006      2003      2007
      2006      2003      2008      2007      2003      2008      2003      2008      2010
      2003      2008      2011      2003      2008      2012      2010      2008      2011
      2010      2008      2012      2011      2008      2012      2008      2012      2014
      2008      2012      2015      2008      2012      2024      2014      2012      2015
      2014      2012      2024      2015      2012      2024      2018      2016      2020
      2018      2016      2022      2018      2016      2024      2020      2016      2022
      2020      2016      2024      2022      2016      2024      2016      2022      2026
      2012      2024      2016      2022      2026      2028      2022      2026      2029
      2022      2026      2030      2028      2026      2029      2028      2026      2030
      2029      2026      2030      2026      2030      2032      2026      2030      2033
      2026      2030      2047      2032      2030      2033      2032      2030      2047
      2033      2030      2047      2030      2033      2035      2033      2035      2037
      2033      2035      2039      2037      2035      2039      2035      2039      2041
      2035      2039      2042      2035      2039      2065      2041      2039      2042
      2041      2039      2065      2042      2039      2065      2030      2047      2049
      2030      2047      2050      2030      2047      2051      2049      2047      2050
      2049      2047      2051      2050      2047      2051      2047      2051      2053
      2051      2053      2055      2051      2053      2057      2055      2053      2057
      2053      2057      2059      2053      2057      2060      2053      2057      2128
      2059      2057      2060      2059      2057      2128      2060      2057      2128
      2039      2065      2067      2039      2065      2068      2039      2065      2069
      2067      2065      2068      2067      2065      2069      2068      2065      2069
      2065      2069      2071      2065      2069      2072      2065      2069      2073
      2071      2069      2072      2071      2069      2073      2072      2069      2073
      2069      2073      2075      2069      2073      2076      2069      2073      2077
      2075      2073      2076      2075      2073      2077      2076      2073      2077
      2073      2077      2079      2073      2077      2080      2073      2077      2081
      2079      2077      2080      2079      2077      2081      2080      2077      2081
      2077      2081      2083      2077      2081      2084      2077      2081      2085
      2083      2081      2084      2083      2081      2085      2084      2081      2085
      2081      2085      2087      2081      2085      2088      2081      2085      2089
      2087      2085      2088      2087      2085      2089      2088      2085      2089
      2085      2089      2091      2085      2089      2092      2091      2089      2092
      2089      2092      2094      2089      2092      2095      2094      2092      2095
      2092      2095      2097      2092      2095      2098      2092      2095      2099
      2097      2095      2098      2097      2095      2099      2098      2095      2099
      2095      2099      2101      2095      2099      2102      2095      2099      2103
      2101      2099      2102      2101      2099      2103      2102      2099      2103
      2099      2103      2105      2099      2103      2106      2099      2103      2107
      2105      2103      2106      2105      2103      2107      2106      2103      2107
      2103      2107      2109      2103      2107      2110      2103      2107      2111
      2109      2107      2110      2109      2107      2111      2110      2107      2111
      2107      2111      2113      2107      2111      2114      2107      2111      2115
      2113      2111      2114      2113      2111      2115      2114      2111      2115
      2111      2115      2117      2111      2115      2118      2111      2115      2119
      2117      2115      2118      2117      2115      2119      2118      2115      2119
      2115      2119      2121      2115      2119      2122      2115      2119      2123
      2121      2119      2122      2121      2119      2123      2122      2119      2123
      2119      2123      2125      2119      2123      2126      2119      2123      2127
      2125      2123      2126      2125      2123      2127      2126      2123      2127
      2057      2128      2130      2057      2128      2131      2057      2128      2132
      2130      2128      2131      2130      2128      2132      2131      2128      2132
      2128      2132      2134      2128      2132      2135      2128      2132      2136
      2134      2132      2135      2134      2132      2136      2135      2132      2136
      2132      2136      2138      2132      2136      2139      2132      2136      2140
      2138      2136      2139      2138      2136      2140      2139      2136      2140
      2136      2140      2142      2136      2140      2143      2136      2140      2144
      2142      2140      2143      2142      2140      2144      2143      2140      2144
      2140      2144      2146      2140      2144      2147      2140      2144      2148
      2146      2144      2147      2146      2144      2148      2147      2144      2148
      2144      2148      2150      2144      2148      2151      2144      2148      2152
      2150      2148      2151      2150      2148      2152      2151      2148      2152
      2148      2152      2154      2148      2152      2155      2148      2152      2156
      2154      2152      2155      2154      2152      2156      2155      2152      2156
      2152      2156      2158      2152      2156      2159      2152      2156      2160
      2158      2156      2159      2158      2156      2160      2159      2156      2160
      2156      2160      2162      2156      2160      2163      2156      2160      2164
      2162      2160      2163      2162      2160      2164      2163      2160      2164
      2160      2164      2166      2160      2164      2167      2160      2164      2168
      2166      2164      2167      2166      2164      2168      2167      2164      2168
      2164      2168      2170      2164      2168      2171      2164      2168      2172
      2170      2168      2171      2170      2168      2172      2171      2168      2172
      2168      2172      2174      2168      2172      2175      2168      2172      2176
      2174      2172      2175      2174      2172      2176      2175      2172      2176
      2172      2176      2178      2172      2176      2179      2172      2176      2180
      2178      2176      2179      2178      2176      2180      2179      2176      2180
      2176      2180      2182      2176      2180      2183      2176      2180      2184
      2182      2180      2183      2182      2180      2184      2183      2180      2184
      2187      2185      2188      2187      2185      2189      2187      2185      2190
      2188      2185      2189      2188      2185      2190      2189      2185      2190
      2185      2190      2192      2185      2190      2193      2185      2190      2194
      2192      2190      2193      2192      2190      2194      2193      2190      2194
      2190      2194      2196      2190      2194      2197      2190      2194      2206
      2196      2194      2197      2196      2194      2206      2197      2194      2206
      2200      2198      2202      2200      2198      2204      2200      2198      2206
      2202      2198      2204      2202      2198      2206      2204      2198      2206
      2198      2204      2208      2194      2206      2198      2204      2208      2210
      2204      2208      2211      2204      2208      2212      2210      2208      2211
      2210      2208      2212      2211      2208      2212      2208      2212      2214
      2208      2212      2215      2208      2212      2229      2214      2212      2215
      2214      2212      2229      2215      2212      2229      2212      2215      2217
      2215      2217      2219      2215      2217      2221      2219      2217      2221
      2217      2221      2223      2217      2221      2224      2217      2221      2247
      2223      2221      2224      2223      2221      2247      2224      2221      2247
      2212      2229      2231      2212      2229      2232      2212      2229      2233
      2231      2229      2232      2231      2229      2233      2232      2229      2233
      2229      2233      2235      2233      2235      2237      2233      2235      2239
      2237      2235      2239      2235      2239      2241      2235      2239      2242
      2235      2239      2310      2241      2239      2242      2241      2239      2310
      2242      2239      2310      2221      2247      2249      2221      2247      2250
      2221      2247      2251      2249      2247      2250      2249      2247      2251
      2250      2247      2251      2247      2251      2253      2247      2251      2254
      2247      2251      2255      2253      2251      2254      2253      2251      2255
      2254      2251      2255      2251      2255      2257      2251      2255      2258
      2251      2255      2259      2257      2255      2258      2257      2255      2259
      2258      2255      2259      2255      2259      2261      2255      2259      2262
      2255      2259      2263      2261      2259      2262      2261      2259      2263
      2262      2259      2263      2259      2263      2265      2259      2263      2266
      2259      2263      2267      2265      2263      2266      2265      2263      2267
      2266      2263      2267      2263      2267      2269      2263      2267      2270
      2263      2267      2271      2269      2267      2270      2269      2267      2271
      2270      2267      2271      2267      2271      2273      2267      2271      2274
      2273      2271      2274      2271      2274      2276      2271      2274      2277
      2276      2274      2277      2274      2277      2279      2274      2277      2280
      2274      2277      2281      2279      2277      2280      2279      2277      2281
      2280      2277      2281      2277      2281      2283      2277      2281      2284
      2277      2281      2285      2283      2281      2284      2283      2281      2285
      2284      2281      2285      2281      2285      2287      2281      2285      2288
      2281      2285      2289      2287      2285      2288      2287      2285      2289
      2288      2285      2289      2285      2289      2291      2285      2289      2292
      2285      2289      2293      2291      2289      2292      2291      2289      2293
      2292      2289      2293      2289      2293      2295      2289      2293      2296
      2289      2293      2297      2295      2293      2296      2295      2293      2297
      2296      2293      2297      2293      2297      2299      2293      2297      2300
      2293      2297      2301      2299      2297      2300      2299      2297      2301
      2300      2297      2301      2297      2301      2303      2297      2301      2304
      2297      2301      2305      2303      2301      2304      2303      2301      2305
      2304      2301      2305      2301      2305      2307      2301      2305      2308
      2301      2305      2309      2307      2305      2308      2307      2305      2309
      2308      2305      2309      2239      2310      2312      2239      2310      2313
      2239      2310      2314      2312      2310      2313      2312      2310      2314
      2313      2310      2314      2310      2314      2316      2310      2314      2317
      2310      2314      2318      2316      2314      2317      2316      2314      2318
      2317      2314      2318      2314      2318      2320      2314      2318      2321
      2314      2318      2322      2320      2318      2321      2320      2318      2322
      2321      2318      2322      2318      2322      2324      2318      2322      2325
      2318      2322      2326      2324      2322      2325      2324      2322      2326
      2325      2322      2326      2322      2326      2328      2322      2326      2329
      2322      2326      2330      2328      2326      2329      2328      2326      2330
      2329      2326      2330      2326      2330      2332      2326      2330      2333
      2326      2330      2334      2332      2330      2333      2332      2330      2334
      2333      2330      2334      2330      2334      2336      2330      2334      2337
      2330      2334      2338      2336      2334      2337      2336      2334      2338
      2337      2334      2338      2334      2338      2340      2334      2338      2341
      2334      2338      2342      2340      2338      2341      2340      2338      2342
      2341      2338      2342      2338      2342      2344      2338      2342      2345
      2338      2342      2346      2344      2342      2345      2344      2342      2346
      2345      2342      2346      2342      2346      2348      2342      2346      2349
      2342      2346      2350      2348      2346      2349      2348      2346      2350
      2349      2346      2350      2346      2350      2352      2346      2350      2353
      2346      2350      2354      2352      2350      2353      2352      2350      2354
      2353      2350      2354      2350      2354      2356      2350      2354      2357
      2350      2354      2358      2356      2354      2357      2356      2354      2358
      2357      2354      2358      2354      2358      2360      2354      2358      2361
      2354      2358      2362      2360      2358      2361      2360      2358      2362
      2361      2358      2362      2358      2362      2364      2358      2362      2365
      2358      2362      2366      2364      2362      2365      2364      2362      2366
      2365      2362      2366      2369      2367      2370      2369      2367      2371
      2369      2367      2372      2370      2367      2371      2370      2367      2372
      2371      2367      2372      2367      2372      2374      2367      2372      2375
      2367      2372      2376      2374      2372      2375      2374      2372      2376
      2375      2372      2376      2372      2376      2378      2372      2376      2379
      2372      2376      2388      2378      2376      2379      2378      2376      2388
      2379      2376      2388      2382      2380      2384      2382      2380      2386
      2382      2380      2388      2384      2380      2386      2384      2380      2388
      2386      2380      2388      2380      2386      2390      2376      2388      2380
      2386      2390      2392      2386      2390      2393      2386      2390      2394
      2392      2390      2393      2392      2390      2394      2393      2390      2394
      2390      2394      2396      2390      2394      2397      2390      2394      2411
      2396      2394      2397      2396      2394      2411      2397      2394      2411
      2394      2397      2399      2397      2399      2401      2397      2399      2403
      2401      2399      2403      2399      2403      2405      2399      2403      2406
      2399      2403      2429      2405      2403      2406      2405      2403      2429
      2406      2403      2429      2394      2411      2413      2394      2411      2414
      2394      2411      2415      2413      2411      2414      2413      2411      2415
      2414      2411      2415      2411      2415      2417      2415      2417      2419
      2415      2417      2421      2419      2417      2421      2417      2421      2423
      2417      2421      2424      2417      2421      2492      2423      2421      2424
      2423      2421      2492      2424      2421      2492      2403      2429      2431
      2403      2429      2432      2403      2429      2433      2431      2429      2432
      2431      2429      2433      2432      2429      2433      2429      2433      2435
      2429      2433      2436      2429      2433      2437      2435      2433      2436
      2435      2433      2437      2436      2433      2437      2433      2437      2439
      2433      2437      2440      2433      2437      2441      2439      2437      2440
      2439      2437      2441      2440      2437      2441      2437      2441      2443
      2437      2441      2444      2437      2441      2445      2443      2441      2444
      2443      2441      2445      2444      2441      2445      2441      2445      2447
      2441      2445      2448      2441      2445      2449      2447      2445      2448
      2447      2445      2449      2448      2445      2449      2445      2449      2451
      2445      2449      2452      2445      2449      2453      2451      2449      2452
      2451      2449      2453      2452      2449      2453      2449      2453      2455
      2449      2453      2456      2455      2453      2456      2453      2456      2458
      2453      2456      2459      2458      2456      2459      2456      2459      2461
      2456      2459      2462      2456      2459      2463      2461      2459      2462
      2461      2459      2463      2462      2459      2463      2459      2463      2465
      2459      2463      2466      2459      2463      2467      2465      2463      2466
      2465      2463      2467      2466      2463      2467      2463      2467      2469
      2463      2467      2470      2463      2467      2471      2469      2467      2470
      2469      2467      2471      2470      2467      2471      2467      2471      2473
      2467      2471      2474      2467      2471      2475      2473      2471      2474
      2473      2471      2475      2474      2471      2475      2471      2475      2477
      2471      2475      2478      2471      2475      2479      2477      2475      2478
      2477      2475      2479      2478      2475      2479      2475      2479      2481
      2475      2479      2482      2475      2479      2483      2481      2479      2482
      2481      2479      2483      2482      2479      2483      2479      2483      2485
      2479      2483      2486      2479      2483      2487      2485      2483      2486
      2485      2483      2487      2486      2483      2487      2483      2487      2489
      2483      2487      2490      2483      2487      2491      2489      2487      2490
      2489      2487      2491      2490      2487      2491      2421      2492      2494
      2421      2492      2495      2421      2492      2496      2494      2492      2495
      2494      2492      2496      2495      2492      2496      2492      2496      2498
      2492      2496      2499      2492      2496      2500      2498      2496      2499
      2498      2496      2500      2499      2496      2500      2496      2500      2502
      2496      2500      2503      2496      2500      2504      2502      2500      2503
      2502      2500      2504      2503      2500      2504      2500      2504      2506
      2500      2504      2507      2500      2504      2508      2506      2504      2507
      2506      2504      2508      2507      2504      2508      2504      2508      2510
      2504      2508      2511      2504      2508      2512      2510      2508      2511
      2510      2508      2512      2511      2508      2512      2508      2512      2514
      2508      2512      2515      2508      2512      2516      2514      2512      2515
      2514      2512      2516      2515      2512      2516      2512      2516      2518
      2512      2516      2519      2512      2516      2520      2518      2516      2519
      2518      2516      2520      2519      2516      2520      2516      2520      2522
      2516      2520      2523      2516      2520      2524      2522      2520      2523
      2522      2520      2524      2523      2520      2524      2520      2524      2526
      2520      2524      2527      2520      2524      2528      2526      2524      2527
      2526      2524      2528      2527      2524      2528      2524      2528      2530
      2524      2528      2531      2524      2528      2532      2530      2528      2531
      2530      2528      2532      2531      2528      2532      2528      2532      2534
      2528      2532      2535      2528      2532      2536      2534      2532      2535
      2534      2532      2536      2535      2532      2536      2532      2536      2538
      2532      2536      2539      2532      2536      2540      2538      2536      2539
      2538      2536      2540      2539      2536      2540      2536      2540      2542
      2536      2540      2543      2536      2540      2544      2542      2540      2543
      2542      2540      2544      2543      2540      2544      2540      2544      2546
      2540      2544      2547      2540      2544      2548      2546      2544      2547
      2546      2544      2548      2547      2544      2548      2551      2549      2552
      2551      2549      2553      2551      2549      2554      2552      2549      2553
      2552      2549      2554      2553      2549      2554      2549      2554      2556
      2549      2554      2557      2549      2554      2558      2556      2554      2557
      2556      2554      2558      2557      2554      2558      2554      2558      2560
      2554      2558      2561      2554      2558      2570      2560      2558      2561
      2560      2558      2570      2561      2558      2570      2564      2562      2566
      2564      2562      2568      2564      2562      2570      2566      2562      2568
      2566      2562      2570      2568      2562      2570      2562      2568      2572
      2558      2570      2562      2568      2572      2574      2568      2572      2575
      2568      2572      2576      2574      2572      2575      2574      2572      2576
      2575      2572      2576      2572      2576      2578      2572      2576      2579
      2572      2576      2593      2578      2576      2579      2578      2576      2593
      2579      2576      2593      2576      2579      2581      2579      2581      2583
      2579      2581      2585      2583      2581      2585      2581      2585      2587
      2581      2585      2588      2581      2585      2611      2587      2585      2588
      2587      2585      2611      2588      2585      2611      2576      2593      2595
      2576      2593      2596      2576      2593      2597      2595      2593      2596
      2595      2593      2597      2596      2593      2597      2593      2597      2599
      2597      2599      2601      2597      2599      2603      2601      2599      2603
      2599      2603      2605      2599      2603      2606      2599      2603      2674
      2605      2603      2606      2605      2603      2674      2606      2603      2674
      2585      2611      2613      2585      2611      2614      2585      2611      2615
      2613      2611      2614      2613      2611      2615      2614      2611      2615
      2611      2615      2617      2611      2615      2618      2611      2615      2619
      2617      2615      2618      2617      2615      2619      2618      2615      2619
      2615      2619      2621      2615      2619      2622      2615      2619      2623
      2621      2619      2622      2621      2619      2623      2622      2619      2623
      2619      2623      2625      2619      2623      2626      2619      2623      2627
      2625      2623      2626      2625      2623      2627      2626      2623      2627
      2623      2627      2629      2623      2627      2630      2623      2627      2631
      2629      2627      2630      2629      2627      2631      2630      2627      2631
      2627      2631      2633      2627      2631      2634      2627      2631      2635
      2633      2631      2634      2633      2631      2635      2634      2631      2635
      2631      2635      2637      2631      2635      2638      2637      2635      2638
      2635      2638      2640      2635      2638      2641      2640      2638      2641
      2638      2641      2643      2638      2641      2644      2638      2641      2645
      2643      2641      2644      2643      2641      2645      2644      2641      2645
      2641      2645      2647      2641      2645      2648      2641      2645      2649
      2647      2645      2648      2647      2645      2649      2648      2645      2649
      2645      2649      2651      2645      2649      2652      2645      2649      2653
      2651      2649      2652      2651      2649      2653      2652      2649      2653
      2649      2653      2655      2649      2653      2656      2649      2653      2657
      2655      2653      2656      2655      2653      2657      2656      2653      2657
      2653      2657      2659      2653      2657      2660      2653      2657      2661
      2659      2657      2660      2659      2657      2661      2660      2657      2661
      2657      2661      2663      2657      2661      2664      2657      2661      2665
      2663      2661      2664      2663      2661      2665      2664      2661      2665
      2661      2665      2667      2661      2665      2668      2661      2665      2669
      2667      2665      2668      2667      2665      2669      2668      2665      2669
      2665      2669      2671      2665      2669      2672      2665      2669      2673
      2671      2669      2672      2671      2669      2673      2672      2669      2673
      2603      2674      2676      2603      2674      2677      2603      2674      2678
      2676      2674      2677      2676      2674      2678      2677      2674      2678
      2674      2678      2680      2674      2678      2681      2674      2678      2682
      2680      2678      2681      2680      2678      2682      2681      2678      2682
      2678      2682      2684      2678      2682      2685      2678      2682      2686
      2684      2682      2685      2684      2682      2686      2685      2682      2686
      2682      2686      2688      2682      2686      2689      2682      2686      2690
      2688      2686      2689      2688      2686      2690      2689      2686      2690
      2686      2690      2692      2686      2690      2693      2686      2690      2694
      2692      2690      2693      2692      2690      2694      2693      2690      2694
      2690      2694      2696      2690      2694      2697      2690      2694      2698
      2696      2694      2697      2696      2694      2698      2697      2694      2698
      2694      2698      2700      2694      2698      2701      2694      2698      2702
      2700      2698      2701      2700      2698      2702      2701      2698      2702
      2698      2702      2704      2698      2702      2705      2698      2702      2706
      2704      2702      2705      2704      2702      2706      2705      2702      2706
      2702      2706      2708      2702      2706      2709      2702      2706      2710
      2708      2706      2709      2708      2706      2710      2709      2706      2710
      2706      2710      2712      2706      2710      2713      2706      2710      2714
      2712      2710      2713      2712      2710      2714      2713      2710      2714
      2710      2714      2716      2710      2714      2717      2710      2714      2718
      2716      2714      2717      2716      2714      2718      2717      2714      2718
      2714      2718      2720      2714      2718      2721      2714      2718      2722
      2720      2718      2721      2720      2718      2722      2721      2718      2722
      2718      2722      2724      2718      2722      2725      2718      2722      2726
      2724      2722      2725      2724      2722      2726      2725      2722      2726
      2722      2726      2728      2722      2726      2729      2722      2726      2730
      2728      2726      2729      2728      2726      2730      2729      2726      2730
      2733      2731      2734      2733      2731      2735      2733      2731      2736
      2734      2731      2735      2734      2731      2736      2735      2731      2736
      2731      2736      2738      2731      2736      2739      2731      2736      2740
      2738      2736      2739      2738      2736      2740      2739      2736      2740
      2736      2740      2742      2736      2740      2743      2736      2740      2752
      2742      2740      2743      2742      2740      2752      2743      2740      2752
      2746      2744      2748      2746      2744      2750      2746      2744      2752
      2748      2744      2750      2748      2744      2752      2750      2744      2752
      2744      2750      2754      2740      2752      2744      2750      2754      2756
      2750      2754      2757      2750      2754      2758      2756      2754      2757
      2756      2754      2758      2757      2754      2758      2754      2758      2760
      2754      2758      2761      2754      2758      2775      2760      2758      2761
      2760      2758      2775      2761      2758      2775      2758      2761      2763
      2761      2763      2765      2761      2763      2767      2765      2763      2767
      2763      2767      2769      2763      2767      2770      2763      2767      2793
      2769      2767      2770      2769      2767      2793      2770      2767      2793
      2758      2775      2777      2758      2775      2778      2758      2775      2779
      2777      2775      2778      2777      2775      2779      2778      2775      2779
      2775      2779      2781      2779      2781      2783      2779      2781      2785
      2783      2781      2785      2781      2785      2787      2781      2785      2788
      2781      2785      2856      2787      2785      2788      2787      2785      2856
      2788      2785      2856      2767      2793      2795      2767      2793      2796
      2767      2793      2797      2795      2793      2796      2795      2793      2797
      2796      2793      2797      2793      2797      2799      2793      2797      2800
      2793      2797      2801      2799      2797      2800      2799      2797      2801
      2800      2797      2801      2797      2801      2803      2797      2801      2804
      2797      2801      2805      2803      2801      2804      2803      2801      2805
      2804      2801      2805      2801      2805      2807      2801      2805      2808
      2801      2805      2809      2807      2805      2808      2807      2805      2809
      2808      2805      2809      2805      2809      2811      2805      2809      2812
      2805      2809      2813      2811      2809      2812      2811      2809      2813
      2812      2809      2813      2809      2813      2815      2809      2813      2816
      2809      2813      2817      2815      2813      2816      2815      2813      2817
      2816      2813      2817      2813      2817      2819      2813      2817      2820
      2819      2817      2820      2817      2820      2822      2817      2820      2823
      2822      2820      2823      2820      2823      2825      2820      2823      2826
      2820      2823      2827      2825      2823      2826      2825      2823      2827
      2826      2823      2827      2823      2827      2829      2823      2827      2830
      2823      2827      2831      2829      2827      2830      2829      2827      2831
      2830      2827      2831      2827      2831      2833      2827      2831      2834
      2827      2831      2835      2833      2831      2834      2833      2831      2835
      2834      2831      2835      2831      2835      2837      2831      2835      2838
      2831      2835      2839      2837      2835      2838      2837      2835      2839
      2838      2835      2839      2835      2839      2841      2835      2839      2842
      2835      2839      2843      2841      2839      2842      2841      2839      2843
      2842      2839      2843      2839      2843      2845      2839      2843      2846
      2839      2843      2847      2845      2843      2846      2845      2843      2847
      2846      2843      2847      2843      2847      2849      2843      2847      2850
      2843      2847      2851      2849      2847      2850      2849      2847      2851
      2850      2847      2851      2847      2851      2853      2847      2851      2854
      2847      2851      2855      2853      2851      2854      2853      2851      2855
      2854      2851      2855      2785      2856      2858      2785      2856      2859
      2785      2856      2860      2858      2856      2859      2858      2856      2860
      2859      2856      2860      2856      2860      2862      2856      2860      2863
      2856      2860      2864      2862      2860      2863      2862      2860      2864
      2863      2860      2864      2860      2864      2866      2860      2864      2867
      2860      2864      2868      2866      2864      2867      2866      2864      2868
      2867      2864      2868      2864      2868      2870      2864      2868      2871
      2864      2868      2872      2870      2868      2871      2870      2868      2872
      2871      2868      2872      2868      2872      2874      2868      2872      2875
      2868      2872      2876      2874      2872      2875      2874      2872      2876
      2875      2872      2876      2872      2876      2878      2872      2876      2879
      2872      2876      2880      2878      2876      2879      2878      2876      2880
      2879      2876      2880      2876      2880      2882      2876      2880      2883
      2876      2880      2884      2882      2880      2883      2882      2880      2884
      2883      2880      2884      2880      2884      2886      2880      2884      2887
      2880      2884      2888      2886      2884      2887      2886      2884      2888
      2887      2884      2888      2884      2888      2890      2884      2888      2891
      2884      2888      2892      2890      2888      2891      2890      2888      2892
      2891      2888      2892      2888      2892      2894      2888      2892      2895
      2888      2892      2896      2894      2892      2895      2894      2892      2896
      2895      2892      2896      2892      2896      2898      2892      2896      2899
      2892      2896      2900      2898      2896      2899      2898      2896      2900
      2899      2896      2900      2896      2900      2902      2896      2900      2903
      2896      2900      2904      2902      2900      2903      2902      2900      2904
      2903      2900      2904      2900      2904      2906      2900      2904      2907
      2900      2904      2908      2906      2904      2907      2906      2904      2908
      2907      2904      2908      2904      2908      2910      2904      2908      2911
      2904      2908      2912      2910      2908      2911      2910      2908      2912
      2911      2908      2912      2915      2913      2916      2915      2913      2917
      2915      2913      2918      2916      2913      2917      2916      2913      2918
      2917      2913      2918      2913      2918      2920      2913      2918      2921
      2913      2918      2922      2920      2918      2921      2920      2918      2922
      2921      2918      2922      2918      2922      2924      2918      2922      2925
      2918      2922      2934      2924      2922      2925      2924      2922      2934
      2925      2922      2934      2928      2926      2930      2928      2926      2932
      2928      2926      2934      2930      2926      2932      2930      2926      2934
      2932      2926      2934      2926      2932      2936      2922      2934      2926
      2932      2936      2938      2932      2936      2939      2932      2936      2940
      2938      2936      2939      2938      2936      2940      2939      2936      2940
      2936      2940      2942      2936      2940      2943      2936      2940      2957
      2942      2940      2943      2942      2940      2957      2943      2940      2957
      2940      2943      2945      2943      2945      2947      2943      2945      2949
      2947      2945      2949      2945      2949      2951      2945      2949      2952
      2945      2949      2975      2951      2949      2952      2951      2949      2975
      2952      2949      2975      2940      2957      2959      2940      2957      2960
      2940      2957      2961      2959      2957      2960      2959      2957      2961
      2960      2957      2961      2957      2961      2963      2961      2963      2965
      2961      2963      2967      2965      2963      2967      2963      2967      2969
      2963      2967      2970      2963      2967      3038      2969      2967      2970
      2969      2967      3038      2970      2967      3038      2949      2975      2977
      2949      2975      2978      2949      2975      2979      2977      2975      2978
      2977      2975      2979      2978      2975      2979      2975      2979      2981
      2975      2979      2982      2975      2979      2983      2981      2979      2982
      2981      2979      2983      2982      2979      2983      2979      2983      2985
      2979      2983      2986      2979      2983      2987      2985      2983      2986
      2985      2983      2987      2986      2983      2987      2983      2987      2989
      2983      2987      2990      2983      2987      2991      2989      2987      2990
      2989      2987      2991      2990      2987      2991      2987      2991      2993
      2987      2991      2994      2987      2991      2995      2993      2991      2994
      2993      2991      2995      2994      2991      2995      2991      2995      2997
      2991      2995      2998      2991      2995      2999      2997      2995      2998
      2997      2995      2999      2998      2995      2999      2995      2999      3001
      2995      2999      3002      3001      2999      3002      2999      3002      3004
      2999      3002      3005      3004      3002      3005      3002      3005      3007
      3002      3005      3008      3002      3005      3009      3007      3005      3008
      3007      3005      3009      3008      3005      3009      3005      3009      3011
      3005      3009      3012      3005      3009      3013      3011      3009      3012
      3011      3009      3013      3012      3009      3013      3009      3013      3015
      3009      3013      3016      3009      3013      3017      3015      3013      3016
      3015      3013      3017      3016      3013      3017      3013      3017      3019
      3013      3017      3020      3013      3017      3021      3019      3017      3020
      3019      3017      3021      3020      3017      3021      3017      3021      3023
      3017      3021      3024      3017      3021      3025      3023      3021      3024
      3023      3021      3025      3024      3021      3025      3021      3025      3027
      3021      3025      3028      3021      3025      3029      3027      3025      3028
      3027      3025      3029      3028      3025      3029      3025      3029      3031
      3025      3029      3032      3025      3029      3033      3031      3029      3032
      3031      3029      3033      3032      3029      3033      3029      3033      3035
      3029      3033      3036      3029      3033      3037      3035      3033      3036
      3035      3033      3037      3036      3033      3037      2967      3038      3040
      2967      3038      3041      2967      3038      3042      3040      3038      3041
      3040      3038      3042      3041      3038      3042      3038      3042      3044
      3038      3042      3045      3038      3042      3046      3044      3042      3045
      3044      3042      3046      3045      3042      3046      3042      3046      3048
      3042      3046      3049      3042      3046      3050      3048      3046      3049
      3048      3046      3050      3049      3046      3050      3046      3050      3052
      3046      3050      3053      3046      3050      3054      3052      3050      3053
      3052      3050      3054      3053      3050      3054      3050      3054      3056
      3050      3054      3057      3050      3054      3058      3056      3054      3057
      3056      3054      3058      3057      3054      3058      3054      3058      3060
      3054      3058      3061      3054      3058      3062      3060      3058      3061
      3060      3058      3062      3061      3058      3062      3058      3062      3064
      3058      3062      3065      3058      3062      3066      3064      3062      3065
      3064      3062      3066      3065      3062      3066      3062      3066      3068
      3062      3066      3069      3062      3066      3070      3068      3066      3069
      3068      3066      3070      3069      3066      3070      3066      3070      3072
      3066      3070      3073      3066      3070      3074      3072      3070      3073
      3072      3070      3074      3073      3070      3074      3070      3074      3076
      3070      3074      3077      3070      3074      3078      3076      3074      3077
      3076      3074      3078      3077      3074      3078      3074      3078      3080
      3074      3078      3081      3074      3078      3082      3080      3078      3081
      3080      3078      3082      3081      3078      3082      3078      3082      3084
      3078      3082      3085      3078      3082      3086      3084      3082      3085
      3084      3082      3086      3085      3082      3086      3082      3086      3088
      3082      3086      3089      3082      3086      3090      3088      3086      3089
      3088      3086      3090      3089      3086      3090      3086      3090      3092
      3086      3090      3093      3086      3090      3094      3092      3090      3093
      3092      3090      3094      3093      3090      3094      3097      3095      3098
      3097      3095      3099      3097      3095      3100      3098      3095      3099
      3098      3095      3100      3099      3095      3100      3095      3100      3102
      3095      3100      3103      3095      3100      3104      3102      3100      3103
      3102      3100      3104      3103      3100      3104      3100      3104      3106
      3100      3104      3107      3100      3104      3116      3106      3104      3107
      3106      3104      3116      3107      3104      3116      3110      3108      3112
      3110      3108      3114      3110      3108      3116      3112      3108      3114
      3112      3108      3116      3114      3108      3116      3108      3114      3118
      3104      3116      3108      3114      3118      3120      3114      3118      3121
      3114      3118      3122      3120      3118      3121      3120      3118      3122
      3121      3118      3122      3118      3122      3124      3118      3122      3125
      3118      3122      3139      3124      3122      3125      3124      3122      3139
      3125      3122      3139      3122      3125      3127      3125      3127      3129
      3125      3127      3131      3129      3127      3131      3127      3131      3133
      3127      3131      3134      3127      3131      3157      3133      3131      3134
      3133      3131      3157      3134      3131      3157      3122      3139      3141
      3122      3139      3142      3122      3139      3143      3141      3139      3142
      3141      3139      3143      3142      3139      3143      3139      3143      3145
      3143      3145      3147      3143      3145      3149      3147      3145      3149
      3145      3149      3151      3145      3149      3152      3145      3149      3220
      3151      3149      3152      3151      3149      3220      3152      3149      3220
      3131      3157      3159      3131      3157      3160      3131      3157      3161
      3159      3157      3160      3159      3157      3161      3160      3157      3161
      3157      3161      3163      3157      3161      3164      3157      3161      3165
      3163      3161      3164      3163      3161      3165      3164      3161      3165
      3161      3165      3167      3161      3165      3168      3161      3165      3169
      3167      3165      3168      3167      3165      3169      3168      3165      3169
      3165      3169      3171      3165      3169      3172      3165      3169      3173
      3171      3169      3172      3171      3169      3173      3172      3169      3173
      3169      3173      3175      3169      3173      3176      3169      3173      3177
      3175      3173      3176      3175      3173      3177      3176      3173      3177
      3173      3177      3179      3173      3177      3180      3173      3177      3181
      3179      3177      3180      3179      3177      3181      3180      3177      3181
      3177      3181      3183      3177      3181      3184      3183      3181      3184
      3181      3184      3186      3181      3184      3187      3186      3184      3187
      3184      3187      3189      3184      3187      3190      3184      3187      3191
      3189      3187      3190      3189      3187      3191      3190      3187      3191
      3187      3191      3193      3187      3191      3194      3187      3191      3195
      3193      3191      3194      3193      3191      3195      3194      3191      3195
      3191      3195      3197      3191      3195      3198      3191      3195      3199
      3197      3195      3198      3197      3195      3199      3198      3195      3199
      3195      3199      3201      3195      3199      3202      3195      3199      3203
      3201      3199      3202      3201      3199      3203      3202      3199      3203
      3199      3203      3205      3199      3203      3206      3199      3203      3207
      3205      3203      3206      3205      3203      3207      3206      3203      3207
      3203      3207      3209      3203      3207      3210      3203      3207      3211
      3209      3207      3210      3209      3207      3211      3210      3207      3211
      3207      3211      3213      3207      3211      3214      3207      3211      3215
      3213      3211      3214      3213      3211      3215      3214      3211      3215
      3211      3215      3217      3211      3215      3218      3211      3215      3219
      3217      3215      3218      3217      3215      3219      3218      3215      3219
      3149      3220      3222      3149      3220      3223      3149      3220      3224
      3222      3220      3223      3222      3220      3224      3223      3220      3224
      3220      3224      3226      3220      3224      3227      3220      3224      3228
      3226      3224      3227      3226      3224      3228      3227      3224      3228
      3224      3228      3230      3224      3228      3231      3224      3228      3232
      3230      3228      3231      3230      3228      3232      3231      3228      3232
      3228      3232      3234      3228      3232      3235      3228      3232      3236
      3234      3232      3235      3234      3232      3236      3235      3232      3236
      3232      3236      3238      3232      3236      3239      3232      3236      3240
      3238      3236      3239      3238      3236      3240      3239      3236      3240
      3236      3240      3242      3236      3240      3243      3236      3240      3244
      3242      3240      3243      3242      3240      3244      3243      3240      3244
      3240      3244      3246      3240      3244      3247      3240      3244      3248
      3246      3244      3247      3246      3244      3248      3247      3244      3248
      3244      3248      3250      3244      3248      3251      3244      3248      3252
      3250      3248      3251      3250      3248      3252      3251      3248      3252
      3248      3252      3254      3248      3252      3255      3248      3252      3256
      3254      3252      3255      3254      3252      3256      3255      3252      3256
      3252      3256      3258      3252      3256      3259      3252      3256      3260
      3258      3256      3259      3258      3256      3260      3259      3256      3260
      3256      3260      3262      3256      3260      3263      3256      3260      3264
      3262      3260      3263      3262      3260      3264      3263      3260      3264
      3260      3264      3266      3260      3264      3267      3260      3264      3268
      3266      3264      3267      3266      3264      3268      3267      3264      3268
      3264      3268      3270      3264      3268      3271      3264      3268      3272
      3270      3268      3271      3270      3268      3272      3271      3268      3272
      3268      3272      3274      3268      3272      3275      3268      3272      3276
      3274      3272      3275      3274      3272      3276      3275      3272      3276
      3279      3277      3280      3279      3277      3281      3279      3277      3282
      3280      3277      3281      3280      3277      3282      3281      3277      3282
      3277      3282      3284      3277      3282      3285      3277      3282      3286
      3284      3282      3285      3284      3282      3286      3285      3282      3286
      3282      3286      3288      3282      3286      3289      3282      3286      3298
      3288      3286      3289      3288      3286      3298      3289      3286      3298
      3292      3290      3294      3292      3290      3296      3292      3290      3298
      3294      3290      3296      3294      3290      3298      3296      3290      3298
      3290      3296      3300      3286      3298      3290      3296      3300      3302
      3296      3300      3303      3296      3300      3304      3302      3300      3303
      3302      3300      3304      3303      3300      3304      3300      3304      3306
      3300      3304      3307      3300      3304      3321      3306      3304      3307
      3306      3304      3321      3307      3304      3321      3304      3307      3309
      3307      3309      3311      3307      3309      3313      3311      3309      3313
      3309      3313      3315      3309      3313      3316      3309      3313      3339
      3315      3313      3316      3315      3313      3339      3316      3313      3339
      3304      3321      3323      3304      3321      3324      3304      3321      3325
      3323      3321      3324      3323      3321      3325      3324      3321      3325
      3321      3325      3327      3325      3327      3329      3325      3327      3331
      3329      3327      3331      3327      3331      3333      3327      3331      3334
      3327      3331      3402      3333      3331      3334      3333      3331      3402
      3334      3331      3402      3313      3339      3341      3313      3339      3342
      3313      3339      3343      3341      3339      3342      3341      3339      3343
      3342      3339      3343      3339      3343      3345      3339      3343      3346
      3339      3343      3347      3345      3343      3346      3345      3343      3347
      3346      3343      3347      3343      3347      3349      3343      3347      3350
      3343      3347      3351      3349      3347      3350      3349      3347      3351
      3350      3347      3351      3347      3351      3353      3347      3351      3354
      3347      3351      3355      3353      3351      3354      3353      3351      3355
      3354      3351      3355      3351      3355      3357      3351      3355      3358
      3351      3355      3359      3357      3355      3358      3357      3355      3359
      3358      3355      3359      3355      3359      3361      3355      3359      3362
      3355      3359      3363      3361      3359      3362      3361      3359      3363
      3362      3359      3363      3359      3363      3365      3359      3363      3366
      3365      3363      3366      3363      3366      3368      3363      3366      3369
      3368      3366      3369      3366      3369      3371      3366      3369      3372
      3366      3369      3373      3371      3369      3372      3371      3369      3373
      3372      3369      3373      3369      3373      3375      3369      3373      3376
      3369      3373      3377      3375      3373      3376      3375      3373      3377
      3376      3373      3377      3373      3377      3379      3373      3377      3380
      3373      3377      3381      3379      3377      3380      3379      3377      3381
      3380      3377      3381      3377      3381      3383      3377      3381      3384
      3377      3381      3385      3383      3381      3384      3383      3381      3385
      3384      3381      3385      3381      3385      3387      3381      3385      3388
      3381      3385      3389      3387      3385      3388      3387      3385      3389
      3388      3385      3389      3385      3389      3391      3385      3389      3392
      3385      3389      3393      3391      3389      3392      3391      3389      3393
      3392      3389      3393      3389      3393      3395      3389      3393      3396
      3389      3393      3397      3395      3393      3396      3395      3393      3397
      3396      3393      3397      3393      3397      3399      3393      3397      3400
      3393      3397      3401      3399      3397      3400      3399      3397      3401
      3400      3397      3401      3331      3402      3404      3331      3402      3405
      3331      3402      3406      3404      3402      3405      3404      3402      3406
      3405      3402      3406      3402      3406      3408      3402      3406      3409
      3402      3406      3410      3408      3406      3409      3408      3406      3410
      3409      3406      3410      3406      3410      3412      3406      3410      3413
      3406      3410      3414      3412      3410      3413      3412      3410      3414
      3413      3410      3414      3410      3414      3416      3410      3414      3417
      3410      3414      3418      3416      3414      3417      3416      3414      3418
      3417      3414      3418      3414      3418      3420      3414      3418      3421
      3414      3418      3422      3420      3418      3421      3420      3418      3422
      3421      3418      3422      3418      3422      3424      3418      3422      3425
      3418      3422      3426      3424      3422      3425      3424      3422      3426
      3425      3422      3426      3422      3426      3428      3422      3426      3429
      3422      3426      3430      3428      3426      3429      3428      3426      3430
      3429      3426      3430      3426      3430      3432      3426      3430      3433
      3426      3430      3434      3432      3430      3433      3432      3430      3434
      3433      3430      3434      3430      3434      3436      3430      3434      3437
      3430      3434      3438      3436      3434      3437      3436      3434      3438
      3437      3434      3438      3434      3438      3440      3434      3438      3441
      3434      3438      3442      3440      3438      3441      3440      3438      3442
      3441      3438      3442      3438      3442      3444      3438      3442      3445
      3438      3442      3446      3444      3442      3445      3444      3442      3446
      3445      3442      3446      3442      3446      3448      3442      3446      3449
      3442      3446      3450      3448      3446      3449      3448      3446      3450
      3449      3446      3450      3446      3450      3452      3446      3450      3453
      3446      3450      3454      3452      3450      3453      3452      3450      3454
      3453      3450      3454      3450      3454      3456      3450      3454      3457
      3450      3454      3458      3456      3454      3457      3456      3454      3458
      3457      3454      3458      3461      3459      3462      3461      3459      3463
      3461      3459      3464      3462      3459      3463      3462      3459      3464
      3463      3459      3464      3459      3464      3466      3459      3464      3467
      3459      3464      3468      3466      3464      3467      3466      3464      3468
      3467      3464      3468      3464      3468      3470      3464      3468      3471
      3464      3468      3480      3470      3468      3471      3470      3468      3480
      3471      3468      3480      3474      3472      3476      3474      3472      3478
      3474      3472      3480      3476      3472      3478      3476      3472      3480
      3478      3472      3480      3472      3478      3482      3468      3480      3472
      3478      3482      3484      3478      3482      3485      3478      3482      3486
      3484      3482      3485      3484      3482      3486      3485      3482      3486
      3482      3486      3488      3482      3486      3489      3482      3486      3503
      3488      3486      3489      3488      3486      3503      3489      3486      3503
      3486      3489      3491      3489      3491      3493      3489      3491      3495
      3493      3491      3495      3491      3495      3497      3491      3495      3498
      3491      3495      3521      3497      3495      3498      3497      3495      3521
      3498      3495      3521      3486      3503      3505      3486      3503      3506
      3486      3503      3507      3505      3503      3506      3505      3503      3507
      3506      3503      3507      3503      3507      3509      3507      3509      3511
      3507      3509      3513      3511      3509      3513      3509      3513      3515
      3509      3513      3516      3509      3513      3584      3515      3513      3516
      3515      3513      3584      3516      3513      3584      3495      3521      3523
      3495      3521      3524      3495      3521      3525      3523      3521      3524
      3523      3521      3525      3524      3521      3525      3521      3525      3527
      3521      3525      3528      3521      3525      3529      3527      3525      3528
      3527      3525      3529      3528      3525      3529      3525      3529      3531
      3525      3529      3532      3525      3529      3533      3531      3529      3532
      3531      3529      3533      3532      3529      3533      3529      3533      3535
      3529      3533      3536      3529      3533      3537      3535      3533      3536
      3535      3533      3537      3536      3533      3537      3533      3537      3539
      3533      3537      3540      3533      3537      3541      3539      3537      3540
      3539      3537      3541      3540      3537      3541      3537      3541      3543
      3537      3541      3544      3537      3541      3545      3543      3541      3544
      3543      3541      3545      3544      3541      3545      3541      3545      3547
      3541      3545      3548      3547      3545      3548      3545      3548      3550
      3545      3548      3551      3550      3548      3551      3548      3551      3553
      3548      3551      3554      3548      3551      3555      3553      3551      3554
      3553      3551      3555      3554      3551      3555      3551      3555      3557
      3551      3555      3558      3551      3555      3559      3557      3555      3558
      3557      3555      3559      3558      3555      3559      3555      3559      3561
      3555      3559      3562      3555      3559      3563      3561      3559      3562
      3561      3559      3563      3562      3559      3563      3559      3563      3565
      3559      3563      3566      3559      3563      3567      3565      3563      3566
      3565      3563      3567      3566      3563      3567      3563      3567      3569
      3563      3567      3570      3563      3567      3571      3569      3567      3570
      3569      3567      3571      3570      3567      3571      3567      3571      3573
      3567      3571      3574      3567      3571      3575      3573      3571      3574
      3573      3571      3575      3574      3571      3575      3571      3575      3577
      3571      3575      3578      3571      3575      3579      3577      3575      3578
      3577      3575      3579      3578      3575      3579      3575      3579      3581
      3575      3579      3582      3575      3579      3583      3581      3579      3582
      3581      3579      3583      3582      3579      3583      3513      3584      3586
      3513      3584      3587      3513      3584      3588      3586      3584      3587
      3586      3584      3588      3587      3584      3588      3584      3588      3590
      3584      3588      3591      3584      3588      3592      3590      3588      3591
      3590      3588      3592      3591      3588      3592      3588      3592      3594
      3588      3592      3595      3588      3592      3596      3594      3592      3595
      3594      3592      3596      3595      3592      3596      3592      3596      3598
      3592      3596      3599      3592      3596      3600      3598      3596      3599
      3598      3596      3600      3599      3596      3600      3596      3600      3602
      3596      3600      3603      3596      3600      3604      3602      3600      3603
      3602      3600      3604      3603      3600      3604      3600      3604      3606
      3600      3604      3607      3600      3604      3608      3606      3604      3607
      3606      3604      3608      3607      3604      3608      3604      3608      3610
      3604      3608      3611      3604      3608      3612      3610      3608      3611
      3610      3608      3612      3611      3608      3612      3608      3612      3614
      3608      3612      3615      3608      3612      3616      3614      3612      3615
      3614      3612      3616      3615      3612      3616      3612      3616      3618
      3612      3616      3619      3612      3616      3620      3618      3616      3619
      3618      3616      3620      3619      3616      3620      3616      3620      3622
      3616      3620      3623      3616      3620      3624      3622      3620      3623
      3622      3620      3624      3623      3620      3624      3620      3624      3626
      3620      3624      3627      3620      3624      3628      3626      3624      3627
      3626      3624      3628      3627      3624      3628      3624      3628      3630
      3624      3628      3631      3624      3628      3632      3630      3628      3631
      3630      3628      3632      3631      3628      3632      3628      3632      3634
      3628      3632      3635      3628      3632      3636      3634      3632      3635
      3634      3632      3636      3635      3632      3636      3632      3636      3638
      3632      3636      3639      3632      3636      3640      3638      3636      3639
      3638      3636      3640      3639      3636      3640      3643      3641      3644
      3643      3641      3645      3643      3641      3646      3644      3641      3645
      3644      3641      3646      3645      3641      3646      3641      3646      3648
      3641      3646      3649      3641      3646      3650      3648      3646      3649
      3648      3646      3650      3649      3646      3650      3646      3650      3652
      3646      3650      3653      3646      3650      3662      3652      3650      3653
      3652      3650      3662      3653      3650      3662      3656      3654      3658
      3656      3654      3660      3656      3654      3662      3658      3654      3660
      3658      3654      3662      3660      3654      3662      3654      3660      3664
      3650      3662      3654      3660      3664      3666      3660      3664      3667
      3660      3664      3668      3666      3664      3667      3666      3664      3668
      3667      3664      3668      3664      3668      3670      3664      3668      3671
      3664      3668      3685      3670      3668      3671      3670      3668      3685
      3671      3668      3685      3668      3671      3673      3671      3673      3675
      3671      3673      3677      3675      3673      3677      3673      3677      3679
      3673      3677      3680      3673      3677      3703      3679      3677      3680
      3679      3677      3703      3680      3677      3703      3668      3685      3687
      3668      3685      3688      3668      3685      3689      3687      3685      3688
      3687      3685      3689      3688      3685      3689      3685      3689      3691
      3689      3691      3693      3689      3691      3695      3693      3691      3695
      3691      3695      3697      3691      3695      3698      3691      3695      3766
      3697      3695      3698      3697      3695      3766      3698      3695      3766
      3677      3703      3705      3677      3703      3706      3677      3703      3707
      3705      3703      3706      3705      3703      3707      3706      3703      3707
      3703      3707      3709      3703      3707      3710      3703      3707      3711
      3709      3707      3710      3709      3707      3711      3710      3707      3711
      3707      3711      3713      3707      3711      3714      3707      3711      3715
      3713      3711      3714      3713      3711      3715      3714      3711      3715
      3711      3715      3717      3711      3715      3718      3711      3715      3719
      3717      3715      3718      3717      3715      3719      3718      3715      3719
      3715      3719      3721      3715      3719      3722      3715      3719      3723
      3721      3719      3722      3721      3719      3723      3722      3719      3723
      3719      3723      3725      3719      3723      3726      3719      3723      3727
      3725      3723      3726      3725      3723      3727      3726      3723      3727
      3723      3727      3729      3723      3727      3730      3729      3727      3730
      3727      3730      3732      3727      3730      3733      3732      3730      3733
      3730      3733      3735      3730      3733      3736      3730      3733      3737
      3735      3733      3736      3735      3733      3737      3736      3733      3737
      3733      3737      3739      3733      3737      3740      3733      3737      3741
      3739      3737      3740      3739      3737      3741      3740      3737      3741
      3737      3741      3743      3737      3741      3744      3737      3741      3745
      3743      3741      3744      3743      3741      3745      3744      3741      3745
      3741      3745      3747      3741      3745      3748      3741      3745      3749
      3747      3745      3748      3747      3745      3749      3748      3745      3749
      3745      3749      3751      3745      3749      3752      3745      3749      3753
      3751      3749      3752      3751      3749      3753      3752      3749      3753
      3749      3753      3755      3749      3753      3756      3749      3753      3757
      3755      3753      3756      3755      3753      3757      3756      3753      3757
      3753      3757      3759      3753      3757      3760      3753      3757      3761
      3759      3757      3760      3759      3757      3761      3760      3757      3761
      3757      3761      3763      3757      3761      3764      3757      3761      3765
      3763      3761      3764      3763      3761      3765      3764      3761      3765
      3695      3766      3768      3695      3766      3769      3695      3766      3770
      3768      3766      3769      3768      3766      3770      3769      3766      3770
      3766      3770      3772      3766      3770      3773      3766      3770      3774
      3772      3770      3773      3772      3770      3774      3773      3770      3774
      3770      3774      3776      3770      3774      3777      3770      3774      3778
      3776      3774      3777      3776      3774      3778      3777      3774      3778
      3774      3778      3780      3774      3778      3781      3774      3778      3782
      3780      3778      3781      3780      3778      3782      3781      3778      3782
      3778      3782      3784      3778      3782      3785      3778      3782      3786
      3784      3782      3785      3784      3782      3786      3785      3782      3786
      3782      3786      3788      3782      3786      3789      3782      3786      3790
      3788      3786      3789      3788      3786      3790      3789      3786      3790
      3786      3790      3792      3786      3790      3793      3786      3790      3794
      3792      3790      3793      3792      3790      3794      3793      3790      3794
      3790      3794      3796      3790      3794      3797      3790      3794      3798
      3796      3794      3797      3796      3794      3798      3797      3794      3798
      3794      3798      3800      3794      3798      3801      3794      3798      3802
      3800      3798      3801      3800      3798      3802      3801      3798      3802
      3798      3802      3804      3798      3802      3805      3798      3802      3806
      3804      3802      3805      3804      3802      3806      3805      3802      3806
      3802      3806      3808      3802      3806      3809      3802      3806      3810
      3808      3806      3809      3808      3806      3810      3809      3806      3810
      3806      3810      3812      3806      3810      3813      3806      3810      3814
      3812      3810      3813      3812      3810      3814      3813      3810      3814
      3810      3814      3816      3810      3814      3817      3810      3814      3818
      3816      3814      3817      3816      3814      3818      3817      3814      3818
      3814      3818      3820      3814      3818      3821      3814      3818      3822
      3820      3818      3821      3820      3818      3822      3821      3818      3822
      3825      3823      3826      3825      3823      3827      3825      3823      3828
      3826      3823      3827      3826      3823      3828      3827      3823      3828
      3823      3828      3830      3823      3828      3831      3823      3828      3832
      3830      3828      3831      3830      3828      3832      3831      3828      3832
      3828      3832      3834      3828      3832      3835      3828      3832      3844
      3834      3832      3835      3834      3832      3844      3835      3832      3844
      3838      3836      3840      3838      3836      3842      3838      3836      3844
      3840      3836      3842      3840      3836      3844      3842      3836      3844
      3836      3842      3846      3832      3844      3836      3842      3846      3848
      3842      3846      3849      3842      3846      3850      3848      3846      3849
      3848      3846      3850      3849      3846      3850      3846      3850      3852
      3846      3850      3853      3846      3850      3867      3852      3850      3853
      3852      3850      3867      3853      3850      3867      3850      3853      3855
      3853      3855      3857      3853      3855      3859      3857      3855      3859
      3855      3859      3861      3855      3859      3862      3855      3859      3885
      3861      3859      3862      3861      3859      3885      3862      3859      3885
      3850      3867      3869      3850      3867      3870      3850      3867      3871
      3869      3867      3870      3869      3867      3871      3870      3867      3871
      3867      3871      3873      3871      3873      3875      3871      3873      3877
      3875      3873      3877      3873      3877      3879      3873      3877      3880
      3873      3877      3948      3879      3877      3880      3879      3877      3948
      3880      3877      3948      3859      3885      3887      3859      3885      3888
      3859      3885      3889      3887      3885      3888      3887      3885      3889
      3888      3885      3889      3885      3889      3891      3885      3889      3892
      3885      3889      3893      3891      3889      3892      3891      3889      3893
      3892      3889      3893      3889      3893      3895      3889      3893      3896
      3889      3893      3897      3895      3893      3896      3895      3893      3897
      3896      3893      3897      3893      3897      3899      3893      3897      3900
      3893      3897      3901      3899      3897      3900      3899      3897      3901
      3900      3897      3901      3897      3901      3903      3897      3901      3904
      3897      3901      3905      3903      3901      3904      3903      3901      3905
      3904      3901      3905      3901      3905      3907      3901      3905      3908
      3901      3905      3909      3907      3905      3908      3907      3905      3909
      3908      3905      3909      3905      3909      3911      3905      3909      3912
      3911      3909      3912      3909      3912      3914      3909      3912      3915
      3914      3912      3915      3912      3915      3917      3912      3915      3918
      3912      3915      3919      3917      3915      3918      3917      3915      3919
      3918      3915      3919      3915      3919      3921      3915      3919      3922
      3915      3919      3923      3921      3919      3922      3921      3919      3923
      3922      3919      3923      3919      3923      3925      3919      3923      3926
      3919      3923      3927      3925      3923      3926      3925      3923      3927
      3926      3923      3927      3923      3927      3929      3923      3927      3930
      3923      3927      3931      3929      3927      3930      3929      3927      3931
      3930      3927      3931      3927      3931      3933      3927      3931      3934
      3927      3931      3935      3933      3931      3934      3933      3931      3935
      3934      3931      3935      3931      3935      3937      3931      3935      3938
      3931      3935      3939      3937      3935      3938      3937      3935      3939
      3938      3935      3939      3935      3939      3941      3935      3939      3942
      3935      3939      3943      3941      3939      3942      3941      3939      3943
      3942      3939      3943      3939      3943      3945      3939      3943      3946
      3939      3943      3947      3945      3943      3946      3945      3943      3947
      3946      3943      3947      3877      3948      3950      3877      3948      3951
      3877      3948      3952      3950      3948      3951      3950      3948      3952
      3951      3948      3952      3948      3952      3954      3948      3952      3955
      3948      3952      3956      3954      3952      3955      3954      3952      3956
      3955      3952      3956      3952      3956      3958      3952      3956      3959
      3952      3956      3960      3958      3956      3959      3958      3956      3960
      3959      3956      3960      3956      3960      3962      3956      3960      3963
      3956      3960      3964      3962      3960      3963      3962      3960      3964
      3963      3960      3964      3960      3964      3966      3960      3964      3967
      3960      3964      3968      3966      3964      3967      3966      3964      3968
      3967      3964      3968      3964      3968      3970      3964      3968      3971
      3964      3968      3972      3970      3968      3971      3970      3968      3972
      3971      3968      3972      3968      3972      3974      3968      3972      3975
      3968      3972      3976      3974      3972      3975      3974      3972      3976
      3975      3972      3976      3972      3976      3978      3972      3976      3979
      3972      3976      3980      3978      3976      3979      3978      3976      3980
      3979      3976      3980      3976      3980      3982      3976      3980      3983
      3976      3980      3984      3982      3980      3983      3982      3980      3984
      3983      3980      3984      3980      3984      3986      3980      3984      3987
      3980      3984      3988      3986      3984      3987      3986      3984      3988
      3987      3984      3988      3984      3988      3990      3984      3988      3991
      3984      3988      3992      3990      3988      3991      3990      3988      3992
      3991      3988      3992      3988      3992      3994      3988      3992      3995
      3988      3992      3996      3994      3992      3995      3994      3992      3996
      3995      3992      3996      3992      3996      3998      3992      3996      3999
      3992      3996      4000      3998      3996      3999      3998      3996      4000
      3999      3996      4000      3996      4000      4002      3996      4000      4003
      3996      4000      4004      4002      4000      4003      4002      4000      4004
      4003      4000      4004      4007      4005      4008      4007      4005      4009
      4007      4005      4010      4008      4005      4009      4008      4005      4010
      4009      4005      4010      4005      4010      4012      4005      4010      4013
      4005      4010      4014      4012      4010      4013      4012      4010      4014
      4013      4010      4014      4010      4014      4016      4010      4014      4017
      4010      4014      4026      4016      4014      4017      4016      4014      4026
      4017      4014      4026      4020      4018      4022      4020      4018      4024
      4020      4018      4026      4022      4018      4024      4022      4018      4026
      4024      4018      4026      4018      4024      4028      4014      4026      4018
      4024      4028      4030      4024      4028      4031      4024      4028      4032
      4030      4028      4031      4030      4028      4032      4031      4028      4032
      4028      4032      4034      4028      4032      4035      4028      4032      4049
      4034      4032      4035      4034      4032      4049      4035      4032      4049
      4032      4035      4037      4035      4037      4039      4035      4037      4041
      4039      4037      4041      4037      4041      4043      4037      4041      4044
      4037      4041      4067      4043      4041      4044      4043      4041      4067
      4044      4041      4067      4032      4049      4051      4032      4049      4052
      4032      4049      4053      4051      4049      4052      4051      4049      4053
      4052      4049      4053      4049      4053      4055      4053      4055      4057
      4053      4055      4059      4057      4055      4059      4055      4059      4061
      4055      4059      4062      4055      4059      4130      4061      4059      4062
      4061      4059      4130      4062      4059      4130      4041      4067      4069
      4041      4067      4070      4041      4067      4071      4069      4067      4070
      4069      4067      4071      4070      4067      4071      4067      4071      4073
      4067      4071      4074      4067      4071      4075      4073      4071      4074
      4073      4071      4075      4074      4071      4075      4071      4075      4077
      4071      4075      4078      4071      4075      4079      4077      4075      4078
      4077      4075      4079      4078      4075      4079      4075      4079      4081
      4075      4079      4082      4075      4079      4083      4081      4079      4082
      4081      4079      4083      4082      4079      4083      4079      4083      4085
      4079      4083      4086      4079      4083      4087      4085      4083      4086
      4085      4083      4087      4086      4083      4087      4083      4087      4089
      4083      4087      4090      4083      4087      4091      4089      4087      4090
      4089      4087      4091      4090      4087      4091      4087      4091      4093
      4087      4091      4094      4093      4091      4094      4091      4094      4096
      4091      4094      4097      4096      4094      4097      4094      4097      4099
      4094      4097      4100      4094      4097      4101      4099      4097      4100
      4099      4097      4101      4100      4097      4101      4097      4101      4103
      4097      4101      4104      4097      4101      4105      4103      4101      4104
      4103      4101      4105      4104      4101      4105      4101      4105      4107
      4101      4105      4108      4101      4105      4109      4107      4105      4108
      4107      4105      4109      4108      4105      4109      4105      4109      4111
      4105      4109      4112      4105      4109      4113      4111      4109      4112
      4111      4109      4113      4112      4109      4113      4109      4113      4115
      4109      4113      4116      4109      4113      4117      4115      4113      4116
      4115      4113      4117      4116      4113      4117      4113      4117      4119
      4113      4117      4120      4113      4117      4121      4119      4117      4120
      4119      4117      4121      4120      4117      4121      4117      4121      4123
      4117      4121      4124      4117      4121      4125      4123      4121      4124
      4123      4121      4125      4124      4121      4125      4121      4125      4127
      4121      4125      4128      4121      4125      4129      4127      4125      4128
      4127      4125      4129      4128      4125      4129      4059      4130      4132
      4059      4130      4133      4059      4130      4134      4132      4130      4133
      4132      4130      4134      4133      4130      4134      4130      4134      4136
      4130      4134      4137      4130      4134      4138      4136      4134      4137
      4136      4134      4138      4137      4134      4138      4134      4138      4140
      4134      4138      4141      4134      4138      4142      4140      4138      4141
      4140      4138      4142      4141      4138      4142      4138      4142      4144
      4138      4142      4145      4138      4142      4146      4144      4142      4145
      4144      4142      4146      4145      4142      4146      4142      4146      4148
      4142      4146      4149      4142      4146      4150      4148      4146      4149
      4148      4146      4150      4149      4146      4150      4146      4150      4152
      4146      4150      4153      4146      4150      4154      4152      4150      4153
      4152      4150      4154      4153      4150      4154      4150      4154      4156
      4150      4154      4157      4150      4154      4158      4156      4154      4157
      4156      4154      4158      4157      4154      4158      4154      4158      4160
      4154      4158      4161      4154      4158      4162      4160      4158      4161
      4160      4158      4162      4161      4158      4162      4158      4162      4164
      4158      4162      4165      4158      4162      4166      4164      4162      4165
      4164      4162      4166      4165      4162      4166      4162      4166      4168
      4162      4166      4169      4162      4166      4170      4168      4166      4169
      4168      4166      4170      4169      4166      4170      4166      4170      4172
      4166      4170      4173      4166      4170      4174      4172      4170      4173
      4172      4170      4174      4173      4170      4174      4170      4174      4176
      4170      4174      4177      4170      4174      4178      4176      4174      4177
      4176      4174      4178      4177      4174      4178      4174      4178      4180
      4174      4178      4181      4174      4178      4182      4180      4178      4181
      4180      4178      4182      4181      4178      4182      4178      4182      4184
      4178      4182      4185      4178      4182      4186      4184      4182      4185
      4184      4182      4186      4185      4182      4186      4189      4187      4190
      4189      4187      4191      4189      4187      4192      4190      4187      4191
      4190      4187      4192      4191      4187      4192      4187      4192      4194
      4187      4192      4195      4187      4192      4196      4194      4192      4195
      4194      4192      4196      4195      4192      4196      4192      4196      4198
      4192      4196      4199      4192      4196      4208      4198      4196      4199
      4198      4196      4208      4199      4196      4208      4202      4200      4204
      4202      4200      4206      4202      4200      4208      4204      4200      4206
      4204      4200      4208      4206      4200      4208      4200      4206      4210
      4196      4208      4200      4206      4210      4212      4206      4210      4213
      4206      4210      4214      4212      4210      4213      4212      4210      4214
      4213      4210      4214      4210      4214      4216      4210      4214      4217
      4210      4214      4231      4216      4214      4217      4216      4214      4231
      4217      4214      4231      4214      4217      4219      4217      4219      4221
      4217      4219      4223      4221      4219      4223      4219      4223      4225
      4219      4223      4226      4219      4223      4249      4225      4223      4226
      4225      4223      4249      4226      4223      4249      4214      4231      4233
      4214      4231      4234      4214      4231      4235      4233      4231      4234
      4233      4231      4235      4234      4231      4235      4231      4235      4237
      4235      4237      4239      4235      4237      4241      4239      4237      4241
      4237      4241      4243      4237      4241      4244      4237      4241      4312
      4243      4241      4244      4243      4241      4312      4244      4241      4312
      4223      4249      4251      4223      4249      4252      4223      4249      4253
      4251      4249      4252      4251      4249      4253      4252      4249      4253
      4249      4253      4255      4249      4253      4256      4249      4253      4257
      4255      4253      4256      4255      4253      4257      4256      4253      4257
      4253      4257      4259      4253      4257      4260      4253      4257      4261
      4259      4257      4260      4259      4257      4261      4260      4257      4261
      4257      4261      4263      4257      4261      4264      4257      4261      4265
      4263      4261      4264      4263      4261      4265      4264      4261      4265
      4261      4265      4267      4261      4265      4268      4261      4265      4269
      4267      4265      4268      4267      4265      4269      4268      4265      4269
      4265      4269      4271      4265      4269      4272      4265      4269      4273
      4271      4269      4272      4271      4269      4273      4272      4269      4273
      4269      4273      4275      4269      4273      4276      4275      4273      4276
      4273      4276      4278      4273      4276      4279      4278      4276      4279
      4276      4279      4281      4276      4279      4282      4276      4279      4283
      4281      4279      4282      4281      4279      4283      4282      4279      4283
      4279      4283      4285      4279      4283      4286      4279      4283      4287
      4285      4283      4286      4285      4283      4287      4286      4283      4287
      4283      4287      4289      4283      4287      4290      4283      4287      4291
      4289      4287      4290      4289      4287      4291      4290      4287      4291
      4287      4291      4293      4287      4291      4294      4287      4291      4295
      4293      4291      4294      4293      4291      4295      4294      4291      4295
      4291      4295      4297      4291      4295      4298      4291      4295      4299
      4297      4295      4298      4297      4295      4299      4298      4295      4299
      4295      4299      4301      4295      4299      4302      4295      4299      4303
      4301      4299      4302      4301      4299      4303      4302      4299      4303
      4299      4303      4305      4299      4303      4306      4299      4303      4307
      4305      4303      4306      4305      4303      4307      4306      4303      4307
      4303      4307      4309      4303      4307      4310      4303      4307      4311
      4309      4307      4310      4309      4307      4311      4310      4307      4311
      4241      4312      4314      4241      4312      4315      4241      4312      4316
      4314      4312      4315      4314      4312      4316      4315      4312      4316
      4312      4316      4318      4312      4316      4319      4312      4316      4320
      4318      4316      4319      4318      4316      4320      4319      4316      4320
      4316      4320      4322      4316      4320      4323      4316      4320      4324
      4322      4320      4323      4322      4320      4324      4323      4320      4324
      4320      4324      4326      4320      4324      4327      4320      4324      4328
      4326      4324      4327      4326      4324      4328      4327      4324      4328
      4324      4328      4330      4324      4328      4331      4324      4328      4332
      4330      4328      4331      4330      4328      4332      4331      4328      4332
      4328      4332      4334      4328      4332      4335      4328      4332      4336
      4334      4332      4335      4334      4332      4336      4335      4332      4336
      4332      4336      4338      4332      4336      4339      4332      4336      4340
      4338      4336      4339      4338      4336      4340      4339      4336      4340
      4336      4340      4342      4336      4340      4343      4336      4340      4344
      4342      4340      4343      4342      4340      4344      4343      4340      4344
      4340      4344      4346      4340      4344      4347      4340      4344      4348
      4346      4344      4347      4346      4344      4348      4347      4344      4348
      4344      4348      4350      4344      4348      4351      4344      4348      4352
      4350      4348      4351      4350      4348      4352      4351      4348      4352
      4348      4352      4354      4348      4352      4355      4348      4352      4356
      4354      4352      4355      4354      4352      4356      4355      4352      4356
      4352      4356      4358      4352      4356      4359      4352      4356      4360
      4358      4356      4359      4358      4356      4360      4359      4356      4360
      4356      4360      4362      4356      4360      4363      4356      4360      4364
      4362      4360      4363      4362      4360      4364      4363      4360      4364
      4360      4364      4366      4360      4364      4367      4360      4364      4368
      4366      4364      4367      4366      4364      4368      4367      4364      4368
      4371      4369      4372      4371      4369      4373      4371      4369      4374
      4372      4369      4373      4372      4369      4374      4373      4369      4374
      4369      4374      4376      4369      4374      4377      4369      4374      4378
      4376      4374      4377      4376      4374      4378      4377      4374      4378
      4374      4378      4380      4374      4378      4381      4374      4378      4390
      4380      4378      4381      4380      4378      4390      4381      4378      4390
      4384      4382      4386      4384      4382      4388      4384      4382      4390
      4386      4382      4388      4386      4382      4390      4388      4382      4390
      4382      4388      4392      4378      4390      4382      4388      4392      4394
      4388      4392      4395      4388      4392      4396      4394      4392      4395
      4394      4392      4396      4395      4392      4396      4392      4396      4398
      4392      4396      4399      4392      4396      4413      4398      4396      4399
      4398      4396      4413      4399      4396      4413      4396      4399      4401
      4399      4401      4403      4399      4401      4405      4403      4401      4405
      4401      4405      4407      4401      4405      4408      4401      4405      4431
      4407      4405      4408      4407      4405      4431      4408      4405      4431
      4396      4413      4415      4396      4413      4416      4396      4413      4417
      4415      4413      4416      4415      4413      4417      4416      4413      4417
      4413      4417      4419      4417      4419      4421      4417      4419      4423
      4421      4419      4423      4419      4423      4425      4419      4423      4426
      4419      4423      4494      4425      4423      4426      4425      4423      4494
      4426      4423      4494      4405      4431      4433      4405      4431      4434
      4405      4431      4435      4433      4431      4434      4433      4431      4435
      4434      4431      4435      4431      4435      4437      4431      4435      4438
      4431      4435      4439      4437      4435      4438      4437      4435      4439
      4438      4435      4439      4435      4439      4441      4435      4439      4442
      4435      4439      4443      4441      4439      4442      4441      4439      4443
      4442      4439      4443      4439      4443      4445      4439      4443      4446
      4439      4443      4447      4445      4443      4446      4445      4443      4447
      4446      4443      4447      4443      4447      4449      4443      4447      4450
      4443      4447      4451      4449      4447      4450      4449      4447      4451
      4450      4447      4451      4447      4451      4453      4447      4451      4454
      4447      4451      4455      4453      4451      4454      4453      4451      4455
      4454      4451      4455      4451      4455      4457      4451      4455      4458
      4457      4455      4458      4455      4458      4460      4455      4458      4461
      4460      4458      4461      4458      4461      4463      4458      4461      4464
      4458      4461      4465      4463      4461      4464      4463      4461      4465
      4464      4461      4465      4461      4465      4467      4461      4465      4468
      4461      4465      4469      4467      4465      4468      4467      4465      4469
      4468      4465      4469      4465      4469      4471      4465      4469      4472
      4465      4469      4473      4471      4469      4472      4471      4469      4473
      4472      4469      4473      4469      4473      4475      4469      4473      4476
      4469      4473      4477      4475      4473      4476      4475      4473      4477
      4476      4473      4477      4473      4477      4479      4473      4477      4480
      4473      4477      4481      4479      4477      4480      4479      4477      4481
      4480      4477      4481      4477      4481      4483      4477      4481      4484
      4477      4481      4485      4483      4481      4484      4483      4481      4485
      4484      4481      4485      4481      4485      4487      4481      4485      4488
      4481      4485      4489      4487      4485      4488      4487      4485      4489
      4488      4485      4489      4485      4489      4491      4485      4489      4492
      4485      4489      4493      4491      4489      4492      4491      4489      4493
      4492      4489      4493      4423      4494      4496      4423      4494      4497
      4423      4494      4498      4496      4494      4497      4496      4494      4498
      4497      4494      4498      4494      4498      4500      4494      4498      4501
      4494      4498      4502      4500      4498      4501      4500      4498      4502
      4501      4498      4502      4498      4502      4504      4498      4502      4505
      4498      4502      4506      4504      4502      4505      4504      4502      4506
      4505      4502      4506      4502      4506      4508      4502      4506      4509
      4502      4506      4510      4508      4506      4509      4508      4506      4510
      4509      4506      4510      4506      4510      4512      4506      4510      4513
      4506      4510      4514      4512      4510      4513      4512      4510      4514
      4513      4510      4514      4510      4514      4516      4510      4514      4517
      4510      4514      4518      4516      4514      4517      4516      4514      4518
      4517      4514      4518      4514      4518      4520      4514      4518      4521
      4514      4518      4522      4520      4518      4521      4520      4518      4522
      4521      4518      4522      4518      4522      4524      4518      4522      4525
      4518      4522      4526      4524      4522      4525      4524      4522      4526
      4525      4522      4526      4522      4526      4528      4522      4526      4529
      4522      4526      4530      4528      4526      4529      4528      4526      4530
      4529      4526      4530      4526      4530      4532      4526      4530      4533
      4526      4530      4534      4532      4530      4533      4532      4530      4534
      4533      4530      4534      4530      4534      4536      4530      4534      4537
      4530      4534      4538      4536      4534      4537      4536      4534      4538
      4537      4534      4538      4534      4538      4540      4534      4538      4541
      4534      4538      4542      4540      4538      4541      4540      4538      4542
      4541      4538      4542      4538      4542      4544      4538      4542      4545
      4538      4542      4546      4544      4542      4545      4544      4542      4546
      4545      4542      4546      4542      4546      4548      4542      4546      4549
      4542      4546      4550      4548      4546      4549      4548      4546      4550
      4549      4546      4550      4553      4551      4554      4553      4551      4555
      4553      4551      4556      4554      4551      4555      4554      4551      4556
      4555      4551      4556      4551      4556      4558      4551      4556      4559
      4551      4556      4560      4558      4556      4559      4558      4556      4560
      4559      4556      4560      4556      4560      4562      4556      4560      4563
      4556      4560      4572      4562      4560      4563      4562      4560      4572
      4563      4560      4572      4566      4564      4568      4566      4564      4570
      4566      4564      4572      4568      4564      4570      4568      4564      4572
      4570      4564      4572      4564      4570      4574      4560      4572      4564
      4570      4574      4576      4570      4574      4577      4570      4574      4578
      4576      4574      4577      4576      4574      4578      4577      4574      4578
      4574      4578      4580      4574      4578      4581      4574      4578      4595
      4580      4578      4581      4580      4578      4595      4581      4578      4595
      4578      4581      4583      4581      4583      4585      4581      4583      4587
      4585      4583      4587      4583      4587      4589      4583      4587      4590
      4583      4587      4613      4589      4587      4590      4589      4587      4613
      4590      4587      4613      4578      4595      4597      4578      4595      4598
      4578      4595      4599      4597      4595      4598      4597      4595      4599
      4598      4595      4599      4595      4599      4601      4599      4601      4603
      4599      4601      4605      4603      4601      4605      4601      4605      4607
      4601      4605      4608      4601      4605      4676      4607      4605      4608
      4607      4605      4676      4608      4605      4676      4587      4613      4615
      4587      4613      4616      4587      4613      4617      4615      4613      4616
      4615      4613      4617      4616      4613      4617      4613      4617      4619
      4613      4617      4620      4613      4617      4621      4619      4617      4620
      4619      4617      4621      4620      4617      4621      4617      4621      4623
      4617      4621      4624      4617      4621      4625      4623      4621      4624
      4623      4621      4625      4624      4621      4625      4621      4625      4627
      4621      4625      4628      4621      4625      4629      4627      4625      4628
      4627      4625      4629      4628      4625      4629      4625      4629      4631
      4625      4629      4632      4625      4629      4633      4631      4629      4632
      4631      4629      4633      4632      4629      4633      4629      4633      4635
      4629      4633      4636      4629      4633      4637      4635      4633      4636
      4635      4633      4637      4636      4633      4637      4633      4637      4639
      4633      4637      4640      4639      4637      4640      4637      4640      4642
      4637      4640      4643      4642      4640      4643      4640      4643      4645
      4640      4643      4646      4640      4643      4647      4645      4643      4646
      4645      4643      4647      4646      4643      4647      4643      4647      4649
      4643      4647      4650      4643      4647      4651      4649      4647      4650
      4649      4647      4651      4650      4647      4651      4647      4651      4653
      4647      4651      4654      4647      4651      4655      4653      4651      4654
      4653      4651      4655      4654      4651      4655      4651      4655      4657
      4651      4655      4658      4651      4655      4659      4657      4655      4658
      4657      4655      4659      4658      4655      4659      4655      4659      4661
      4655      4659      4662      4655      4659      4663      4661      4659      4662
      4661      4659      4663      4662      4659      4663      4659      4663      4665
      4659      4663      4666      4659      4663      4667      4665      4663      4666
      4665      4663      4667      4666      4663      4667      4663      4667      4669
      4663      4667      4670      4663      4667      4671      4669      4667      4670
      4669      4667      4671      4670      4667      4671      4667      4671      4673
      4667      4671      4674      4667      4671      4675      4673      4671      4674
      4673      4671      4675      4674      4671      4675      4605      4676      4678
      4605      4676      4679      4605      4676      4680      4678      4676      4679
      4678      4676      4680      4679      4676      4680      4676      4680      4682
      4676      4680      4683      4676      4680      4684      4682      4680      4683
      4682      4680      4684      4683      4680      4684      4680      4684      4686
      4680      4684      4687      4680      4684      4688      4686      4684      4687
      4686      4684      4688      4687      4684      4688      4684      4688      4690
      4684      4688      4691      4684      4688      4692      4690      4688      4691
      4690      4688      4692      4691      4688      4692      4688      4692      4694
      4688      4692      4695      4688      4692      4696      4694      4692      4695
      4694      4692      4696      4695      4692      4696      4692      4696      4698
      4692      4696      4699      4692      4696      4700      4698      4696      4699
      4698      4696      4700      4699      4696      4700      4696      4700      4702
      4696      4700      4703      4696      4700      4704      4702      4700      4703
      4702      4700      4704      4703      4700      4704      4700      4704      4706
      4700      4704      4707      4700      4704      4708      4706      4704      4707
      4706      4704      4708      4707      4704      4708      4704      4708      4710
      4704      4708      4711      4704      4708      4712      4710      4708      4711
      4710      4708      4712      4711      4708      4712      4708      4712      4714
      4708      4712      4715      4708      4712      4716      4714      4712      4715
      4714      4712      4716      4715      4712      4716      4712      4716      4718
      4712      4716      4719      4712      4716      4720      4718      4716      4719
      4718      4716      4720      4719      4716      4720      4716      4720      4722
      4716      4720      4723      4716      4720      4724      4722      4720      4723
      4722      4720      4724      4723      4720      4724      4720      4724      4726
      4720      4724      4727      4720      4724      4728      4726      4724      4727
      4726      4724      4728      4727      4724      4728      4724      4728      4730
      4724      4728      4731      4724      4728      4732      4730      4728      4731
      4730      4728      4732      4731      4728      4732      4735      4733      4736
      4735      4733      4737      4735      4733      4738      4736      4733      4737
      4736      4733      4738      4737      4733      4738      4733      4738      4740
      4733      4738      4741      4733      4738      4742      4740      4738      4741
      4740      4738      4742      4741      4738      4742      4738      4742      4744
      4738      4742      4745      4738      4742      4754      4744      4742      4745
      4744      4742      4754      4745      4742      4754      4748      4746      4750
      4748      4746      4752      4748      4746      4754      4750      4746      4752
      4750      4746      4754      4752      4746      4754      4746      4752      4756
      4742      4754      4746      4752      4756      4758      4752      4756      4759
      4752      4756      4760      4758      4756      4759      4758      4756      4760
      4759      4756      4760      4756      4760      4762      4756      4760      4763
      4756      4760      4777      4762      4760      4763      4762      4760      4777
      4763      4760      4777      4760      4763      4765      4763      4765      4767
      4763      4765      4769      4767      4765      4769      4765      4769      4771
      4765      4769      4772      4765      4769      4795      4771      4769      4772
      4771      4769      4795      4772      4769      4795      4760      4777      4779
      4760      4777      4780      4760      4777      4781      4779      4777      4780
      4779      4777      4781      4780      4777      4781      4777      4781      4783
      4781      4783      4785      4781      4783      4787      4785      4783      4787
      4783      4787      4789      4783      4787      4790      4783      4787      4858
      4789      4787      4790      4789      4787      4858      4790      4787      4858
      4769      4795      4797      4769      4795      4798      4769      4795      4799
      4797      4795      4798      4797      4795      4799      4798      4795      4799
      4795      4799      4801      4795      4799      4802      4795      4799      4803
      4801      4799      4802      4801      4799      4803      4802      4799      4803
      4799      4803      4805      4799      4803      4806      4799      4803      4807
      4805      4803      4806      4805      4803      4807      4806      4803      4807
      4803      4807      4809      4803      4807      4810      4803      4807      4811
      4809      4807      4810      4809      4807      4811      4810      4807      4811
      4807      4811      4813      4807      4811      4814      4807      4811      4815
      4813      4811      4814      4813      4811      4815      4814      4811      4815
      4811      4815      4817      4811      4815      4818      4811      4815      4819
      4817      4815      4818      4817      4815      4819      4818      4815      4819
      4815      4819      4821      4815      4819      4822      4821      4819      4822
      4819      4822      4824      4819      4822      4825      4824      4822      4825
      4822      4825      4827      4822      4825      4828      4822      4825      4829
      4827      4825      4828      4827      4825      4829      4828      4825      4829
      4825      4829      4831      4825      4829      4832      4825      4829      4833
      4831      4829      4832      4831      4829      4833      4832      4829      4833
      4829      4833      4835      4829      4833      4836      4829      4833      4837
      4835      4833      4836      4835      4833      4837      4836      4833      4837
      4833      4837      4839      4833      4837      4840      4833      4837      4841
      4839      4837      4840      4839      4837      4841      4840      4837      4841
      4837      4841      4843      4837      4841      4844      4837      4841      4845
      4843      4841      4844      4843      4841      4845      4844      4841      4845
      4841      4845      4847      4841      4845      4848      4841      4845      4849
      4847      4845      4848      4847      4845      4849      4848      4845      4849
      4845      4849      4851      4845      4849      4852      4845      4849      4853
      4851      4849      4852      4851      4849      4853      4852      4849      4853
      4849      4853      4855      4849      4853      4856      4849      4853      4857
      4855      4853      4856      4855      4853      4857      4856      4853      4857
      4787      4858      4860      4787      4858      4861      4787      4858      4862
      4860      4858      4861      4860      4858      4862      4861      4858      4862
      4858      4862      4864      4858      4862      4865      4858      4862      4866
      4864      4862      4865      4864      4862      4866      4865      4862      4866
      4862      4866      4868      4862      4866      4869      4862      4866      4870
      4868      4866      4869      4868      4866      4870      4869      4866      4870
      4866      4870      4872      4866      4870      4873      4866      4870      4874
      4872      4870      4873      4872      4870      4874      4873      4870      4874
      4870      4874      4876      4870      4874      4877      4870      4874      4878
      4876      4874      4877      4876      4874      4878      4877      4874      4878
      4874      4878      4880      4874      4878      4881      4874      4878      4882
      4880      4878      4881      4880      4878      4882      4881      4878      4882
      4878      4882      4884      4878      4882      4885      4878      4882      4886
      4884      4882      4885      4884      4882      4886      4885      4882      4886
      4882      4886      4888      4882      4886      4889      4882      4886      4890
      4888      4886      4889      4888      4886      4890      4889      4886      4890
      4886      4890      4892      4886      4890      4893      4886      4890      4894
      4892      4890      4893      4892      4890      4894      4893      4890      4894
      4890      4894      4896      4890      4894      4897      4890      4894      4898
      4896      4894      4897      4896      4894      4898      4897      4894      4898
      4894      4898      4900      4894      4898      4901      4894      4898      4902
      4900      4898      4901      4900      4898      4902      4901      4898      4902
      4898      4902      4904      4898      4902      4905      4898      4902      4906
      4904      4902      4905      4904      4902      4906      4905      4902      4906
      4902      4906      4908      4902      4906      4909      4902      4906      4910
      4908      4906      4909      4908      4906      4910      4909      4906      4910
      4906      4910      4912      4906      4910      4913      4906      4910      4914
      4912      4910      4913      4912      4910      4914      4913      4910      4914
      4917      4915      4918      4917      4915      4919      4917      4915      4920
      4918      4915      4919      4918      4915      4920      4919      4915      4920
      4915      4920      4922      4915      4920      4923      4915      4920      4924
      4922      4920      4923      4922      4920      4924      4923      4920      4924
      4920      4924      4926      4920      4924      4927      4920      4924      4936
      4926      4924      4927      4926      4924      4936      4927      4924      4936
      4930      4928      4932      4930      4928      4934      4930      4928      4936
      4932      4928      4934      4932      4928      4936      4934      4928      4936
      4928      4934      4938      4924      4936      4928      4934      4938      4940
      4934      4938      4941      4934      4938      4942      4940      4938      4941
      4940      4938      4942      4941      4938      4942      4938      4942      4944
      4938      4942      4945      4938      4942      4959      4944      4942      4945
      4944      4942      4959      4945      4942      4959      4942      4945      4947
      4945      4947      4949      4945      4947      4951      4949      4947      4951
      4947      4951      4953      4947      4951      4954      4947      4951      4977
      4953      4951      4954      4953      4951      4977      4954      4951      4977
      4942      4959      4961      4942      4959      4962      4942      4959      4963
      4961      4959      4962      4961      4959      4963      4962      4959      4963
      4959      4963      4965      4963      4965      4967      4963      4965      4969
      4967      4965      4969      4965      4969      4971      4965      4969      4972
      4965      4969      5040      4971      4969      4972      4971      4969      5040
      4972      4969      5040      4951      4977      4979      4951      4977      4980
      4951      4977      4981      4979      4977      4980      4979      4977      4981
      4980      4977      4981      4977      4981      4983      4977      4981      4984
      4977      4981      4985      4983      4981      4984      4983      4981      4985
      4984      4981      4985      4981      4985      4987      4981      4985      4988
      4981      4985      4989      4987      4985      4988      4987      4985      4989
      4988      4985      4989      4985      4989      4991      4985      4989      4992
      4985      4989      4993      4991      4989      4992      4991      4989      4993
      4992      4989      4993      4989      4993      4995      4989      4993      4996
      4989      4993      4997      4995      4993      4996      4995      4993      4997
      4996      4993      4997      4993      4997      4999      4993      4997      5000
      4993      4997      5001      4999      4997      5000      4999      4997      5001
      5000      4997      5001      4997      5001      5003      4997      5001      5004
      5003      5001      5004      5001      5004      5006      5001      5004      5007
      5006      5004      5007      5004      5007      5009      5004      5007      5010
      5004      5007      5011      5009      5007      5010      5009      5007      5011
      5010      5007      5011      5007      5011      5013      5007      5011      5014
      5007      5011      5015      5013      5011      5014      5013      5011      5015
      5014      5011      5015      5011      5015      5017      5011      5015      5018
      5011      5015      5019      5017      5015      5018      5017      5015      5019
      5018      5015      5019      5015      5019      5021      5015      5019      5022
      5015      5019      5023      5021      5019      5022      5021      5019      5023
      5022      5019      5023      5019      5023      5025      5019      5023      5026
      5019      5023      5027      5025      5023      5026      5025      5023      5027
      5026      5023      5027      5023      5027      5029      5023      5027      5030
      5023      5027      5031      5029      5027      5030      5029      5027      5031
      5030      5027      5031      5027      5031      5033      5027      5031      5034
      5027      5031      5035      5033      5031      5034      5033      5031      5035
      5034      5031      5035      5031      5035      5037      5031      5035      5038
      5031      5035      5039      5037      5035      5038      5037      5035      5039
      5038      5035      5039      4969      5040      5042      4969      5040      5043
      4969      5040      5044      5042      5040      5043      5042      5040      5044
      5043      5040      5044      5040      5044      5046      5040      5044      5047
      5040      5044      5048      5046      5044      5047      5046      5044      5048
      5047      5044      5048      5044      5048      5050      5044      5048      5051
      5044      5048      5052      5050      5048      5051      5050      5048      5052
      5051      5048      5052      5048      5052      5054      5048      5052      5055
      5048      5052      5056      5054      5052      5055      5054      5052      5056
      5055      5052      5056      5052      5056      5058      5052      5056      5059
      5052      5056      5060      5058      5056      5059      5058      5056      5060
      5059      5056      5060      5056      5060      5062      5056      5060      5063
      5056      5060      5064      5062      5060      5063      5062      5060      5064
      5063      5060      5064      5060      5064      5066      5060      5064      5067
      5060      5064      5068      5066      5064      5067      5066      5064      5068
      5067      5064      5068      5064      5068      5070      5064      5068      5071
      5064      5068      5072      5070      5068      5071      5070      5068      5072
      5071      5068      5072      5068      5072      5074      5068      5072      5075
      5068      5072      5076      5074      5072      5075      5074      5072      5076
      5075      5072      5076      5072      5076      5078      5072      5076      5079
      5072      5076      5080      5078      5076      5079      5078      5076      5080
      5079      5076      5080      5076      5080      5082      5076      5080      5083
      5076      5080      5084      5082      5080      5083      5082      5080      5084
      5083      5080      5084      5080      5084      5086      5080      5084      5087
      5080      5084      5088      5086      5084      5087      5086      5084      5088
      5087      5084      5088      5084      5088      5090      5084      5088      5091
      5084      5088      5092      5090      5088      5091      5090      5088      5092
      5091      5088      5092      5088      5092      5094      5088      5092      5095
      5088      5092      5096      5094      5092      5095      5094      5092      5096
      5095      5092      5096      5099      5097      5100      5099      5097      5101
      5099      5097      5102      5100      5097      5101      5100      5097      5102
      5101      5097      5102      5097      5102      5104      5097      5102      5105
      5097      5102      5106      5104      5102      5105      5104      5102      5106
      5105      5102      5106      5102      5106      5108      5102      5106      5109
      5102      5106      5118      5108      5106      5109      5108      5106      5118
      5109      5106      5118      5112      5110      5114      5112      5110      5116
      5112      5110      5118      5114      5110      5116      5114      5110      5118
      5116      5110      5118      5110      5116      5120      5106      5118      5110
      5116      5120      5122      5116      5120      5123      5116      5120      5124
      5122      5120      5123      5122      5120      5124      5123      5120      5124
      5120      5124      5126      5120      5124      5127      5120      5124      5141
      5126      5124      5127      5126      5124      5141      5127      5124      5141
      5124      5127      5129      5127      5129      5131      5127      5129      5133
      5131      5129      5133      5129      5133      5135      5129      5133      5136
      5129      5133      5159      5135      5133      5136      5135      5133      5159
      5136      5133      5159      5124      5141      5143      5124      5141      5144
      5124      5141      5145      5143      5141      5144      5143      5141      5145
      5144      5141      5145      5141      5145      5147      5145      5147      5149
      5145      5147      5151      5149      5147      5151      5147      5151      5153
      5147      5151      5154      5147      5151      5222      5153      5151      5154
      5153      5151      5222      5154      5151      5222      5133      5159      5161
      5133      5159      5162      5133      5159      5163      5161      5159      5162
      5161      5159      5163      5162      5159      5163      5159      5163      5165
      5159      5163      5166      5159      5163      5167      5165      5163      5166
      5165      5163      5167      5166      5163      5167      5163      5167      5169
      5163      5167      5170      5163      5167      5171      5169      5167      5170
      5169      5167      5171      5170      5167      5171      5167      5171      5173
      5167      5171      5174      5167      5171      5175      5173      5171      5174
      5173      5171      5175      5174      5171      5175      5171      5175      5177
      5171      5175      5178      5171      5175      5179      5177      5175      5178
      5177      5175      5179      5178      5175      5179      5175      5179      5181
      5175      5179      5182      5175      5179      5183      5181      5179      5182
      5181      5179      5183      5182      5179      5183      5179      5183      5185
      5179      5183      5186      5185      5183      5186      5183      5186      5188
      5183      5186      5189      5188      5186      5189      5186      5189      5191
      5186      5189      5192      5186      5189      5193      5191      5189      5192
      5191      5189      5193      5192      5189      5193      5189      5193      5195
      5189      5193      5196      5189      5193      5197      5195      5193      5196
      5195      5193      5197      5196      5193      5197      5193      5197      5199
      5193      5197      5200      5193      5197      5201      5199      5197      5200
      5199      5197      5201      5200      5197      5201      5197      5201      5203
      5197      5201      5204      5197      5201      5205      5203      5201      5204
      5203      5201      5205      5204      5201      5205      5201      5205      5207
      5201      5205      5208      5201      5205      5209      5207      5205      5208
      5207      5205      5209      5208      5205      5209      5205      5209      5211
      5205      5209      5212      5205      5209      5213      5211      5209      5212
      5211      5209      5213      5212      5209      5213      5209      5213      5215
      5209      5213      5216      5209      5213      5217      5215      5213      5216
      5215      5213      5217      5216      5213      5217      5213      5217      5219
      5213      5217      5220      5213      5217      5221      5219      5217      5220
      5219      5217      5221      5220      5217      5221      5151      5222      5224
      5151      5222      5225      5151      5222      5226      5224      5222      5225
      5224      5222      5226      5225      5222      5226      5222      5226      5228
      5222      5226      5229      5222      5226      5230      5228      5226      5229
      5228      5226      5230      5229      5226      5230      5226      5230      5232
      5226      5230      5233      5226      5230      5234      5232      5230      5233
      5232      5230      5234      5233      5230      5234      5230      5234      5236
      5230      5234      5237      5230      5234      5238      5236      5234      5237
      5236      5234      5238      5237      5234      5238      5234      5238      5240
      5234      5238      5241      5234      5238      5242      5240      5238      5241
      5240      5238      5242      5241      5238      5242      5238      5242      5244
      5238      5242      5245      5238      5242      5246      5244      5242      5245
      5244      5242      5246      5245      5242      5246      5242      5246      5248
      5242      5246      5249      5242      5246      5250      5248      5246      5249
      5248      5246      5250      5249      5246      5250      5246      5250      5252
      5246      5250      5253      5246      5250      5254      5252      5250      5253
      5252      5250      5254      5253      5250      5254      5250      5254      5256
      5250      5254      5257      5250      5254      5258      5256      5254      5257
      5256      5254      5258      5257      5254      5258      5254      5258      5260
      5254      5258      5261      5254      5258      5262      5260      5258      5261
      5260      5258      5262      5261      5258      5262      5258      5262      5264
      5258      5262      5265      5258      5262      5266      5264      5262      5265
      5264      5262      5266      5265      5262      5266      5262      5266      5268
      5262      5266      5269      5262      5266      5270      5268      5266      5269
      5268      5266      5270      5269      5266      5270      5266      5270      5272
      5266      5270      5273      5266      5270      5274      5272      5270      5273
      5272      5270      5274      5273      5270      5274      5270      5274      5276
      5270      5274      5277      5270      5274      5278      5276      5274      5277
      5276      5274      5278      5277      5274      5278      5281      5279      5282
      5281      5279      5283      5281      5279      5284      5282      5279      5283
      5282      5279      5284      5283      5279      5284      5279      5284      5286
      5279      5284      5287      5279      5284      5288      5286      5284      5287
      5286      5284      5288      5287      5284      5288      5284      5288      5290
      5284      5288      5291      5284      5288      5300      5290      5288      5291
      5290      5288      5300      5291      5288      5300      5294      5292      5296
      5294      5292      5298      5294      5292      5300      5296      5292      5298
      5296      5292      5300      5298      5292      5300      5292      5298      5302
      5288      5300      5292      5298      5302      5304      5298      5302      5305
      5298      5302      5306      5304      5302      5305      5304      5302      5306
      5305      5302      5306      5302      5306      5308      5302      5306      5309
      5302      5306      5323      5308      5306      5309      5308      5306      5323
      5309      5306      5323      5306      5309      5311      5309      5311      5313
      5309      5311      5315      5313      5311      5315      5311      5315      5317
      5311      5315      5318      5311      5315      5341      5317      5315      5318
      5317      5315      5341      5318      5315      5341      5306      5323      5325
      5306      5323      5326      5306      5323      5327      5325      5323      5326
      5325      5323      5327      5326      5323      5327      5323      5327      5329
      5327      5329      5331      5327      5329      5333      5331      5329      5333
      5329      5333      5335      5329      5333      5336      5329      5333      5404
      5335      5333      5336      5335      5333      5404      5336      5333      5404
      5315      5341      5343      5315      5341      5344      5315      5341      5345
      5343      5341      5344      5343      5341      5345      5344      5341      5345
      5341      5345      5347      5341      5345      5348      5341      5345      5349
      5347      5345      5348      5347      5345      5349      5348      5345      5349
      5345      5349      5351      5345      5349      5352      5345      5349      5353
      5351      5349      5352      5351      5349      5353      5352      5349      5353
      5349      5353      5355      5349      5353      5356      5349      5353      5357
      5355      5353      5356      5355      5353      5357      5356      5353      5357
      5353      5357      5359      5353      5357      5360      5353      5357      5361
      5359      5357      5360      5359      5357      5361      5360      5357      5361
      5357      5361      5363      5357      5361      5364      5357      5361      5365
      5363      5361      5364      5363      5361      5365      5364      5361      5365
      5361      5365      5367      5361      5365      5368      5367      5365      5368
      5365      5368      5370      5365      5368      5371      5370      5368      5371
      5368      5371      5373      5368      5371      5374      5368      5371      5375
      5373      5371      5374      5373      5371      5375      5374      5371      5375
      5371      5375      5377      5371      5375      5378      5371      5375      5379
      5377      5375      5378      5377      5375      5379      5378      5375      5379
      5375      5379      5381      5375      5379      5382      5375      5379      5383
      5381      5379      5382      5381      5379      5383      5382      5379      5383
      5379      5383      5385      5379      5383      5386      5379      5383      5387
      5385      5383      5386      5385      5383      5387      5386      5383      5387
      5383      5387      5389      5383      5387      5390      5383      5387      5391
      5389      5387      5390      5389      5387      5391      5390      5387      5391
      5387      5391      5393      5387      5391      5394      5387      5391      5395
      5393      5391      5394      5393      5391      5395      5394      5391      5395
      5391      5395      5397      5391      5395      5398      5391      5395      5399
      5397      5395      5398      5397      5395      5399      5398      5395      5399
      5395      5399      5401      5395      5399      5402      5395      5399      5403
      5401      5399      5402      5401      5399      5403      5402      5399      5403
      5333      5404      5406      5333      5404      5407      5333      5404      5408
      5406      5404      5407      5406      5404      5408      5407      5404      5408
      5404      5408      5410      5404      5408      5411      5404      5408      5412
      5410      5408      5411      5410      5408      5412      5411      5408      5412
      5408      5412      5414      5408      5412      5415      5408      5412      5416
      5414      5412      5415      5414      5412      5416      5415      5412      5416
      5412      5416      5418      5412      5416      5419      5412      5416      5420
      5418      5416      5419      5418      5416      5420      5419      5416      5420
      5416      5420      5422      5416      5420      5423      5416      5420      5424
      5422      5420      5423      5422      5420      5424      5423      5420      5424
      5420      5424      5426      5420      5424      5427      5420      5424      5428
      5426      5424      5427      5426      5424      5428      5427      5424      5428
      5424      5428      5430      5424      5428      5431      5424      5428      5432
      5430      5428      5431      5430      5428      5432      5431      5428      5432
      5428      5432      5434      5428      5432      5435      5428      5432      5436
      5434      5432      5435      5434      5432      5436      5435      5432      5436
      5432      5436      5438      5432      5436      5439      5432      5436      5440
      5438      5436      5439      5438      5436      5440      5439      5436      5440
      5436      5440      5442      5436      5440      5443      5436      5440      5444
      5442      5440      5443      5442      5440      5444      5443      5440      5444
      5440      5444      5446      5440      5444      5447      5440      5444      5448
      5446      5444      5447      5446      5444      5448      5447      5444      5448
      5444      5448      5450      5444      5448      5451      5444      5448      5452
      5450      5448      5451      5450      5448      5452      5451      5448      5452
      5448      5452      5454      5448      5452      5455      5448      5452      5456
      5454      5452      5455      5454      5452      5456      5455      5452      5456
      5452      5456      5458      5452      5456      5459      5452      5456      5460
      5458      5456      5459      5458      5456      5460      5459      5456      5460
      5463      5461      5464      5463      5461      5465      5463      5461      5466
      5464      5461      5465      5464      5461      5466      5465      5461      5466
      5461      5466      5468      5461      5466      5469      5461      5466      5470
      5468      5466      5469      5468      5466      5470      5469      5466      5470
      5466      5470      5472      5466      5470      5473      5466      5470      5482
      5472      5470      5473      5472      5470      5482      5473      5470      5482
      5476      5474      5478      5476      5474      5480      5476      5474      5482
      5478      5474      5480      5478      5474      5482      5480      5474      5482
      5474      5480      5484      5470      5482      5474      5480      5484      5486
      5480      5484      5487      5480      5484      5488      5486      5484      5487
      5486      5484      5488      5487      5484      5488      5484      5488      5490
      5484      5488      5491      5484      5488      5505      5490      5488      5491
      5490      5488      5505      5491      5488      5505      5488      5491      5493
      5491      5493      5495      5491      5493      5497      5495      5493      5497
      5493      5497      5499      5493      5497      5500      5493      5497      5523
      5499      5497      5500      5499      5497      5523      5500      5497      5523
      5488      5505      5507      5488      5505      5508      5488      5505      5509
      5507      5505      5508      5507      5505      5509      5508      5505      5509
      5505      5509      5511      5509      5511      5513      5509      5511      5515
      5513      5511      5515      5511      5515      5517      5511      5515      5518
      5511      5515      5586      5517      5515      5518      5517      5515      5586
      5518      5515      5586      5497      5523      5525      5497      5523      5526
      5497      5523      5527      5525      5523      5526      5525      5523      5527
      5526      5523      5527      5523      5527      5529      5523      5527      5530
      5523      5527      5531      5529      5527      5530      5529      5527      5531
      5530      5527      5531      5527      5531      5533      5527      5531      5534
      5527      5531      5535      5533      5531      5534      5533      5531      5535
      5534      5531      5535      5531      5535      5537      5531      5535      5538
      5531      5535      5539      5537      5535      5538      5537      5535      5539
      5538      5535      5539      5535      5539      5541      5535      5539      5542
      5535      5539      5543      5541      5539      5542      5541      5539      5543
      5542      5539      5543      5539      5543      5545      5539      5543      5546
      5539      5543      5547      5545      5543      5546      5545      5543      5547
      5546      5543      5547      5543      5547      5549      5543      5547      5550
      5549      5547      5550      5547      5550      5552      5547      5550      5553
      5552      5550      5553      5550      5553      5555      5550      5553      5556
      5550      5553      5557      5555      5553      5556      5555      5553      5557
      5556      5553      5557      5553      5557      5559      5553      5557      5560
      5553      5557      5561      5559      5557      5560      5559      5557      5561
      5560      5557      5561      5557      5561      5563      5557      5561      5564
      5557      5561      5565      5563      5561      5564      5563      5561      5565
      5564      5561      5565      5561      5565      5567      5561      5565      5568
      5561      5565      5569      5567      5565      5568      5567      5565      5569
      5568      5565      5569      5565      5569      5571      5565      5569      5572
      5565      5569      5573      5571      5569      5572      5571      5569      5573
      5572      5569      5573      5569      5573      5575      5569      5573      5576
      5569      5573      5577      5575      5573      5576      5575      5573      5577
      5576      5573      5577      5573      5577      5579      5573      5577      5580
      5573      5577      5581      5579      5577      5580      5579      5577      5581
      5580      5577      5581      5577      5581      5583      5577      5581      5584
      5577      5581      5585      5583      5581      5584      5583      5581      5585
      5584      5581      5585      5515      5586      5588      5515      5586      5589
      5515      5586      5590      5588      5586      5589      5588      5586      5590
      5589      5586      5590      5586      5590      5592      5586      5590      5593
      5586      5590      5594      5592      5590      5593      5592      5590      5594
      5593      5590      5594      5590      5594      5596      5590      5594      5597
      5590      5594      5598      5596      5594      5597      5596      5594      5598
      5597      5594      5598      5594      5598      5600      5594      5598      5601
      5594      5598      5602      5600      5598      5601      5600      5598      5602
      5601      5598      5602      5598      5602      5604      5598      5602      5605
      5598      5602      5606      5604      5602      5605      5604      5602      5606
      5605      5602      5606      5602      5606      5608      5602      5606      5609
      5602      5606      5610      5608      5606      5609      5608      5606      5610
      5609      5606      5610      5606      5610      5612      5606      5610      5613
      5606      5610      5614      5612      5610      5613      5612      5610      5614
      5613      5610      5614      5610      5614      5616      5610      5614      5617
      5610      5614      5618      5616      5614      5617      5616      5614      5618
      5617      5614      5618      5614      5618      5620      5614      5618      5621
      5614      5618      5622      5620      5618      5621      5620      5618      5622
      5621      5618      5622      5618      5622      5624      5618      5622      5625
      5618      5622      5626      5624      5622      5625      5624      5622      5626
      5625      5622      5626      5622      5626      5628      5622      5626      5629
      5622      5626      5630      5628      5626      5629      5628      5626      5630
      5629      5626      5630      5626      5630      5632      5626      5630      5633
      5626      5630      5634      5632      5630      5633      5632      5630      5634
      5633      5630      5634      5630      5634      5636      5630      5634      5637
      5630      5634      5638      5636      5634      5637      5636      5634      5638
      5637      5634      5638      5634      5638      5640      5634      5638      5641
      5634      5638      5642      5640      5638      5641      5640      5638      5642
      5641      5638      5642      5645      5643      5646      5645      5643      5647
      5645      5643      5648      5646      5643      5647      5646      5643      5648
      5647      5643      5648      5643      5648      5650      5643      5648      5651
      5643      5648      5652      5650      5648      5651      5650      5648      5652
      5651      5648      5652      5648      5652      5654      5648      5652      5655
      5648      5652      5664      5654      5652      5655      5654      5652      5664
      5655      5652      5664      5658      5656      5660      5658      5656      5662
      5658      5656      5664      5660      5656      5662      5660      5656      5664
      5662      5656      5664      5656      5662      5666      5652      5664      5656
      5662      5666      5668      5662      5666      5669      5662      5666      5670
      5668      5666      5669      5668      5666      5670      5669      5666      5670
      5666      5670      5672      5666      5670      5673      5666      5670      5687
      5672      5670      5673      5672      5670      5687      5673      5670      5687
      5670      5673      5675      5673      5675      5677      5673      5675      5679
      5677      5675      5679      5675      5679      5681      5675      5679      5682
      5675      5679      5705      5681      5679      5682      5681      5679      5705
      5682      5679      5705      5670      5687      5689      5670      5687      5690
      5670      5687      5691      5689      5687      5690      5689      5687      5691
      5690      5687      5691      5687      5691      5693      5691      5693      5695
      5691      5693      5697      5695      5693      5697      5693      5697      5699
      5693      5697      5700      5693      5697      5768      5699      5697      5700
      5699      5697      5768      5700      5697      5768      5679      5705      5707
      5679      5705      5708      5679      5705      5709      5707      5705      5708
      5707      5705      5709      5708      5705      5709      5705      5709      5711
      5705      5709      5712      5705      5709      5713      5711      5709      5712
      5711      5709      5713      5712      5709      5713      5709      5713      5715
      5709      5713      5716      5709      5713      5717      5715      5713      5716
      5715      5713      5717      5716      5713      5717      5713      5717      5719
      5713      5717      5720      5713      5717      5721      5719      5717      5720
      5719      5717      5721      5720      5717      5721      5717      5721      5723
      5717      5721      5724      5717      5721      5725      5723      5721      5724
      5723      5721      5725      5724      5721      5725      5721      5725      5727
      5721      5725      5728      5721      5725      5729      5727      5725      5728
      5727      5725      5729      5728      5725      5729      5725      5729      5731
      5725      5729      5732      5731      5729      5732      5729      5732      5734
      5729      5732      5735      5734      5732      5735      5732      5735      5737
      5732      5735      5738      5732      5735      5739      5737      5735      5738
      5737      5735      5739      5738      5735      5739      5735      5739      5741
      5735      5739      5742      5735      5739      5743      5741      5739      5742
      5741      5739      5743      5742      5739      5743      5739      5743      5745
      5739      5743      5746      5739      5743      5747      5745      5743      5746
      5745      5743      5747      5746      5743      5747      5743      5747      5749
      5743      5747      5750      5743      5747      5751      5749      5747      5750
      5749      5747      5751      5750      5747      5751      5747      5751      5753
      5747      5751      5754      5747      5751      5755      5753      5751      5754
      5753      5751      5755      5754      5751      5755      5751      5755      5757
      5751      5755      5758      5751      5755      5759      5757      5755      5758
      5757      5755      5759      5758      5755      5759      5755      5759      5761
      5755      5759      5762      5755      5759      5763      5761      5759      5762
      5761      5759      5763      5762      5759      5763      5759      5763      5765
      5759      5763      5766      5759      5763      5767      5765      5763      5766
      5765      5763      5767      5766      5763      5767      5697      5768      5770
      5697      5768      5771      5697      5768      5772      5770      5768      5771
      5770      5768      5772      5771      5768      5772      5768      5772      5774
      5768      5772      5775      5768      5772      5776      5774      5772      5775
      5774      5772      5776      5775      5772      5776      5772      5776      5778
      5772      5776      5779      5772      5776      5780      5778      5776      5779
      5778      5776      5780      5779      5776      5780      5776      5780      5782
      5776      5780      5783      5776      5780      5784      5782      5780      5783
      5782      5780      5784      5783      5780      5784      5780      5784      5786
      5780      5784      5787      5780      5784      5788      5786      5784      5787
      5786      5784      5788      5787      5784      5788      5784      5788      5790
      5784      5788      5791      5784      5788      5792      5790      5788      5791
      5790      5788      5792      5791      5788      5792      5788      5792      5794
      5788      5792      5795      5788      5792      5796      5794      5792      5795
      5794      5792      5796      5795      5792      5796      5792      5796      5798
      5792      5796      5799      5792      5796      5800      5798      5796      5799
      5798      5796      5800      5799      5796      5800      5796      5800      5802
      5796      5800      5803      5796      5800      5804      5802      5800      5803
      5802      5800      5804      5803      5800      5804      5800      5804      5806
      5800      5804      5807      5800      5804      5808      5806      5804      5807
      5806      5804      5808      5807      5804      5808      5804      5808      5810
      5804      5808      5811      5804      5808      5812      5810      5808      5811
      5810      5808      5812      5811      5808      5812      5808      5812      5814
      5808      5812      5815      5808      5812      5816      5814      5812      5815
      5814      5812      5816      5815      5812      5816      5812      5816      5818
      5812      5816      5819      5812      5816      5820      5818      5816      5819
      5818      5816      5820      5819      5816      5820      5816      5820      5822
      5816      5820      5823      5816      5820      5824      5822      5820      5823
      5822      5820      5824      5823      5820      5824      5827      5825      5828
      5827      5825      5829      5827      5825      5830      5828      5825      5829
      5828      5825      5830      5829      5825      5830      5825      5830      5832
      5825      5830      5833      5825      5830      5834      5832      5830      5833
      5832      5830      5834      5833      5830      5834      5830      5834      5836
      5830      5834      5837      5830      5834      5846      5836      5834      5837
      5836      5834      5846      5837      5834      5846      5840      5838      5842
      5840      5838      5844      5840      5838      5846      5842      5838      5844
      5842      5838      5846      5844      5838      5846      5838      5844      5848
      5834      5846      5838      5844      5848      5850      5844      5848      5851
      5844      5848      5852      5850      5848      5851      5850      5848      5852
      5851      5848      5852      5848      5852      5854      5848      5852      5855
      5848      5852      5869      5854      5852      5855      5854      5852      5869
      5855      5852      5869      5852      5855      5857      5855      5857      5859
      5855      5857      5861      5859      5857      5861      5857      5861      5863
      5857      5861      5864      5857      5861      5887      5863      5861      5864
      5863      5861      5887      5864      5861      5887      5852      5869      5871
      5852      5869      5872      5852      5869      5873      5871      5869      5872
      5871      5869      5873      5872      5869      5873      5869      5873      5875
      5873      5875      5877      5873      5875      5879      5877      5875      5879
      5875      5879      5881      5875      5879      5882      5875      5879      5950
      5881      5879      5882      5881      5879      5950      5882      5879      5950
      5861      5887      5889      5861      5887      5890      5861      5887      5891
      5889      5887      5890      5889      5887      5891      5890      5887      5891
      5887      5891      5893      5887      5891      5894      5887      5891      5895
      5893      5891      5894      5893      5891      5895      5894      5891      5895
      5891      5895      5897      5891      5895      5898      5891      5895      5899
      5897      5895      5898      5897      5895      5899      5898      5895      5899
      5895      5899      5901      5895      5899      5902      5895      5899      5903
      5901      5899      5902      5901      5899      5903      5902      5899      5903
      5899      5903      5905      5899      5903      5906      5899      5903      5907
      5905      5903      5906      5905      5903      5907      5906      5903      5907
      5903      5907      5909      5903      5907      5910      5903      5907      5911
      5909      5907      5910      5909      5907      5911      5910      5907      5911
      5907      5911      5913      5907      5911      5914      5913      5911      5914
      5911      5914      5916      5911      5914      5917      5916      5914      5917
      5914      5917      5919      5914      5917      5920      5914      5917      5921
      5919      5917      5920      5919      5917      5921      5920      5917      5921
      5917      5921      5923      5917      5921      5924      5917      5921      5925
      5923      5921      5924      5923      5921      5925      5924      5921      5925
      5921      5925      5927      5921      5925      5928      5921      5925      5929
      5927      5925      5928      5927      5925      5929      5928      5925      5929
      5925      5929      5931      5925      5929      5932      5925      5929      5933
      5931      5929      5932      5931      5929      5933      5932      5929      5933
      5929      5933      5935      5929      5933      5936      5929      5933      5937
      5935      5933      5936      5935      5933      5937      5936      5933      5937
      5933      5937      5939      5933      5937      5940      5933      5937      5941
      5939      5937      5940      5939      5937      5941      5940      5937      5941
      5937      5941      5943      5937      5941      5944      5937      5941      5945
      5943      5941      5944      5943      5941      5945      5944      5941      5945
      5941      5945      5947      5941      5945      5948      5941      5945      5949
      5947      5945      5948      5947      5945      5949      5948      5945      5949
      5879      5950      5952      5879      5950      5953      5879      5950      5954
      5952      5950      5953      5952      5950      5954      5953      5950      5954
      5950      5954      5956      5950      5954      5957      5950      5954      5958
      5956      5954      5957      5956      5954      5958      5957      5954      5958
      5954      5958      5960      5954      5958      5961      5954      5958      5962
      5960      5958      5961      5960      5958      5962      5961      5958      5962
      5958      5962      5964      5958      5962      5965      5958      5962      5966
      5964      5962      5965      5964      5962      5966      5965      5962      5966
      5962      5966      5968      5962      5966      5969      5962      5966      5970
      5968      5966      5969      5968      5966      5970      5969      5966      5970
      5966      5970      5972      5966      5970      5973      5966      5970      5974
      5972      5970      5973      5972      5970      5974      5973      5970      5974
      5970      5974      5976      5970      5974      5977      5970      5974      5978
      5976      5974      5977      5976      5974      5978      5977      5974      5978
      5974      5978      5980      5974      5978      5981      5974      5978      5982
      5980      5978      5981      5980      5978      5982      5981      5978      5982
      5978      5982      5984      5978      5982      5985      5978      5982      5986
      5984      5982      5985      5984      5982      5986      5985      5982      5986
      5982      5986      5988      5982      5986      5989      5982      5986      5990
      5988      5986      5989      5988      5986      5990      5989      5986      5990
      5986      5990      5992      5986      5990      5993      5986      5990      5994
      5992      5990      5993      5992      5990      5994      5993      5990      5994
      5990      5994      5996      5990      5994      5997      5990      5994      5998
      5996      5994      5997      5996      5994      5998      5997      5994      5998
      5994      5998      6000      5994      5998      6001      5994      5998      6002
      6000      5998      6001      6000      5998      6002      6001      5998      6002
      5998      6002      6004      5998      6002      6005      5998      6002      6006
      6004      6002      6005      6004      6002      6006      6005      6002      6006
      6009      6007      6010      6009      6007      6011      6009      6007      6012
      6010      6007      6011      6010      6007      6012      6011      6007      6012
      6007      6012      6014      6007      6012      6015      6007      6012      6016
      6014      6012      6015      6014      6012      6016      6015      6012      6016
      6012      6016      6018      6012      6016      6019      6012      6016      6028
      6018      6016      6019      6018      6016      6028      6019      6016      6028
      6022      6020      6024      6022      6020      6026      6022      6020      6028
      6024      6020      6026      6024      6020      6028      6026      6020      6028
      6020      6026      6030      6016      6028      6020      6026      6030      6032
      6026      6030      6033      6026      6030      6034      6032      6030      6033
      6032      6030      6034      6033      6030      6034      6030      6034      6036
      6030      6034      6037      6030      6034      6051      6036      6034      6037
      6036      6034      6051      6037      6034      6051      6034      6037      6039
      6037      6039      6041      6037      6039      6043      6041      6039      6043
      6039      6043      6045      6039      6043      6046      6039      6043      6069
      6045      6043      6046      6045      6043      6069      6046      6043      6069
      6034      6051      6053      6034      6051      6054      6034      6051      6055
      6053      6051      6054      6053      6051      6055      6054      6051      6055
      6051      6055      6057      6055      6057      6059      6055      6057      6061
      6059      6057      6061      6057      6061      6063      6057      6061      6064
      6057      6061      6132      6063      6061      6064      6063      6061      6132
      6064      6061      6132      6043      6069      6071      6043      6069      6072
      6043      6069      6073      6071      6069      6072      6071      6069      6073
      6072      6069      6073      6069      6073      6075      6069      6073      6076
      6069      6073      6077      6075      6073      6076      6075      6073      6077
      6076      6073      6077      6073      6077      6079      6073      6077      6080
      6073      6077      6081      6079      6077      6080      6079      6077      6081
      6080      6077      6081      6077      6081      6083      6077      6081      6084
      6077      6081      6085      6083      6081      6084      6083      6081      6085
      6084      6081      6085      6081      6085      6087      6081      6085      6088
      6081      6085      6089      6087      6085      6088      6087      6085      6089
      6088      6085      6089      6085      6089      6091      6085      6089      6092
      6085      6089      6093      6091      6089      6092      6091      6089      6093
      6092      6089      6093      6089      6093      6095      6089      6093      6096
      6095      6093      6096      6093      6096      6098      6093      6096      6099
      6098      6096      6099      6096      6099      6101      6096      6099      6102
      6096      6099      6103      6101      6099      6102      6101      6099      6103
      6102      6099      6103      6099      6103      6105      6099      6103      6106
      6099      6103      6107      6105      6103      6106      6105      6103      6107
      6106      6103      6107      6103      6107      6109      6103      6107      6110
      6103      6107      6111      6109      6107      6110      6109      6107      6111
      6110      6107      6111      6107      6111      6113      6107      6111      6114
      6107      6111      6115      6113      6111      6114      6113      6111      6115
      6114      6111      6115      6111      6115      6117      6111      6115      6118
      6111      6115      6119      6117      6115      6118      6117      6115      6119
      6118      6115      6119      6115      6119      6121      6115      6119      6122
      6115      6119      6123      6121      6119      6122      6121      6119      6123
      6122      6119      6123      6119      6123      6125      6119      6123      6126
      6119      6123      6127      6125      6123      6126      6125      6123      6127
      6126      6123      6127      6123      6127      6129      6123      6127      6130
      6123      6127      6131      6129      6127      6130      6129      6127      6131
      6130      6127      6131      6061      6132      6134      6061      6132      6135
      6061      6132      6136      6134      6132      6135      6134      6132      6136
      6135      6132      6136      6132      6136      6138      6132      6136      6139
      6132      6136      6140      6138      6136      6139      6138      6136      6140
      6139      6136      6140      6136      6140      6142      6136      6140      6143
      6136      6140      6144      6142      6140      6143      6142      6140      6144
      6143      6140      6144      6140      6144      6146      6140      6144      6147
      6140      6144      6148      6146      6144      6147      6146      6144      6148
      6147      6144      6148      6144      6148      6150      6144      6148      6151
      6144      6148      6152      6150      6148      6151      6150      6148      6152
      6151      6148      6152      6148      6152      6154      6148      6152      6155
      6148      6152      6156      6154      6152      6155      6154      6152      6156
      6155      6152      6156      6152      6156      6158      6152      6156      6159
      6152      6156      6160      6158      6156      6159      6158      6156      6160
      6159      6156      6160      6156      6160      6162      6156      6160      6163
      6156      6160      6164      6162      6160      6163      6162      6160      6164
      6163      6160      6164      6160      6164      6166      6160      6164      6167
      6160      6164      6168      6166      6164      6167      6166      6164      6168
      6167      6164      6168      6164      6168      6170      6164      6168      6171
      6164      6168      6172      6170      6168      6171      6170      6168      6172
      6171      6168      6172      6168      6172      6174      6168      6172      6175
      6168      6172      6176      6174      6172      6175      6174      6172      6176
      6175      6172      6176      6172      6176      6178      6172      6176      6179
      6172      6176      6180      6178      6176      6179      6178      6176      6180
      6179      6176      6180      6176      6180      6182      6176      6180      6183
      6176      6180      6184      6182      6180      6183      6182      6180      6184
      6183      6180      6184      6180      6184      6186      6180      6184      6187
      6180      6184      6188      6186      6184      6187      6186      6184      6188
      6187      6184      6188      6191      6189      6192      6191      6189      6193
      6191      6189      6194      6192      6189      6193      6192      6189      6194
      6193      6189      6194      6189      6194      6196      6189      6194      6197
      6189      6194      6198      6196      6194      6197      6196      6194      6198
      6197      6194      6198      6194      6198      6200      6194      6198      6201
      6194      6198      6210      6200      6198      6201      6200      6198      6210
      6201      6198      6210      6204      6202      6206      6204      6202      6208
      6204      6202      6210      6206      6202      6208      6206      6202      6210
      6208      6202      6210      6202      6208      6212      6198      6210      6202
      6208      6212      6214      6208      6212      6215      6208      6212      6216
      6214      6212      6215      6214      6212      6216      6215      6212      6216
      6212      6216      6218      6212      6216      6219      6212      6216      6233
      6218      6216      6219      6218      6216      6233      6219      6216      6233
      6216      6219      6221      6219      6221      6223      6219      6221      6225
      6223      6221      6225      6221      6225      6227      6221      6225      6228
      6221      6225      6251      6227      6225      6228      6227      6225      6251
      6228      6225      6251      6216      6233      6235      6216      6233      6236
      6216      6233      6237      6235      6233      6236      6235      6233      6237
      6236      6233      6237      6233      6237      6239      6237      6239      6241
      6237      6239      6243      6241      6239      6243      6239      6243      6245
      6239      6243      6246      6239      6243      6314      6245      6243      6246
      6245      6243      6314      6246      6243      6314      6225      6251      6253
      6225      6251      6254      6225      6251      6255      6253      6251      6254
      6253      6251      6255      6254      6251      6255      6251      6255      6257
      6251      6255      6258      6251      6255      6259      6257      6255      6258
      6257      6255      6259      6258      6255      6259      6255      6259      6261
      6255      6259      6262      6255      6259      6263      6261      6259      6262
      6261      6259      6263      6262      6259      6263      6259      6263      6265
      6259      6263      6266      6259      6263      6267      6265      6263      6266
      6265      6263      6267      6266      6263      6267      6263      6267      6269
      6263      6267      6270      6263      6267      6271      6269      6267      6270
      6269      6267      6271      6270      6267      6271      6267      6271      6273
      6267      6271      6274      6267      6271      6275      6273      6271      6274
      6273      6271      6275      6274      6271      6275      6271      6275      6277
      6271      6275      6278      6277      6275      6278      6275      6278      6280
      6275      6278      6281      6280      6278      6281      6278      6281      6283
      6278      6281      6284      6278      6281      6285      6283      6281      6284
      6283      6281      6285      6284      6281      6285      6281      6285      6287
      6281      6285      6288      6281      6285      6289      6287      6285      6288
      6287      6285      6289      6288      6285      6289      6285      6289      6291
      6285      6289      6292      6285      6289      6293      6291      6289      6292
      6291      6289      6293      6292      6289      6293      6289      6293      6295
      6289      6293      6296      6289      6293      6297      6295      6293      6296
      6295      6293      6297      6296      6293      6297      6293      6297      6299
      6293      6297      6300      6293      6297      6301      6299      6297      6300
      6299      6297      6301      6300      6297      6301      6297      6301      6303
      6297      6301      6304      6297      6301      6305      6303      6301      6304
      6303      6301      6305      6304      6301      6305      6301      6305      6307
      6301      6305      6308      6301      6305      6309      6307      6305      6308
      6307      6305      6309      6308      6305      6309      6305      6309      6311
      6305      6309      6312      6305      6309      6313      6311      6309      6312
      6311      6309      6313      6312      6309      6313      6243      6314      6316
      6243      6314      6317      6243      6314      6318      6316      6314      6317
      6316      6314      6318      6317      6314      6318      6314      6318      6320
      6314      6318      6321      6314      6318      6322      6320      6318      6321
      6320      6318      6322      6321      6318      6322      6318      6322      6324
      6318      6322      6325      6318      6322      6326      6324      6322      6325
      6324      6322      6326      6325      6322      6326      6322      6326      6328
      6322      6326      6329      6322      6326      6330      6328      6326      6329
      6328      6326      6330      6329      6326      6330      6326      6330      6332
      6326      6330      6333      6326      6330      6334      6332      6330      6333
      6332      6330      6334      6333      6330      6334      6330      6334      6336
      6330      6334      6337      6330      6334      6338      6336      6334      6337
      6336      6334      6338      6337      6334      6338      6334      6338      6340
      6334      6338      6341      6334      6338      6342      6340      6338      6341
      6340      6338      6342      6341      6338      6342      6338      6342      6344
      6338      6342      6345      6338      6342      6346      6344      6342      6345
      6344      6342      6346      6345      6342      6346      6342      6346      6348
      6342      6346      6349      6342      6346      6350      6348      6346      6349
      6348      6346      6350      6349      6346      6350      6346      6350      6352
      6346      6350      6353      6346      6350      6354      6352      6350      6353
      6352      6350      6354      6353      6350      6354      6350      6354      6356
      6350      6354      6357      6350      6354      6358      6356      6354      6357
      6356      6354      6358      6357      6354      6358      6354      6358      6360
      6354      6358      6361      6354      6358      6362      6360      6358      6361
      6360      6358      6362      6361      6358      6362      6358      6362      6364
      6358      6362      6365      6358      6362      6366      6364      6362      6365
      6364      6362      6366      6365      6362      6366      6362      6366      6368
      6362      6366      6369      6362      6366      6370      6368      6366      6369
      6368      6366      6370      6369      6366      6370      6373      6371      6374
      6373      6371      6375      6373      6371      6376      6374      6371      6375
      6374      6371      6376      6375      6371      6376      6371      6376      6378
      6371      6376      6379      6371      6376      6380      6378      6376      6379
      6378      6376      6380      6379      6376      6380      6376      6380      6382
      6376      6380      6383      6376      6380      6392      6382      6380      6383
      6382      6380      6392      6383      6380      6392      6386      6384      6388
      6386      6384      6390      6386      6384      6392      6388      6384      6390
      6388      6384      6392      6390      6384      6392      6384      6390      6394
      6380      6392      6384      6390      6394      6396      6390      6394      6397
      6390      6394      6398      6396      6394      6397      6396      6394      6398
      6397      6394      6398      6394      6398      6400      6394      6398      6401
      6394      6398      6415      6400      6398      6401      6400      6398      6415
      6401      6398      6415      6398      6401      6403      6401      6403      6405
      6401      6403      6407      6405      6403      6407      6403      6407      6409
      6403      6407      6410      6403      6407      6433      6409      6407      6410
      6409      6407      6433      6410      6407      6433      6398      6415      6417
      6398      6415      6418      6398      6415      6419      6417      6415      6418
      6417      6415      6419      6418      6415      6419      6415      6419      6421
      6419      6421      6423      6419      6421      6425      6423      6421      6425
      6421      6425      6427      6421      6425      6428      6421      6425      6496
      6427      6425      6428      6427      6425      6496      6428      6425      6496
      6407      6433      6435      6407      6433      6436      6407      6433      6437
      6435      6433      6436      6435      6433      6437      6436      6433      6437
      6433      6437      6439      6433      6437      6440      6433      6437      6441
      6439      6437      6440      6439      6437      6441      6440      6437      6441
      6437      6441      6443      6437      6441      6444      6437      6441      6445
      6443      6441      6444      6443      6441      6445      6444      6441      6445
      6441      6445      6447      6441      6445      6448      6441      6445      6449
      6447      6445      6448      6447      6445      6449      6448      6445      6449
      6445      6449      6451      6445      6449      6452      6445      6449      6453
      6451      6449      6452      6451      6449      6453      6452      6449      6453
      6449      6453      6455      6449      6453      6456      6449      6453      6457
      6455      6453      6456      6455      6453      6457      6456      6453      6457
      6453      6457      6459      6453      6457      6460      6459      6457      6460
      6457      6460      6462      6457      6460      6463      6462      6460      6463
      6460      6463      6465      6460      6463      6466      6460      6463      6467
      6465      6463      6466      6465      6463      6467      6466      6463      6467
      6463      6467      6469      6463      6467      6470      6463      6467      6471
      6469      6467      6470      6469      6467      6471      6470      6467      6471
      6467      6471      6473      6467      6471      6474      6467      6471      6475
      6473      6471      6474      6473      6471      6475      6474      6471      6475
      6471      6475      6477      6471      6475      6478      6471      6475      6479
      6477      6475      6478      6477      6475      6479      6478      6475      6479
      6475      6479      6481      6475      6479      6482      6475      6479      6483
      6481      6479      6482      6481      6479      6483      6482      6479      6483
      6479      6483      6485      6479      6483      6486      6479      6483      6487
      6485      6483      6486      6485      6483      6487      6486      6483      6487
      6483      6487      6489      6483      6487      6490      6483      6487      6491
      6489      6487      6490      6489      6487      6491      6490      6487      6491
      6487      6491      6493      6487      6491      6494      6487      6491      6495
      6493      6491      6494      6493      6491      6495      6494      6491      6495
      6425      6496      6498      6425      6496      6499      6425      6496      6500
      6498      6496      6499      6498      6496      6500      6499      6496      6500
      6496      6500      6502      6496      6500      6503      6496      6500      6504
      6502      6500      6503      6502      6500      6504      6503      6500      6504
      6500      6504      6506      6500      6504      6507      6500      6504      6508
      6506      6504      6507      6506      6504      6508      6507      6504      6508
      6504      6508      6510      6504      6508      6511      6504      6508      6512
      6510      6508      6511      6510      6508      6512      6511      6508      6512
      6508      6512      6514      6508      6512      6515      6508      6512      6516
      6514      6512      6515      6514      6512      6516      6515      6512      6516
      6512      6516      6518      6512      6516      6519      6512      6516      6520
      6518      6516      6519      6518      6516      6520      6519      6516      6520
      6516      6520      6522      6516      6520      6523      6516      6520      6524
      6522      6520      6523      6522      6520      6524      6523      6520      6524
      6520      6524      6526      6520      6524      6527      6520      6524      6528
      6526      6524      6527      6526      6524      6528      6527      6524      6528
      6524      6528      6530      6524      6528      6531      6524      6528      6532
      6530      6528      6531      6530      6528      6532      6531      6528      6532
      6528      6532      6534      6528      6532      6535      6528      6532      6536
      6534      6532      6535      6534      6532      6536      6535      6532      6536
      6532      6536      6538      6532      6536      6539      6532      6536      6540
      6538      6536      6539      6538      6536      6540      6539      6536      6540
      6536      6540      6542      6536      6540      6543      6536      6540      6544
      6542      6540      6543      6542      6540      6544      6543      6540      6544
      6540      6544      6546      6540      6544      6547      6540      6544      6548
      6546      6544      6547      6546      6544      6548      6547      6544      6548
      6544      6548      6550      6544      6548      6551      6544      6548      6552
      6550      6548      6551      6550      6548      6552      6551      6548      6552
      6555      6553      6556      6555      6553      6557      6555      6553      6558
      6556      6553      6557      6556      6553      6558      6557      6553      6558
      6553      6558      6560      6553      6558      6561      6553      6558      6562
      6560      6558      6561      6560      6558      6562      6561      6558      6562
      6558      6562      6564      6558      6562      6565      6558      6562      6574
      6564      6562      6565      6564      6562      6574      6565      6562      6574
      6568      6566      6570      6568      6566      6572      6568      6566      6574
      6570      6566      6572      6570      6566      6574      6572      6566      6574
      6566      6572      6576      6562      6574      6566      6572      6576      6578
      6572      6576      6579      6572      6576      6580      6578      6576      6579
      6578      6576      6580      6579      6576      6580      6576      6580      6582
      6576      6580      6583      6576      6580      6597      6582      6580      6583
      6582      6580      6597      6583      6580      6597      6580      6583      6585
      6583      6585      6587      6583      6585      6589      6587      6585      6589
      6585      6589      6591      6585      6589      6592      6585      6589      6615
      6591      6589      6592      6591      6589      6615      6592      6589      6615
      6580      6597      6599      6580      6597      6600      6580      6597      6601
      6599      6597      6600      6599      6597      6601      6600      6597      6601
      6597      6601      6603      6601      6603      6605      6601      6603      6607
      6605      6603      6607      6603      6607      6609      6603      6607      6610
      6603      6607      6678      6609      6607      6610      6609      6607      6678
      6610      6607      6678      6589      6615      6617      6589      6615      6618
      6589      6615      6619      6617      6615      6618      6617      6615      6619
      6618      6615      6619      6615      6619      6621      6615      6619      6622
      6615      6619      6623      6621      6619      6622      6621      6619      6623
      6622      6619      6623      6619      6623      6625      6619      6623      6626
      6619      6623      6627      6625      6623      6626      6625      6623      6627
      6626      6623      6627      6623      6627      6629      6623      6627      6630
      6623      6627      6631      6629      6627      6630      6629      6627      6631
      6630      6627      6631      6627      6631      6633      6627      6631      6634
      6627      6631      6635      6633      6631      6634      6633      6631      6635
      6634      6631      6635      6631      6635      6637      6631      6635      6638
      6631      6635      6639      6637      6635      6638      6637      6635      6639
      6638      6635      6639      6635      6639      6641      6635      6639      6642
      6641      6639      6642      6639      6642      6644      6639      6642      6645
      6644      6642      6645      6642      6645      6647      6642      6645      6648
      6642      6645      6649      6647      6645      6648      6647      6645      6649
      6648      6645      6649      6645      6649      6651      6645      6649      6652
      6645      6649      6653      6651      6649      6652      6651      6649      6653
      6652      6649      6653      6649      6653      6655      6649      6653      6656
      6649      6653      6657      6655      6653      6656      6655      6653      6657
      6656      6653      6657      6653      6657      6659      6653      6657      6660
      6653      6657      6661      6659      6657      6660      6659      6657      6661
      6660      6657      6661      6657      6661      6663      6657      6661      6664
      6657      6661      6665      6663      6661      6664      6663      6661      6665
      6664      6661      6665      6661      6665      6667      6661      6665      6668
      6661      6665      6669      6667      6665      6668      6667      6665      6669
      6668      6665      6669      6665      6669      6671      6665      6669      6672
      6665      6669      6673      6671      6669      6672      6671      6669      6673
      6672      6669      6673      6669      6673      6675      6669      6673      6676
      6669      6673      6677      6675      6673      6676      6675      6673      6677
      6676      6673      6677      6607      6678      6680      6607      6678      6681
      6607      6678      6682      6680      6678      6681      6680      6678      6682
      6681      6678      6682      6678      6682      6684      6678      6682      6685
      6678      6682      6686      6684      6682      6685      6684      6682      6686
      6685      6682      6686      6682      6686      6688      6682      6686      6689
      6682      6686      6690      6688      6686      6689      6688      6686      6690
      6689      6686      6690      6686      6690      6692      6686      6690      6693
      6686      6690      6694      6692      6690      6693      6692      6690      6694
      6693      6690      6694      6690      6694      6696      6690      6694      6697
      6690      6694      6698      6696      6694      6697      6696      6694      6698
      6697      6694      6698      6694      6698      6700      6694      6698      6701
      6694      6698      6702      6700      6698      6701      6700      6698      6702
      6701      6698      6702      6698      6702      6704      6698      6702      6705
      6698      6702      6706      6704      6702      6705      6704      6702      6706
      6705      6702      6706      6702      6706      6708      6702      6706      6709
      6702      6706      6710      6708      6706      6709      6708      6706      6710
      6709      6706      6710      6706      6710      6712      6706      6710      6713
      6706      6710      6714      6712      6710      6713      6712      6710      6714
      6713      6710      6714      6710      6714      6716      6710      6714      6717
      6710      6714      6718      6716      6714      6717      6716      6714      6718
      6717      6714      6718      6714      6718      6720      6714      6718      6721
      6714      6718      6722      6720      6718      6721      6720      6718      6722
      6721      6718      6722      6718      6722      6724      6718      6722      6725
      6718      6722      6726      6724      6722      6725      6724      6722      6726
      6725      6722      6726      6722      6726      6728      6722      6726      6729
      6722      6726      6730      6728      6726      6729      6728      6726      6730
      6729      6726      6730      6726      6730      6732      6726      6730      6733
      6726      6730      6734      6732      6730      6733      6732      6730      6734
      6733      6730      6734      6737      6735      6738      6737      6735      6739
      6737      6735      6740      6738      6735      6739      6738      6735      6740
      6739      6735      6740      6735      6740      6742      6735      6740      6743
      6735      6740      6744      6742      6740      6743      6742      6740      6744
      6743      6740      6744      6740      6744      6746      6740      6744      6747
      6740      6744      6756      6746      6744      6747      6746      6744      6756
      6747      6744      6756      6750      6748      6752      6750      6748      6754
      6750      6748      6756      6752      6748      6754      6752      6748      6756
      6754      6748      6756      6748      6754      6758      6744      6756      6748
      6754      6758      6760      6754      6758      6761      6754      6758      6762
      6760      6758      6761      6760      6758      6762      6761      6758      6762
      6758      6762      6764      6758      6762      6765      6758      6762      6779
      6764      6762      6765      6764      6762      6779      6765      6762      6779
      6762      6765      6767      6765      6767      6769      6765      6767      6771
      6769      6767      6771      6767      6771      6773      6767      6771      6774
      6767      6771      6797      6773      6771      6774      6773      6771      6797
      6774      6771      6797      6762      6779      6781      6762      6779      6782
      6762      6779      6783      6781      6779      6782      6781      6779      6783
      6782      6779      6783      6779      6783      6785      6783      6785      6787
      6783      6785      6789      6787      6785      6789      6785      6789      6791
      6785      6789      6792      6785      6789      6860      6791      6789      6792
      6791      6789      6860      6792      6789      6860      6771      6797      6799
      6771      6797      6800      6771      6797      6801      6799      6797      6800
      6799      6797      6801      6800      6797      6801      6797      6801      6803
      6797      6801      6804      6797      6801      6805      6803      6801      6804
      6803      6801      6805      6804      6801      6805      6801      6805      6807
      6801      6805      6808      6801      6805      6809      6807      6805      6808
      6807      6805      6809      6808      6805      6809      6805      6809      6811
      6805      6809      6812      6805      6809      6813      6811      6809      6812
      6811      6809      6813      6812      6809      6813      6809      6813      6815
      6809      6813      6816      6809      6813      6817      6815      6813      6816
      6815      6813      6817      6816      6813      6817      6813      6817      6819
      6813      6817      6820      6813      6817      6821      6819      6817      6820
      6819      6817      6821      6820      6817      6821      6817      6821      6823
      6817      6821      6824      6823      6821      6824      6821      6824      6826
      6821      6824      6827      6826      6824      6827      6824      6827      6829
      6824      6827      6830      6824      6827      6831      6829      6827      6830
      6829      6827      6831      6830      6827      6831      6827      6831      6833
      6827      6831      6834      6827      6831      6835      6833      6831      6834
      6833      6831      6835      6834      6831      6835      6831      6835      6837
      6831      6835      6838      6831      6835      6839      6837      6835      6838
      6837      6835      6839      6838      6835      6839      6835      6839      6841
      6835      6839      6842      6835      6839      6843      6841      6839      6842
      6841      6839      6843      6842      6839      6843      6839      6843      6845
      6839      6843      6846      6839      6843      6847      6845      6843      6846
      6845      6843      6847      6846      6843      6847      6843      6847      6849
      6843      6847      6850      6843      6847      6851      6849      6847      6850
      6849      6847      6851      6850      6847      6851      6847      6851      6853
      6847      6851      6854      6847      6851      6855      6853      6851      6854
      6853      6851      6855      6854      6851      6855      6851      6855      6857
      6851      6855      6858      6851      6855      6859      6857      6855      6858
      6857      6855      6859      6858      6855      6859      6789      6860      6862
      6789      6860      6863      6789      6860      6864      6862      6860      6863
      6862      6860      6864      6863      6860      6864      6860      6864      6866
      6860      6864      6867      6860      6864      6868      6866      6864      6867
      6866      6864      6868      6867      6864      6868      6864      6868      6870
      6864      6868      6871      6864      6868      6872      6870      6868      6871
      6870      6868      6872      6871      6868      6872      6868      6872      6874
      6868      6872      6875      6868      6872      6876      6874      6872      6875
      6874      6872      6876      6875      6872      6876      6872      6876      6878
      6872      6876      6879      6872      6876      6880      6878      6876      6879
      6878      6876      6880      6879      6876      6880      6876      6880      6882
      6876      6880      6883      6876      6880      6884      6882      6880      6883
      6882      6880      6884      6883      6880      6884      6880      6884      6886
      6880      6884      6887      6880      6884      6888      6886      6884      6887
      6886      6884      6888      6887      6884      6888      6884      6888      6890
      6884      6888      6891      6884      6888      6892      6890      6888      6891
      6890      6888      6892      6891      6888      6892      6888      6892      6894
      6888      6892      6895      6888      6892      6896      6894      6892      6895
      6894      6892      6896      6895      6892      6896      6892      6896      6898
      6892      6896      6899      6892      6896      6900      6898      6896      6899
      6898      6896      6900      6899      6896      6900      6896      6900      6902
      6896      6900      6903      6896      6900      6904      6902      6900      6903
      6902      6900      6904      6903      6900      6904      6900      6904      6906
      6900      6904      6907      6900      6904      6908      6906      6904      6907
      6906      6904      6908      6907      6904      6908      6904      6908      6910
      6904      6908      6911      6904      6908      6912      6910      6908      6911
      6910      6908      6912      6911      6908      6912      6908      6912      6914
      6908      6912      6915      6908      6912      6916      6914      6912      6915
      6914      6912      6916      6915      6912      6916      6919      6917      6920
      6919      6917      6921      6919      6917      6922      6920      6917      6921
      6920      6917      6922      6921      6917      6922      6917      6922      6924
      6917      6922      6925      6917      6922      6926      6924      6922      6925
      6924      6922      6926      6925      6922      6926      6922      6926      6928
      6922      6926      6929      6922      6926      6938      6928      6926      6929
      6928      6926      6938      6929      6926      6938      6932      6930      6934
      6932      6930      6936      6932      6930      6938      6934      6930      6936
      6934      6930      6938      6936      6930      6938      6930      6936      6940
      6926      6938      6930      6936      6940      6942      6936      6940      6943
      6936      6940      6944      6942      6940      6943      6942      6940      6944
      6943      6940      6944      6940      6944      6946      6940      6944      6947
      6940      6944      6961      6946      6944      6947      6946      6944      6961
      6947      6944      6961      6944      6947      6949      6947      6949      6951
      6947      6949      6953      6951      6949      6953      6949      6953      6955
      6949      6953      6956      6949      6953      6979      6955      6953      6956
      6955      6953      6979      6956      6953      6979      6944      6961      6963
      6944      6961      6964      6944      6961      6965      6963      6961      6964
      6963      6961      6965      6964      6961      6965      6961      6965      6967
      6965      6967      6969      6965      6967      6971      6969      6967      6971
      6967      6971      6973      6967      6971      6974      6967      6971      7042
      6973      6971      6974      6973      6971      7042      6974      6971      7042
      6953      6979      6981      6953      6979      6982      6953      6979      6983
      6981      6979      6982      6981      6979      6983      6982      6979      6983
      6979      6983      6985      6979      6983      6986      6979      6983      6987
      6985      6983      6986      6985      6983      6987      6986      6983      6987
      6983      6987      6989      6983      6987      6990      6983      6987      6991
      6989      6987      6990      6989      6987      6991      6990      6987      6991
      6987      6991      6993      6987      6991      6994      6987      6991      6995
      6993      6991      6994      6993      6991      6995      6994      6991      6995
      6991      6995      6997      6991      6995      6998      6991      6995      6999
      6997      6995      6998      6997      6995      6999      6998      6995      6999
      6995      6999      7001      6995      6999      7002      6995      6999      7003
      7001      6999      7002      7001      6999      7003      7002      6999      7003
      6999      7003      7005      6999      7003      7006      7005      7003      7006
      7003      7006      7008      7003      7006      7009      7008      7006      7009
      7006      7009      7011      7006      7009      7012      7006      7009      7013
      7011      7009      7012      7011      7009      7013      7012      7009      7013
      7009      7013      7015      7009      7013      7016      7009      7013      7017
      7015      7013      7016      7015      7013      7017      7016      7013      7017
      7013      7017      7019      7013      7017      7020      7013      7017      7021
      7019      7017      7020      7019      7017      7021      7020      7017      7021
      7017      7021      7023      7017      7021      7024      7017      7021      7025
      7023      7021      7024      7023      7021      7025      7024      7021      7025
      7021      7025      7027      7021      7025      7028      7021      7025      7029
      7027      7025      7028      7027      7025      7029      7028      7025      7029
      7025      7029      7031      7025      7029      7032      7025      7029      7033
      7031      7029      7032      7031      7029      7033      7032      7029      7033
      7029      7033      7035      7029      7033      7036      7029      7033      7037
      7035      7033      7036      7035      7033      7037      7036      7033      7037
      7033      7037      7039      7033      7037      7040      7033      7037      7041
      7039      7037      7040      7039      7037      7041      7040      7037      7041
      6971      7042      7044      6971      7042      7045      6971      7042      7046
      7044      7042      7045      7044      7042      7046      7045      7042      7046
      7042      7046      7048      7042      7046      7049      7042      7046      7050
      7048      7046      7049      7048      7046      7050      7049      7046      7050
      7046      7050      7052      7046      7050      7053      7046      7050      7054
      7052      7050      7053      7052      7050      7054      7053      7050      7054
      7050      7054      7056      7050      7054      7057      7050      7054      7058
      7056      7054      7057      7056      7054      7058      7057      7054      7058
      7054      7058      7060      7054      7058      7061      7054      7058      7062
      7060      7058      7061      7060      7058      7062      7061      7058      7062
      7058      7062      7064      7058      7062      7065      7058      7062      7066
      7064      7062      7065      7064      7062      7066      7065      7062      7066
      7062      7066      7068      7062      7066      7069      7062      7066      7070
      7068      7066      7069      7068      7066      7070      7069      7066      7070
      7066      7070      7072      7066      7070      7073      7066      7070      7074
      7072      7070      7073      7072      7070      7074      7073      7070      7074
      7070      7074      7076      7070      7074      7077      7070      7074      7078
      7076      7074      7077      7076      7074      7078      7077      7074      7078
      7074      7078      7080      7074      7078      7081      7074      7078      7082
      7080      7078      7081      7080      7078      7082      7081      7078      7082
      7078      7082      7084      7078      7082      7085      7078      7082      7086
      7084      7082      7085      7084      7082      7086      7085      7082      7086
      7082      7086      7088      7082      7086      7089      7082      7086      7090
      7088      7086      7089      7088      7086      7090      7089      7086      7090
      7086      7090      7092      7086      7090      7093      7086      7090      7094
      7092      7090      7093      7092      7090      7094      7093      7090      7094
      7090      7094      7096      7090      7094      7097      7090      7094      7098
      7096      7094      7097      7096      7094      7098      7097      7094      7098
      7101      7099      7102      7101      7099      7103      7101      7099      7104
      7102      7099      7103      7102      7099      7104      7103      7099      7104
      7099      7104      7106      7099      7104      7107      7099      7104      7108
      7106      7104      7107      7106      7104      7108      7107      7104      7108
      7104      7108      7110      7104      7108      7111      7104      7108      7120
      7110      7108      7111      7110      7108      7120      7111      7108      7120
      7114      7112      7116      7114      7112      7118      7114      7112      7120
      7116      7112      7118      7116      7112      7120      7118      7112      7120
      7112      7118      7122      7108      7120      7112      7118      7122      7124
      7118      7122      7125      7118      7122      7126      7124      7122      7125
      7124      7122      7126      7125      7122      7126      7122      7126      7128
      7122      7126      7129      7122      7126      7143      7128      7126      7129
      7128      7126      7143      7129      7126      7143      7126      7129      7131
      7129      7131      7133      7129      7131      7135      7133      7131      7135
      7131      7135      7137      7131      7135      7138      7131      7135      7161
      7137      7135      7138      7137      7135      7161      7138      7135      7161
      7126      7143      7145      7126      7143      7146      7126      7143      7147
      7145      7143      7146      7145      7143      7147      7146      7143      7147
      7143      7147      7149      7147      7149      7151      7147      7149      7153
      7151      7149      7153      7149      7153      7155      7149      7153      7156
      7149      7153      7224      7155      7153      7156      7155      7153      7224
      7156      7153      7224      7135      7161      7163      7135      7161      7164
      7135      7161      7165      7163      7161      7164      7163      7161      7165
      7164      7161      7165      7161      7165      7167      7161      7165      7168
      7161      7165      7169      7167      7165      7168      7167      7165      7169
      7168      7165      7169      7165      7169      7171      7165      7169      7172
      7165      7169      7173      7171      7169      7172      7171      7169      7173
      7172      7169      7173      7169      7173      7175      7169      7173      7176
      7169      7173      7177      7175      7173      7176      7175      7173      7177
      7176      7173      7177      7173      7177      7179      7173      7177      7180
      7173      7177      7181      7179      7177      7180      7179      7177      7181
      7180      7177      7181      7177      7181      7183      7177      7181      7184
      7177      7181      7185      7183      7181      7184      7183      7181      7185
      7184      7181      7185      7181      7185      7187      7181      7185      7188
      7187      7185      7188      7185      7188      7190      7185      7188      7191
      7190      7188      7191      7188      7191      7193      7188      7191      7194
      7188      7191      7195      7193      7191      7194      7193      7191      7195
      7194      7191      7195      7191      7195      7197      7191      7195      7198
      7191      7195      7199      7197      7195      7198      7197      7195      7199
      7198      7195      7199      7195      7199      7201      7195      7199      7202
      7195      7199      7203      7201      7199      7202      7201      7199      7203
      7202      7199      7203      7199      7203      7205      7199      7203      7206
      7199      7203      7207      7205      7203      7206      7205      7203      7207
      7206      7203      7207      7203      7207      7209      7203      7207      7210
      7203      7207      7211      7209      7207      7210      7209      7207      7211
      7210      7207      7211      7207      7211      7213      7207      7211      7214
      7207      7211      7215      7213      7211      7214      7213      7211      7215
      7214      7211      7215      7211      7215      7217      7211      7215      7218
      7211      7215      7219      7217      7215      7218      7217      7215      7219
      7218      7215      7219      7215      7219      7221      7215      7219      7222
      7215      7219      7223      7221      7219      7222      7221      7219      7223
      7222      7219      7223      7153      7224      7226      7153      7224      7227
      7153      7224      7228      7226      7224      7227      7226      7224      7228
      7227      7224      7228      7224      7228      7230      7224      7228      7231
      7224      7228      7232      7230      7228      7231      7230      7228      7232
      7231      7228      7232      7228      7232      7234      7228      7232      7235
      7228      7232      7236      7234      7232      7235      7234      7232      7236
      7235      7232      7236      7232      7236      7238      7232      7236      7239
      7232      7236      7240      7238      7236      7239      7238      7236      7240
      7239      7236      7240      7236      7240      7242      7236      7240      7243
      7236      7240      7244      7242      7240      7243      7242      7240      7244
      7243      7240      7244      7240      7244      7246      7240      7244      7247
      7240      7244      7248      7246      7244      7247      7246      7244      7248
      7247      7244      7248      7244      7248      7250      7244      7248      7251
      7244      7248      7252      7250      7248      7251      7250      7248      7252
      7251      7248      7252      7248      7252      7254      7248      7252      7255
      7248      7252      7256      7254      7252      7255      7254      7252      7256
      7255      7252      7256      7252      7256      7258      7252      7256      7259
      7252      7256      7260      7258      7256      7259      7258      7256      7260
      7259      7256      7260      7256      7260      7262      7256      7260      7263
      7256      7260      7264      7262      7260      7263      7262      7260      7264
      7263      7260      7264      7260      7264      7266      7260      7264      7267
      7260      7264      7268      7266      7264      7267      7266      7264      7268
      7267      7264      7268      7264      7268      7270      7264      7268      7271
      7264      7268      7272      7270      7268      7271      7270      7268      7272
      7271      7268      7272      7268      7272      7274      7268      7272      7275
      7268      7272      7276      7274      7272      7275      7274      7272      7276
      7275      7272      7276      7272      7276      7278      7272      7276      7279
      7272      7276      7280      7278      7276      7279      7278      7276      7280
      7279      7276      7280      7283      7281      7284      7283      7281      7285
      7283      7281      7286      7284      7281      7285      7284      7281      7286
      7285      7281      7286      7281      7286      7288      7281      7286      7289
      7281      7286      7290      7288      7286      7289      7288      7286      7290
      7289      7286      7290      7286      7290      7292      7286      7290      7293
      7286      7290      7302      7292      7290      7293      7292      7290      7302
      7293      7290      7302      7296      7294      7298      7296      7294      7300
      7296      7294      7302      7298      7294      7300      7298      7294      7302
      7300      7294      7302      7294      7300      7304      7290      7302      7294
      7300      7304      7306      7300      7304      7307      7300      7304      7308
      7306      7304      7307      7306      7304      7308      7307      7304      7308
      7304      7308      7310      7304      7308      7311      7304      7308      7325
      7310      7308      7311      7310      7308      7325      7311      7308      7325
      7308      7311      7313      7311      7313      7315      7311      7313      7317
      7315      7313      7317      7313      7317      7319      7313      7317      7320
      7313      7317      7343      7319      7317      7320      7319      7317      7343
      7320      7317      7343      7308      7325      7327      7308      7325      7328
      7308      7325      7329      7327      7325      7328      7327      7325      7329
      7328      7325      7329      7325      7329      7331      7329      7331      7333
      7329      7331      7335      7333      7331      7335      7331      7335      7337
      7331      7335      7338      7331      7335      7406      7337      7335      7338
      7337      7335      7406      7338      7335      7406      7317      7343      7345
      7317      7343      7346      7317      7343      7347      7345      7343      7346
      7345      7343      7347      7346      7343      7347      7343      7347      7349
      7343      7347      7350      7343      7347      7351      7349      7347      7350
      7349      7347      7351      7350      7347      7351      7347      7351      7353
      7347      7351      7354      7347      7351      7355      7353      7351      7354
      7353      7351      7355      7354      7351      7355      7351      7355      7357
      7351      7355      7358      7351      7355      7359      7357      7355      7358
      7357      7355      7359      7358      7355      7359      7355      7359      7361
      7355      7359      7362      7355      7359      7363      7361      7359      7362
      7361      7359      7363      7362      7359      7363      7359      7363      7365
      7359      7363      7366      7359      7363      7367      7365      7363      7366
      7365      7363      7367      7366      7363      7367      7363      7367      7369
      7363      7367      7370      7369      7367      7370      7367      7370      7372
      7367      7370      7373      7372      7370      7373      7370      7373      7375
      7370      7373      7376      7370      7373      7377      7375      7373      7376
      7375      7373      7377      7376      7373      7377      7373      7377      7379
      7373      7377      7380      7373      7377      7381      7379      7377      7380
      7379      7377      7381      7380      7377      7381      7377      7381      7383
      7377      7381      7384      7377      7381      7385      7383      7381      7384
      7383      7381      7385      7384      7381      7385      7381      7385      7387
      7381      7385      7388      7381      7385      7389      7387      7385      7388
      7387      7385      7389      7388      7385      7389      7385      7389      7391
      7385      7389      7392      7385      7389      7393      7391      7389      7392
      7391      7389      7393      7392      7389      7393      7389      7393      7395
      7389      7393      7396      7389      7393      7397      7395      7393      7396
      7395      7393      7397      7396      7393      7397      7393      7397      7399
      7393      7397      7400      7393      7397      7401      7399      7397      7400
      7399      7397      7401      7400      7397      7401      7397      7401      7403
      7397      7401      7404      7397      7401      7405      7403      7401      7404
      7403      7401      7405      7404      7401      7405      7335      7406      7408
      7335      7406      7409      7335      7406      7410      7408      7406      7409
      7408      7406      7410      7409      7406      7410      7406      7410      7412
      7406      7410      7413      7406      7410      7414      7412      7410      7413
      7412      7410      7414      7413      7410      7414      7410      7414      7416
      7410      7414      7417      7410      7414      7418      7416      7414      7417
      7416      7414      7418      7417      7414      7418      7414      7418      7420
      7414      7418      7421      7414      7418      7422      7420      7418      7421
      7420      7418      7422      7421      7418      7422      7418      7422      7424
      7418      7422      7425      7418      7422      7426      7424      7422      7425
      7424      7422      7426      7425      7422      7426      7422      7426      7428
      7422      7426      7429      7422      7426      7430      7428      7426      7429
      7428      7426      7430      7429      7426      7430      7426      7430      7432
      7426      7430      7433      7426      7430      7434      7432      7430      7433
      7432      7430      7434      7433      7430      7434      7430      7434      7436
      7430      7434      7437      7430      7434      7438      7436      7434      7437
      7436      7434      7438      7437      7434      7438      7434      7438      7440
      7434      7438      7441      7434      7438      7442      7440      7438      7441
      7440      7438      7442      7441      7438      7442      7438      7442      7444
      7438      7442      7445      7438      7442      7446      7444      7442      7445
      7444      7442      7446      7445      7442      7446      7442      7446      7448
      7442      7446      7449      7442      7446      7450      7448      7446      7449
      7448      7446      7450      7449      7446      7450      7446      7450      7452
      7446      7450      7453      7446      7450      7454      7452      7450      7453
      7452      7450      7454      7453      7450      7454      7450      7454      7456
      7450      7454      7457      7450      7454      7458      7456      7454      7457
      7456      7454      7458      7457      7454      7458      7454      7458      7460
      7454      7458      7461      7454      7458      7462      7460      7458      7461
      7460      7458      7462      7461      7458      7462      7465      7463      7466
      7465      7463      7467      7465      7463      7468      7466      7463      7467
      7466      7463      7468      7467      7463      7468      7463      7468      7470
      7463      7468      7471      7463      7468      7472      7470      7468      7471
      7470      7468      7472      7471      7468      7472      7468      7472      7474
      7468      7472      7475      7468      7472      7484      7474      7472      7475
      7474      7472      7484      7475      7472      7484      7478      7476      7480
      7478      7476      7482      7478      7476      7484      7480      7476      7482
      7480      7476      7484      7482      7476      7484      7476      7482      7486
      7472      7484      7476      7482      7486      7488      7482      7486      7489
      7482      7486      7490      7488      7486      7489      7488      7486      7490
      7489      7486      7490      7486      7490      7492      7486      7490      7493
      7486      7490      7507      7492      7490      7493      7492      7490      7507
      7493      7490      7507      7490      7493      7495      7493      7495      7497
      7493      7495      7499      7497      7495      7499      7495      7499      7501
      7495      7499      7502      7495      7499      7525      7501      7499      7502
      7501      7499      7525      7502      7499      7525      7490      7507      7509
      7490      7507      7510      7490      7507      7511      7509      7507      7510
      7509      7507      7511      7510      7507      7511      7507      7511      7513
      7511      7513      7515      7511      7513      7517      7515      7513      7517
      7513      7517      7519      7513      7517      7520      7513      7517      7588
      7519      7517      7520      7519      7517      7588      7520      7517      7588
      7499      7525      7527      7499      7525      7528      7499      7525      7529
      7527      7525      7528      7527      7525      7529      7528      7525      7529
      7525      7529      7531      7525      7529      7532      7525      7529      7533
      7531      7529      7532      7531      7529      7533      7532      7529      7533
      7529      7533      7535      7529      7533      7536      7529      7533      7537
      7535      7533      7536      7535      7533      7537      7536      7533      7537
      7533      7537      7539      7533      7537      7540      7533      7537      7541
      7539      7537      7540      7539      7537      7541      7540      7537      7541
      7537      7541      7543      7537      7541      7544      7537      7541      7545
      7543      7541      7544      7543      7541      7545      7544      7541      7545
      7541      7545      7547      7541      7545      7548      7541      7545      7549
      7547      7545      7548      7547      7545      7549      7548      7545      7549
      7545      7549      7551      7545      7549      7552      7551      7549      7552
      7549      7552      7554      7549      7552      7555      7554      7552      7555
      7552      7555      7557      7552      7555      7558      7552      7555      7559
      7557      7555      7558      7557      7555      7559      7558      7555      7559
      7555      7559      7561      7555      7559      7562      7555      7559      7563
      7561      7559      7562      7561      7559      7563      7562      7559      7563
      7559      7563      7565      7559      7563      7566      7559      7563      7567
      7565      7563      7566      7565      7563      7567      7566      7563      7567
      7563      7567      7569      7563      7567      7570      7563      7567      7571
      7569      7567      7570      7569      7567      7571      7570      7567      7571
      7567      7571      7573      7567      7571      7574      7567      7571      7575
      7573      7571      7574      7573      7571      7575      7574      7571      7575
      7571      7575      7577      7571      7575      7578      7571      7575      7579
      7577      7575      7578      7577      7575      7579      7578      7575      7579
      7575      7579      7581      7575      7579      7582      7575      7579      7583
      7581      7579      7582      7581      7579      7583      7582      7579      7583
      7579      7583      7585      7579      7583      7586      7579      7583      7587
      7585      7583      7586      7585      7583      7587      7586      7583      7587
      7517      7588      7590      7517      7588      7591      7517      7588      7592
      7590      7588      7591      7590      7588      7592      7591      7588      7592
      7588      7592      7594      7588      7592      7595      7588      7592      7596
      7594      7592      7595      7594      7592      7596      7595      7592      7596
      7592      7596      7598      7592      7596      7599      7592      7596      7600
      7598      7596      7599      7598      7596      7600      7599      7596      7600
      7596      7600      7602      7596      7600      7603      7596      7600      7604
      7602      7600      7603      7602      7600      7604      7603      7600      7604
      7600      7604      7606      7600      7604      7607      7600      7604      7608
      7606      7604      7607      7606      7604      7608      7607      7604      7608
      7604      7608      7610      7604      7608      7611      7604      7608      7612
      7610      7608      7611      7610      7608      7612      7611      7608      7612
      7608      7612      7614      7608      7612      7615      7608      7612      7616
      7614      7612      7615      7614      7612      7616      7615      7612      7616
      7612      7616      7618      7612      7616      7619      7612      7616      7620
      7618      7616      7619      7618      7616      7620      7619      7616      7620
      7616      7620      7622      7616      7620      7623      7616      7620      7624
      7622      7620      7623      7622      7620      7624      7623      7620      7624
      7620      7624      7626      7620      7624      7627      7620      7624      7628
      7626      7624      7627      7626      7624      7628      7627      7624      7628
      7624      7628      7630      7624      7628      7631      7624      7628      7632
      7630      7628      7631      7630      7628      7632      7631      7628      7632
      7628      7632      7634      7628      7632      7635      7628      7632      7636
      7634      7632      7635      7634      7632      7636      7635      7632      7636
      7632      7636      7638      7632      7636      7639      7632      7636      7640
      7638      7636      7639      7638      7636      7640      7639      7636      7640
      7636      7640      7642      7636      7640      7643      7636      7640      7644
      7642      7640      7643      7642      7640      7644      7643      7640      7644
      7647      7645      7648      7647      7645      7649      7647      7645      7650
      7648      7645      7649      7648      7645      7650      7649      7645      7650
      7645      7650      7652      7645      7650      7653      7645      7650      7654
      7652      7650      7653      7652      7650      7654      7653      7650      7654
      7650      7654      7656      7650      7654      7657      7650      7654      7666
      7656      7654      7657      7656      7654      7666      7657      7654      7666
      7660      7658      7662      7660      7658      7664      7660      7658      7666
      7662      7658      7664      7662      7658      7666      7664      7658      7666
      7658      7664      7668      7654      7666      7658      7664      7668      7670
      7664      7668      7671      7664      7668      7672      7670      7668      7671
      7670      7668      7672      7671      7668      7672      7668      7672      7674
      7668      7672      7675      7668      7672      7689      7674      7672      7675
      7674      7672      7689      7675      7672      7689      7672      7675      7677
      7675      7677      7679      7675      7677      7681      7679      7677      7681
      7677      7681      7683      7677      7681      7684      7677      7681      7707
      7683      7681      7684      7683      7681      7707      7684      7681      7707
      7672      7689      7691      7672      7689      7692      7672      7689      7693
      7691      7689      7692      7691      7689      7693      7692      7689      7693
      7689      7693      7695      7693      7695      7697      7693      7695      7699
      7697      7695      7699      7695      7699      7701      7695      7699      7702
      7695      7699      7770      7701      7699      7702      7701      7699      7770
      7702      7699      7770      7681      7707      7709      7681      7707      7710
      7681      7707      7711      7709      7707      7710      7709      7707      7711
      7710      7707      7711      7707      7711      7713      7707      7711      7714
      7707      7711      7715      7713      7711      7714      7713      7711      7715
      7714      7711      7715      7711      7715      7717      7711      7715      7718
      7711      7715      7719      7717      7715      7718      7717      7715      7719
      7718      7715      7719      7715      7719      7721      7715      7719      7722
      7715      7719      7723      7721      7719      7722      7721      7719      7723
      7722      7719      7723      7719      7723      7725      7719      7723      7726
      7719      7723      7727      7725      7723      7726      7725      7723      7727
      7726      7723      7727      7723      7727      7729      7723      7727      7730
      7723      7727      7731      7729      7727      7730      7729      7727      7731
      7730      7727      7731      7727      7731      7733      7727      7731      7734
      7733      7731      7734      7731      7734      7736      7731      7734      7737
      7736      7734      7737      7734      7737      7739      7734      7737      7740
      7734      7737      7741      7739      7737      7740      7739      7737      7741
      7740      7737      7741      7737      7741      7743      7737      7741      7744
      7737      7741      7745      7743      7741      7744      7743      7741      7745
      7744      7741      7745      7741      7745      7747      7741      7745      7748
      7741      7745      7749      7747      7745      7748      7747      7745      7749
      7748      7745      7749      7745      7749      7751      7745      7749      7752
      7745      7749      7753      7751      7749      7752      7751      7749      7753
      7752      7749      7753      7749      7753      7755      7749      7753      7756
      7749      7753      7757      7755      7753      7756      7755      7753      7757
      7756      7753      7757      7753      7757      7759      7753      7757      7760
      7753      7757      7761      7759      7757      7760      7759      7757      7761
      7760      7757      7761      7757      7761      7763      7757      7761      7764
      7757      7761      7765      7763      7761      7764      7763      7761      7765
      7764      7761      7765      7761      7765      7767      7761      7765      7768
      7761      7765      7769      7767      7765      7768      7767      7765      7769
      7768      7765      7769      7699      7770      7772      7699      7770      7773
      7699      7770      7774      7772      7770      7773      7772      7770      7774
      7773      7770      7774      7770      7774      7776      7770      7774      7777
      7770      7774      7778      7776      7774      7777      7776      7774      7778
      7777      7774      7778      7774      7778      7780      7774      7778      7781
      7774      7778      7782      7780      7778      7781      7780      7778      7782
      7781      7778      7782      7778      7782      7784      7778      7782      7785
      7778      7782      7786      7784      7782      7785      7784      7782      7786
      7785      7782      7786      7782      7786      7788      7782      7786      7789
      7782      7786      7790      7788      7786      7789      7788      7786      7790
      7789      7786      7790      7786      7790      7792      7786      7790      7793
      7786      7790      7794      7792      7790      7793      7792      7790      7794
      7793      7790      7794      7790      7794      7796      7790      7794      7797
      7790      7794      7798      7796      7794      7797      7796      7794      7798
      7797      7794      7798      7794      7798      7800      7794      7798      7801
      7794      7798      7802      7800      7798      7801      7800      7798      7802
      7801      7798      7802      7798      7802      7804      7798      7802      7805
      7798      7802      7806      7804      7802      7805      7804      7802      7806
      7805      7802      7806      7802      7806      7808      7802      7806      7809
      7802      7806      7810      7808      7806      7809      7808      7806      7810
      7809      7806      7810      7806      7810      7812      7806      7810      7813
      7806      7810      7814      7812      7810      7813      7812      7810      7814
      7813      7810      7814      7810      7814      7816      7810      7814      7817
      7810      7814      7818      7816      7814      7817      7816      7814      7818
      7817      7814      7818      7814      7818      7820      7814      7818      7821
      7814      7818      7822      7820      7818      7821      7820      7818      7822
      7821      7818      7822      7818      7822      7824      7818      7822      7825
      7818      7822      7826      7824      7822      7825      7824      7822      7826
      7825      7822      7826      7829      7827      7830      7829      7827      7831
      7829      7827      7832      7830      7827      7831      7830      7827      7832
      7831      7827      7832      7827      7832      7834      7827      7832      7835
      7827      7832      7836      7834      7832      7835      7834      7832      7836
      7835      7832      7836      7832      7836      7838      7832      7836      7839
      7832      7836      7848      7838      7836      7839      7838      7836      7848
      7839      7836      7848      7842      7840      7844      7842      7840      7846
      7842      7840      7848      7844      7840      7846      7844      7840      7848
      7846      7840      7848      7840      7846      7850      7836      7848      7840
      7846      7850      7852      7846      7850      7853      7846      7850      7854
      7852      7850      7853      7852      7850      7854      7853      7850      7854
      7850      7854      7856      7850      7854      7857      7850      7854      7871
      7856      7854      7857      7856      7854      7871      7857      7854      7871
      7854      7857      7859      7857      7859      7861      7857      7859      7863
      7861      7859      7863      7859      7863      7865      7859      7863      7866
      7859      7863      7889      7865      7863      7866      7865      7863      7889
      7866      7863      7889      7854      7871      7873      7854      7871      7874
      7854      7871      7875      7873      7871      7874      7873      7871      7875
      7874      7871      7875      7871      7875      7877      7875      7877      7879
      7875      7877      7881      7879      7877      7881      7877      7881      7883
      7877      7881      7884      7877      7881      7952      7883      7881      7884
      7883      7881      7952      7884      7881      7952      7863      7889      7891
      7863      7889      7892      7863      7889      7893      7891      7889      7892
      7891      7889      7893      7892      7889      7893      7889      7893      7895
      7889      7893      7896      7889      7893      7897      7895      7893      7896
      7895      7893      7897      7896      7893      7897      7893      7897      7899
      7893      7897      7900      7893      7897      7901      7899      7897      7900
      7899      7897      7901      7900      7897      7901      7897      7901      7903
      7897      7901      7904      7897      7901      7905      7903      7901      7904
      7903      7901      7905      7904      7901      7905      7901      7905      7907
      7901      7905      7908      7901      7905      7909      7907      7905      7908
      7907      7905      7909      7908      7905      7909      7905      7909      7911
      7905      7909      7912      7905      7909      7913      7911      7909      7912
      7911      7909      7913      7912      7909      7913      7909      7913      7915
      7909      7913      7916      7915      7913      7916      7913      7916      7918
      7913      7916      7919      7918      7916      7919      7916      7919      7921
      7916      7919      7922      7916      7919      7923      7921      7919      7922
      7921      7919      7923      7922      7919      7923      7919      7923      7925
      7919      7923      7926      7919      7923      7927      7925      7923      7926
      7925      7923      7927      7926      7923      7927      7923      7927      7929
      7923      7927      7930      7923      7927      7931      7929      7927      7930
      7929      7927      7931      7930      7927      7931      7927      7931      7933
      7927      7931      7934      7927      7931      7935      7933      7931      7934
      7933      7931      7935      7934      7931      7935      7931      7935      7937
      7931      7935      7938      7931      7935      7939      7937      7935      7938
      7937      7935      7939      7938      7935      7939      7935      7939      7941
      7935      7939      7942      7935      7939      7943      7941      7939      7942
      7941      7939      7943      7942      7939      7943      7939      7943      7945
      7939      7943      7946      7939      7943      7947      7945      7943      7946
      7945      7943      7947      7946      7943      7947      7943      7947      7949
      7943      7947      7950      7943      7947      7951      7949      7947      7950
      7949      7947      7951      7950      7947      7951      7881      7952      7954
      7881      7952      7955      7881      7952      7956      7954      7952      7955
      7954      7952      7956      7955      7952      7956      7952      7956      7958
      7952      7956      7959      7952      7956      7960      7958      7956      7959
      7958      7956      7960      7959      7956      7960      7956      7960      7962
      7956      7960      7963      7956      7960      7964      7962      7960      7963
      7962      7960      7964      7963      7960      7964      7960      7964      7966
      7960      7964      7967      7960      7964      7968      7966      7964      7967
      7966      7964      7968      7967      7964      7968      7964      7968      7970
      7964      7968      7971      7964      7968      7972      7970      7968      7971
      7970      7968      7972      7971      7968      7972      7968      7972      7974
      7968      7972      7975      7968      7972      7976      7974      7972      7975
      7974      7972      7976      7975      7972      7976      7972      7976      7978
      7972      7976      7979      7972      7976      7980      7978      7976      7979
      7978      7976      7980      7979      7976      7980      7976      7980      7982
      7976      7980      7983      7976      7980      7984      7982      7980      7983
      7982      7980      7984      7983      7980      7984      7980      7984      7986
      7980      7984      7987      7980      7984      7988      7986      7984      7987
      7986      7984      7988      7987      7984      7988      7984      7988      7990
      7984      7988      7991      7984      7988      7992      7990      7988      7991
      7990      7988      7992      7991      7988      7992      7988      7992      7994
      7988      7992      7995      7988      7992      7996      7994      7992      7995
      7994      7992      7996      7995      7992      7996      7992      7996      7998
      7992      7996      7999      7992      7996      8000      7998      7996      7999
      7998      7996      8000      7999      7996      8000      7996      8000      8002
      7996      8000      8003      7996      8000      8004      8002      8000      8003
      8002      8000      8004      8003      8000      8004      8000      8004      8006
      8000      8004      8007      8000      8004      8008      8006      8004      8007
      8006      8004      8008      8007      8004      8008      8011      8009      8012
      8011      8009      8013      8011      8009      8014      8012      8009      8013
      8012      8009      8014      8013      8009      8014      8009      8014      8016
      8009      8014      8017      8009      8014      8018      8016      8014      8017
      8016      8014      8018      8017      8014      8018      8014      8018      8020
      8014      8018      8021      8014      8018      8030      8020      8018      8021
      8020      8018      8030      8021      8018      8030      8024      8022      8026
      8024      8022      8028      8024      8022      8030      8026      8022      8028
      8026      8022      8030      8028      8022      8030      8022      8028      8032
      8018      8030      8022      8028      8032      8034      8028      8032      8035
      8028      8032      8036      8034      8032      8035      8034      8032      8036
      8035      8032      8036      8032      8036      8038      8032      8036      8039
      8032      8036      8053      8038      8036      8039      8038      8036      8053
      8039      8036      8053      8036      8039      8041      8039      8041      8043
      8039      8041      8045      8043      8041      8045      8041      8045      8047
      8041      8045      8048      8041      8045      8071      8047      8045      8048
      8047      8045      8071      8048      8045      8071      8036      8053      8055
      8036      8053      8056      8036      8053      8057      8055      8053      8056
      8055      8053      8057      8056      8053      8057      8053      8057      8059
      8057      8059      8061      8057      8059      8063      8061      8059      8063
      8059      8063      8065      8059      8063      8066      8059      8063      8134
      8065      8063      8066      8065      8063      8134      8066      8063      8134
      8045      8071      8073      8045      8071      8074      8045      8071      8075
      8073      8071      8074      8073      8071      8075      8074      8071      8075
      8071      8075      8077      8071      8075      8078      8071      8075      8079
      8077      8075      8078      8077      8075      8079      8078      8075      8079
      8075      8079      8081      8075      8079      8082      8075      8079      8083
      8081      8079      8082      8081      8079      8083      8082      8079      8083
      8079      8083      8085      8079      8083      8086      8079      8083      8087
      8085      8083      8086      8085      8083      8087      8086      8083      8087
      8083      8087      8089      8083      8087      8090      8083      8087      8091
      8089      8087      8090      8089      8087      8091      8090      8087      8091
      8087      8091      8093      8087      8091      8094      8087      8091      8095
      8093      8091      8094      8093      8091      8095      8094      8091      8095
      8091      8095      8097      8091      8095      8098      8097      8095      8098
      8095      8098      8100      8095      8098      8101      8100      8098      8101
      8098      8101      8103      8098      8101      8104      8098      8101      8105
      8103      8101      8104      8103      8101      8105      8104      8101      8105
      8101      8105      8107      8101      8105      8108      8101      8105      8109
      8107      8105      8108      8107      8105      8109      8108      8105      8109
      8105      8109      8111      8105      8109      8112      8105      8109      8113
      8111      8109      8112      8111      8109      8113      8112      8109      8113
      8109      8113      8115      8109      8113      8116      8109      8113      8117
      8115      8113      8116      8115      8113      8117      8116      8113      8117
      8113      8117      8119      8113      8117      8120      8113      8117      8121
      8119      8117      8120      8119      8117      8121      8120      8117      8121
      8117      8121      8123      8117      8121      8124      8117      8121      8125
      8123      8121      8124      8123      8121      8125      8124      8121      8125
      8121      8125      8127      8121      8125      8128      8121      8125      8129
      8127      8125      8128      8127      8125      8129      8128      8125      8129
      8125      8129      8131      8125      8129      8132      8125      8129      8133
      8131      8129      8132      8131      8129      8133      8132      8129      8133
      8063      8134      8136      8063      8134      8137      8063      8134      8138
      8136      8134      8137      8136      8134      8138      8137      8134      8138
      8134      8138      8140      8134      8138      8141      8134      8138      8142
      8140      8138      8141      8140      8138      8142      8141      8138      8142
      8138      8142      8144      8138      8142      8145      8138      8142      8146
      8144      8142      8145      8144      8142      8146      8145      8142      8146
      8142      8146      8148      8142      8146      8149      8142      8146      8150
      8148      8146      8149      8148      8146      8150      8149      8146      8150
      8146      8150      8152      8146      8150      8153      8146      8150      8154
      8152      8150      8153      8152      8150      8154      8153      8150      8154
      8150      8154      8156      8150      8154      8157      8150      8154      8158
      8156      8154      8157      8156      8154      8158      8157      8154      8158
      8154      8158      8160      8154      8158      8161      8154      8158      8162
      8160      8158      8161      8160      8158      8162      8161      8158      8162
      8158      8162      8164      8158      8162      8165      8158      8162      8166
      8164      8162      8165      8164      8162      8166      8165      8162      8166
      8162      8166      8168      8162      8166      8169      8162      8166      8170
      8168      8166      8169      8168      8166      8170      8169      8166      8170
      8166      8170      8172      8166      8170      8173      8166      8170      8174
      8172      8170      8173      8172      8170      8174      8173      8170      8174
      8170      8174      8176      8170      8174      8177      8170      8174      8178
      8176      8174      8177      8176      8174      8178      8177      8174      8178
      8174      8178      8180      8174      8178      8181      8174      8178      8182
      8180      8178      8181      8180      8178      8182      8181      8178      8182
      8178      8182      8184      8178      8182      8185      8178      8182      8186
      8184      8182      8185      8184      8182      8186      8185      8182      8186
      8182      8186      8188      8182      8186      8189      8182      8186      8190
      8188      8186      8189      8188      8186      8190      8189      8186      8190
      8193      8191      8194      8193      8191      8195      8193      8191      8196
      8194      8191      8195      8194      8191      8196      8195      8191      8196
      8191      8196      8198      8191      8196      8199      8191      8196      8200
      8198      8196      8199      8198      8196      8200      8199      8196      8200
      8196      8200      8202      8196      8200      8203      8196      8200      8212
      8202      8200      8203      8202      8200      8212      8203      8200      8212
      8206      8204      8208      8206      8204      8210      8206      8204      8212
      8208      8204      8210      8208      8204      8212      8210      8204      8212
      8204      8210      8214      8200      8212      8204      8210      8214      8216
      8210      8214      8217      8210      8214      8218      8216      8214      8217
      8216      8214      8218      8217      8214      8218      8214      8218      8220
      8214      8218      8221      8214      8218      8235      8220      8218      8221
      8220      8218      8235      8221      8218      8235      8218      8221      8223
      8221      8223      8225      8221      8223      8227      8225      8223      8227
      8223      8227      8229      8223      8227      8230      8223      8227      8253
      8229      8227      8230      8229      8227      8253      8230      8227      8253
      8218      8235      8237      8218      8235      8238      8218      8235      8239
      8237      8235      8238      8237      8235      8239      8238      8235      8239
      8235      8239      8241      8239      8241      8243      8239      8241      8245
      8243      8241      8245      8241      8245      8247      8241      8245      8248
      8241      8245      8316      8247      8245      8248      8247      8245      8316
      8248      8245      8316      8227      8253      8255      8227      8253      8256
      8227      8253      8257      8255      8253      8256      8255      8253      8257
      8256      8253      8257      8253      8257      8259      8253      8257      8260
      8253      8257      8261      8259      8257      8260      8259      8257      8261
      8260      8257      8261      8257      8261      8263      8257      8261      8264
      8257      8261      8265      8263      8261      8264      8263      8261      8265
      8264      8261      8265      8261      8265      8267      8261      8265      8268
      8261      8265      8269      8267      8265      8268      8267      8265      8269
      8268      8265      8269      8265      8269      8271      8265      8269      8272
      8265      8269      8273      8271      8269      8272      8271      8269      8273
      8272      8269      8273      8269      8273      8275      8269      8273      8276
      8269      8273      8277      8275      8273      8276      8275      8273      8277
      8276      8273      8277      8273      8277      8279      8273      8277      8280
      8279      8277      8280      8277      8280      8282      8277      8280      8283
      8282      8280      8283      8280      8283      8285      8280      8283      8286
      8280      8283      8287      8285      8283      8286      8285      8283      8287
      8286      8283      8287      8283      8287      8289      8283      8287      8290
      8283      8287      8291      8289      8287      8290      8289      8287      8291
      8290      8287      8291      8287      8291      8293      8287      8291      8294
      8287      8291      8295      8293      8291      8294      8293      8291      8295
      8294      8291      8295      8291      8295      8297      8291      8295      8298
      8291      8295      8299      8297      8295      8298      8297      8295      8299
      8298      8295      8299      8295      8299      8301      8295      8299      8302
      8295      8299      8303      8301      8299      8302      8301      8299      8303
      8302      8299      8303      8299      8303      8305      8299      8303      8306
      8299      8303      8307      8305      8303      8306      8305      8303      8307
      8306      8303      8307      8303      8307      8309      8303      8307      8310
      8303      8307      8311      8309      8307      8310      8309      8307      8311
      8310      8307      8311      8307      8311      8313      8307      8311      8314
      8307      8311      8315      8313      8311      8314      8313      8311      8315
      8314      8311      8315      8245      8316      8318      8245      8316      8319
      8245      8316      8320      8318      8316      8319      8318      8316      8320
      8319      8316      8320      8316      8320      8322      8316      8320      8323
      8316      8320      8324      8322      8320      8323      8322      8320      8324
      8323      8320      8324      8320      8324      8326      8320      8324      8327
      8320      8324      8328      8326      8324      8327      8326      8324      8328
      8327      8324      8328      8324      8328      8330      8324      8328      8331
      8324      8328      8332      8330      8328      8331      8330      8328      8332
      8331      8328      8332      8328      8332      8334      8328      8332      8335
      8328      8332      8336      8334      8332      8335      8334      8332      8336
      8335      8332      8336      8332      8336      8338      8332      8336      8339
      8332      8336      8340      8338      8336      8339      8338      8336      8340
      8339      8336      8340      8336      8340      8342      8336      8340      8343
      8336      8340      8344      8342      8340      8343      8342      8340      8344
      8343      8340      8344      8340      8344      8346      8340      8344      8347
      8340      8344      8348      8346      8344      8347      8346      8344      8348
      8347      8344      8348      8344      8348      8350      8344      8348      8351
      8344      8348      8352      8350      8348      8351      8350      8348      8352
      8351      8348      8352      8348      8352      8354      8348      8352      8355
      8348      8352      8356      8354      8352      8355      8354      8352      8356
      8355      8352      8356      8352      8356      8358      8352      8356      8359
      8352      8356      8360      8358      8356      8359      8358      8356      8360
      8359      8356      8360      8356      8360      8362      8356      8360      8363
      8356      8360      8364      8362      8360      8363      8362      8360      8364
      8363      8360      8364      8360      8364      8366      8360      8364      8367
      8360      8364      8368      8366      8364      8367      8366      8364      8368
      8367      8364      8368      8364      8368      8370      8364      8368      8371
      8364      8368      8372      8370      8368      8371      8370      8368      8372
      8371      8368      8372      8375      8373      8376      8375      8373      8377
      8375      8373      8378      8376      8373      8377      8376      8373      8378
      8377      8373      8378      8373      8378      8380      8373      8378      8381
      8373      8378      8382      8380      8378      8381      8380      8378      8382
      8381      8378      8382      8378      8382      8384      8378      8382      8385
      8378      8382      8394      8384      8382      8385      8384      8382      8394
      8385      8382      8394      8388      8386      8390      8388      8386      8392
      8388      8386      8394      8390      8386      8392      8390      8386      8394
      8392      8386      8394      8386      8392      8396      8382      8394      8386
      8392      8396      8398      8392      8396      8399      8392      8396      8400
      8398      8396      8399      8398      8396      8400      8399      8396      8400
      8396      8400      8402      8396      8400      8403      8396      8400      8417
      8402      8400      8403      8402      8400      8417      8403      8400      8417
      8400      8403      8405      8403      8405      8407      8403      8405      8409
      8407      8405      8409      8405      8409      8411      8405      8409      8412
      8405      8409      8435      8411      8409      8412      8411      8409      8435
      8412      8409      8435      8400      8417      8419      8400      8417      8420
      8400      8417      8421      8419      8417      8420      8419      8417      8421
      8420      8417      8421      8417      8421      8423      8421      8423      8425
      8421      8423      8427      8425      8423      8427      8423      8427      8429
      8423      8427      8430      8423      8427      8498      8429      8427      8430
      8429      8427      8498      8430      8427      8498      8409      8435      8437
      8409      8435      8438      8409      8435      8439      8437      8435      8438
      8437      8435      8439      8438      8435      8439      8435      8439      8441
      8435      8439      8442      8435      8439      8443      8441      8439      8442
      8441      8439      8443      8442      8439      8443      8439      8443      8445
      8439      8443      8446      8439      8443      8447      8445      8443      8446
      8445      8443      8447      8446      8443      8447      8443      8447      8449
      8443      8447      8450      8443      8447      8451      8449      8447      8450
      8449      8447      8451      8450      8447      8451      8447      8451      8453
      8447      8451      8454      8447      8451      8455      8453      8451      8454
      8453      8451      8455      8454      8451      8455      8451      8455      8457
      8451      8455      8458      8451      8455      8459      8457      8455      8458
      8457      8455      8459      8458      8455      8459      8455      8459      8461
      8455      8459      8462      8461      8459      8462      8459      8462      8464
      8459      8462      8465      8464      8462      8465      8462      8465      8467
      8462      8465      8468      8462      8465      8469      8467      8465      8468
      8467      8465      8469      8468      8465      8469      8465      8469      8471
      8465      8469      8472      8465      8469      8473      8471      8469      8472
      8471      8469      8473      8472      8469      8473      8469      8473      8475
      8469      8473      8476      8469      8473      8477      8475      8473      8476
      8475      8473      8477      8476      8473      8477      8473      8477      8479
      8473      8477      8480      8473      8477      8481      8479      8477      8480
      8479      8477      8481      8480      8477      8481      8477      8481      8483
      8477      8481      8484      8477      8481      8485      8483      8481      8484
      8483      8481      8485      8484      8481      8485      8481      8485      8487
      8481      8485      8488      8481      8485      8489      8487      8485      8488
      8487      8485      8489      8488      8485      8489      8485      8489      8491
      8485      8489      8492      8485      8489      8493      8491      8489      8492
      8491      8489      8493      8492      8489      8493      8489      8493      8495
      8489      8493      8496      8489      8493      8497      8495      8493      8496
      8495      8493      8497      8496      8493      8497      8427      8498      8500
      8427      8498      8501      8427      8498      8502      8500      8498      8501
      8500      8498      8502      8501      8498      8502      8498      8502      8504
      8498      8502      8505      8498      8502      8506      8504      8502      8505
      8504      8502      8506      8505      8502      8506      8502      8506      8508
      8502      8506      8509      8502      8506      8510      8508      8506      8509
      8508      8506      8510      8509      8506      8510      8506      8510      8512
      8506      8510      8513      8506      8510      8514      8512      8510      8513
      8512      8510      8514      8513      8510      8514      8510      8514      8516
      8510      8514      8517      8510      8514      8518      8516      8514      8517
      8516      8514      8518      8517      8514      8518      8514      8518      8520
      8514      8518      8521      8514      8518      8522      8520      8518      8521
      8520      8518      8522      8521      8518      8522      8518      8522      8524
      8518      8522      8525      8518      8522      8526      8524      8522      8525
      8524      8522      8526      8525      8522      8526      8522      8526      8528
      8522      8526      8529      8522      8526      8530      8528      8526      8529
      8528      8526      8530      8529      8526      8530      8526      8530      8532
      8526      8530      8533      8526      8530      8534      8532      8530      8533
      8532      8530      8534      8533      8530      8534      8530      8534      8536
      8530      8534      8537      8530      8534      8538      8536      8534      8537
      8536      8534      8538      8537      8534      8538      8534      8538      8540
      8534      8538      8541      8534      8538      8542      8540      8538      8541
      8540      8538      8542      8541      8538      8542      8538      8542      8544
      8538      8542      8545      8538      8542      8546      8544      8542      8545
      8544      8542      8546      8545      8542      8546      8542      8546      8548
      8542      8546      8549      8542      8546      8550      8548      8546      8549
      8548      8546      8550      8549      8546      8550      8546      8550      8552
      8546      8550      8553      8546      8550      8554      8552      8550      8553
      8552      8550      8554      8553      8550      8554      8557      8555      8558
      8557      8555      8559      8557      8555      8560      8558      8555      8559
      8558      8555      8560      8559      8555      8560      8555      8560      8562
      8555      8560      8563      8555      8560      8564      8562      8560      8563
      8562      8560      8564      8563      8560      8564      8560      8564      8566
      8560      8564      8567      8560      8564      8576      8566      8564      8567
      8566      8564      8576      8567      8564      8576      8570      8568      8572
      8570      8568      8574      8570      8568      8576      8572      8568      8574
      8572      8568      8576      8574      8568      8576      8568      8574      8578
      8564      8576      8568      8574      8578      8580      8574      8578      8581
      8574      8578      8582      8580      8578      8581      8580      8578      8582
      8581      8578      8582      8578      8582      8584      8578      8582      8585
      8578      8582      8599      8584      8582      8585      8584      8582      8599
      8585      8582      8599      8582      8585      8587      8585      8587      8589
      8585      8587      8591      8589      8587      8591      8587      8591      8593
      8587      8591      8594      8587      8591      8617      8593      8591      8594
      8593      8591      8617      8594      8591      8617      8582      8599      8601
      8582      8599      8602      8582      8599      8603      8601      8599      8602
      8601      8599      8603      8602      8599      8603      8599      8603      8605
      8603      8605      8607      8603      8605      8609      8607      8605      8609
      8605      8609      8611      8605      8609      8612      8605      8609      8680
      8611      8609      8612      8611      8609      8680      8612      8609      8680
      8591      8617      8619      8591      8617      8620      8591      8617      8621
      8619      8617      8620      8619      8617      8621      8620      8617      8621
      8617      8621      8623      8617      8621      8624      8617      8621      8625
      8623      8621      8624      8623      8621      8625      8624      8621      8625
      8621      8625      8627      8621      8625      8628      8621      8625      8629
      8627      8625      8628      8627      8625      8629      8628      8625      8629
      8625      8629      8631      8625      8629      8632      8625      8629      8633
      8631      8629      8632      8631      8629      8633      8632      8629      8633
      8629      8633      8635      8629      8633      8636      8629      8633      8637
      8635      8633      8636      8635      8633      8637      8636      8633      8637
      8633      8637      8639      8633      8637      8640      8633      8637      8641
      8639      8637      8640      8639      8637      8641      8640      8637      8641
      8637      8641      8643      8637      8641      8644      8643      8641      8644
      8641      8644      8646      8641      8644      8647      8646      8644      8647
      8644      8647      8649      8644      8647      8650      8644      8647      8651
      8649      8647      8650      8649      8647      8651      8650      8647      8651
      8647      8651      8653      8647      8651      8654      8647      8651      8655
      8653      8651      8654      8653      8651      8655      8654      8651      8655
      8651      8655      8657      8651      8655      8658      8651      8655      8659
      8657      8655      8658      8657      8655      8659      8658      8655      8659
      8655      8659      8661      8655      8659      8662      8655      8659      8663
      8661      8659      8662      8661      8659      8663      8662      8659      8663
      8659      8663      8665      8659      8663      8666      8659      8663      8667
      8665      8663      8666      8665      8663      8667      8666      8663      8667
      8663      8667      8669      8663      8667      8670      8663      8667      8671
      8669      8667      8670      8669      8667      8671      8670      8667      8671
      8667      8671      8673      8667      8671      8674      8667      8671      8675
      8673      8671      8674      8673      8671      8675      8674      8671      8675
      8671      8675      8677      8671      8675      8678      8671      8675      8679
      8677      8675      8678      8677      8675      8679      8678      8675      8679
      8609      8680      8682      8609      8680      8683      8609      8680      8684
      8682      8680      8683      8682      8680      8684      8683      8680      8684
      8680      8684      8686      8680      8684      8687      8680      8684      8688
      8686      8684      8687      8686      8684      8688      8687      8684      8688
      8684      8688      8690      8684      8688      8691      8684      8688      8692
      8690      8688      8691      8690      8688      8692      8691      8688      8692
      8688      8692      8694      8688      8692      8695      8688      8692      8696
      8694      8692      8695      8694      8692      8696      8695      8692      8696
      8692      8696      8698      8692      8696      8699      8692      8696      8700
      8698      8696      8699      8698      8696      8700      8699      8696      8700
      8696      8700      8702      8696      8700      8703      8696      8700      8704
      8702      8700      8703      8702      8700      8704      8703      8700      8704
      8700      8704      8706      8700      8704      8707      8700      8704      8708
      8706      8704      8707      8706      8704      8708      8707      8704      8708
      8704      8708      8710      8704      8708      8711      8704      8708      8712
      8710      8708      8711      8710      8708      8712      8711      8708      8712
      8708      8712      8714      8708      8712      8715      8708      8712      8716
      8714      8712      8715      8714      8712      8716      8715      8712      8716
      8712      8716      8718      8712      8716      8719      8712      8716      8720
      8718      8716      8719      8718      8716      8720      8719      8716      8720
      8716      8720      8722      8716      8720      8723      8716      8720      8724
      8722      8720      8723      8722      8720      8724      8723      8720      8724
      8720      8724      8726      8720      8724      8727      8720      8724      8728
      8726      8724      8727      8726      8724      8728      8727      8724      8728
      8724      8728      8730      8724      8728      8731      8724      8728      8732
      8730      8728      8731      8730      8728      8732      8731      8728      8732
      8728      8732      8734      8728      8732      8735      8728      8732      8736
      8734      8732      8735      8734      8732      8736      8735      8732      8736
      8739      8737      8740      8739      8737      8741      8739      8737      8742
      8740      8737      8741      8740      8737      8742      8741      8737      8742
      8737      8742      8744      8737      8742      8745      8737      8742      8746
      8744      8742      8745      8744      8742      8746      8745      8742      8746
      8742      8746      8748      8742      8746      8749      8742      8746      8758
      8748      8746      8749      8748      8746      8758      8749      8746      8758
      8752      8750      8754      8752      8750      8756      8752      8750      8758
      8754      8750      8756      8754      8750      8758      8756      8750      8758
      8750      8756      8760      8746      8758      8750      8756      8760      8762
      8756      8760      8763      8756      8760      8764      8762      8760      8763
      8762      8760      8764      8763      8760      8764      8760      8764      8766
      8760      8764      8767      8760      8764      8781      8766      8764      8767
      8766      8764      8781      8767      8764      8781      8764      8767      8769
      8767      8769      8771      8767      8769      8773      8771      8769      8773
      8769      8773      8775      8769      8773      8776      8769      8773      8799
      8775      8773      8776      8775      8773      8799      8776      8773      8799
      8764      8781      8783      8764      8781      8784      8764      8781      8785
      8783      8781      8784      8783      8781      8785      8784      8781      8785
      8781      8785      8787      8785      8787      8789      8785      8787      8791
      8789      8787      8791      8787      8791      8793      8787      8791      8794
      8787      8791      8862      8793      8791      8794      8793      8791      8862
      8794      8791      8862      8773      8799      8801      8773      8799      8802
      8773      8799      8803      8801      8799      8802      8801      8799      8803
      8802      8799      8803      8799      8803      8805      8799      8803      8806
      8799      8803      8807      8805      8803      8806      8805      8803      8807
      8806      8803      8807      8803      8807      8809      8803      8807      8810
      8803      8807      8811      8809      8807      8810      8809      8807      8811
      8810      8807      8811      8807      8811      8813      8807      8811      8814
      8807      8811      8815      8813      8811      8814      8813      8811      8815
      8814      8811      8815      8811      8815      8817      8811      8815      8818
      8811      8815      8819      8817      8815      8818      8817      8815      8819
      8818      8815      8819      8815      8819      8821      8815      8819      8822
      8815      8819      8823      8821      8819      8822      8821      8819      8823
      8822      8819      8823      8819      8823      8825      8819      8823      8826
      8825      8823      8826      8823      8826      8828      8823      8826      8829
      8828      8826      8829      8826      8829      8831      8826      8829      8832
      8826      8829      8833      8831      8829      8832      8831      8829      8833
      8832      8829      8833      8829      8833      8835      8829      8833      8836
      8829      8833      8837      8835      8833      8836      8835      8833      8837
      8836      8833      8837      8833      8837      8839      8833      8837      8840
      8833      8837      8841      8839      8837      8840      8839      8837      8841
      8840      8837      8841      8837      8841      8843      8837      8841      8844
      8837      8841      8845      8843      8841      8844      8843      8841      8845
      8844      8841      8845      8841      8845      8847      8841      8845      8848
      8841      8845      8849      8847      8845      8848      8847      8845      8849
      8848      8845      8849      8845      8849      8851      8845      8849      8852
      8845      8849      8853      8851      8849      8852      8851      8849      8853
      8852      8849      8853      8849      8853      8855      8849      8853      8856
      8849      8853      8857      8855      8853      8856      8855      8853      8857
      8856      8853      8857      8853      8857      8859      8853      8857      8860
      8853      8857      8861      8859      8857      8860      8859      8857      8861
      8860      8857      8861      8791      8862      8864      8791      8862      8865
      8791      8862      8866      8864      8862      8865      8864      8862      8866
      8865      8862      8866      8862      8866      8868      8862      8866      8869
      8862      8866      8870      8868      8866      8869      8868      8866      8870
      8869      8866      8870      8866      8870      8872      8866      8870      8873
      8866      8870      8874      8872      8870      8873      8872      8870      8874
      8873      8870      8874      8870      8874      8876      8870      8874      8877
      8870      8874      8878      8876      8874      8877      8876      8874      8878
      8877      8874      8878      8874      8878      8880      8874      8878      8881
      8874      8878      8882      8880      8878      8881      8880      8878      8882
      8881      8878      8882      8878      8882      8884      8878      8882      8885
      8878      8882      8886      8884      8882      8885      8884      8882      8886
      8885      8882      8886      8882      8886      8888      8882      8886      8889
      8882      8886      8890      8888      8886      8889      8888      8886      8890
      8889      8886      8890      8886      8890      8892      8886      8890      8893
      8886      8890      8894      8892      8890      8893      8892      8890      8894
      8893      8890      8894      8890      8894      8896      8890      8894      8897
      8890      8894      8898      8896      8894      8897      8896      8894      8898
      8897      8894      8898      8894      8898      8900      8894      8898      8901
      8894      8898      8902      8900      8898      8901      8900      8898      8902
      8901      8898      8902      8898      8902      8904      8898      8902      8905
      8898      8902      8906      8904      8902      8905      8904      8902      8906
      8905      8902      8906      8902      8906      8908      8902      8906      8909
      8902      8906      8910      8908      8906      8909      8908      8906      8910
      8909      8906      8910      8906      8910      8912      8906      8910      8913
      8906      8910      8914      8912      8910      8913      8912      8910      8914
      8913      8910      8914      8910      8914      8916      8910      8914      8917
      8910      8914      8918      8916      8914      8917      8916      8914      8918
      8917      8914      8918      8921      8919      8922      8921      8919      8923
      8921      8919      8924      8922      8919      8923      8922      8919      8924
      8923      8919      8924      8919      8924      8926      8919      8924      8927
      8919      8924      8928      8926      8924      8927      8926      8924      8928
      8927      8924      8928      8924      8928      8930      8924      8928      8931
      8924      8928      8940      8930      8928      8931      8930      8928      8940
      8931      8928      8940      8934      8932      8936      8934      8932      8938
      8934      8932      8940      8936      8932      8938      8936      8932      8940
      8938      8932      8940      8932      8938      8942      8928      8940      8932
      8938      8942      8944      8938      8942      8945      8938      8942      8946
      8944      8942      8945      8944      8942      8946      8945      8942      8946
      8942      8946      8948      8942      8946      8949      8942      8946      8963
      8948      8946      8949      8948      8946      8963      8949      8946      8963
      8946      8949      8951      8949      8951      8953      8949      8951      8955
      8953      8951      8955      8951      8955      8957      8951      8955      8958
      8951      8955      8981      8957      8955      8958      8957      8955      8981
      8958      8955      8981      8946      8963      8965      8946      8963      8966
      8946      8963      8967      8965      8963      8966      8965      8963      8967
      8966      8963      8967      8963      8967      8969      8967      8969      8971
      8967      8969      8973      8971      8969      8973      8969      8973      8975
      8969      8973      8976      8969      8973      9044      8975      8973      8976
      8975      8973      9044      8976      8973      9044      8955      8981      8983
      8955      8981      8984      8955      8981      8985      8983      8981      8984
      8983      8981      8985      8984      8981      8985      8981      8985      8987
      8981      8985      8988      8981      8985      8989      8987      8985      8988
      8987      8985      8989      8988      8985      8989      8985      8989      8991
      8985      8989      8992      8985      8989      8993      8991      8989      8992
      8991      8989      8993      8992      8989      8993      8989      8993      8995
      8989      8993      8996      8989      8993      8997      8995      8993      8996
      8995      8993      8997      8996      8993      8997      8993      8997      8999
      8993      8997      9000      8993      8997      9001      8999      8997      9000
      8999      8997      9001      9000      8997      9001      8997      9001      9003
      8997      9001      9004      8997      9001      9005      9003      9001      9004
      9003      9001      9005      9004      9001      9005      9001      9005      9007
      9001      9005      9008      9007      9005      9008      9005      9008      9010
      9005      9008      9011      9010      9008      9011      9008      9011      9013
      9008      9011      9014      9008      9011      9015      9013      9011      9014
      9013      9011      9015      9014      9011      9015      9011      9015      9017
      9011      9015      9018      9011      9015      9019      9017      9015      9018
      9017      9015      9019      9018      9015      9019      9015      9019      9021
      9015      9019      9022      9015      9019      9023      9021      9019      9022
      9021      9019      9023      9022      9019      9023      9019      9023      9025
      9019      9023      9026      9019      9023      9027      9025      9023      9026
      9025      9023      9027      9026      9023      9027      9023      9027      9029
      9023      9027      9030      9023      9027      9031      9029      9027      9030
      9029      9027      9031      9030      9027      9031      9027      9031      9033
      9027      9031      9034      9027      9031      9035      9033      9031      9034
      9033      9031      9035      9034      9031      9035      9031      9035      9037
      9031      9035      9038      9031      9035      9039      9037      9035      9038
      9037      9035      9039      9038      9035      9039      9035      9039      9041
      9035      9039      9042      9035      9039      9043      9041      9039      9042
      9041      9039      9043      9042      9039      9043      8973      9044      9046
      8973      9044      9047      8973      9044      9048      9046      9044      9047
      9046      9044      9048      9047      9044      9048      9044      9048      9050
      9044      9048      9051      9044      9048      9052      9050      9048      9051
      9050      9048      9052      9051      9048      9052      9048      9052      9054
      9048      9052      9055      9048      9052      9056      9054      9052      9055
      9054      9052      9056      9055      9052      9056      9052      9056      9058
      9052      9056      9059      9052      9056      9060      9058      9056      9059
      9058      9056      9060      9059      9056      9060      9056      9060      9062
      9056      9060      9063      9056      9060      9064      9062      9060      9063
      9062      9060      9064      9063      9060      9064      9060      9064      9066
      9060      9064      9067      9060      9064      9068      9066      9064      9067
      9066      9064      9068      9067      9064      9068      9064      9068      9070
      9064      9068      9071      9064      9068      9072      9070      9068      9071
      9070      9068      9072      9071      9068      9072      9068      9072      9074
      9068      9072      9075      9068      9072      9076      9074      9072      9075
      9074      9072      9076      9075      9072      9076      9072      9076      9078
      9072      9076      9079      9072      9076      9080      9078      9076      9079
      9078      9076      9080      9079      9076      9080      9076      9080      9082
      9076      9080      9083      9076      9080      9084      9082      9080      9083
      9082      9080      9084      9083      9080      9084      9080      9084      9086
      9080      9084      9087      9080      9084      9088      9086      9084      9087
      9086      9084      9088      9087      9084      9088      9084      9088      9090
      9084      9088      9091      9084      9088      9092      9090      9088      9091
      9090      9088      9092      9091      9088      9092      9088      9092      9094
      9088      9092      9095      9088      9092      9096      9094      9092      9095
      9094      9092      9096      9095      9092      9096      9092      9096      9098
      9092      9096      9099      9092      9096      9100      9098      9096      9099
      9098      9096      9100      9099      9096      9100      9103      9101      9104
      9103      9101      9105      9103      9101      9106      9104      9101      9105
      9104      9101      9106      9105      9101      9106      9101      9106      9108
      9101      9106      9109      9101      9106      9110      9108      9106      9109
      9108      9106      9110      9109      9106      9110      9106      9110      9112
      9106      9110      9113      9106      9110      9122      9112      9110      9113
      9112      9110      9122      9113      9110      9122      9116      9114      9118
      9116      9114      9120      9116      9114      9122      9118      9114      9120
      9118      9114      9122      9120      9114      9122      9114      9120      9124
      9110      9122      9114      9120      9124      9126      9120      9124      9127
      9120      9124      9128      9126      9124      9127      9126      9124      9128
      9127      9124      9128      9124      9128      9130      9124      9128      9131
      9124      9128      9145      9130      9128      9131      9130      9128      9145
      9131      9128      9145      9128      9131      9133      9131      9133      9135
      9131      9133      9137      9135      9133      9137      9133      9137      9139
      9133      9137      9140      9133      9137      9163      9139      9137      9140
      9139      9137      9163      9140      9137      9163      9128      9145      9147
      9128      9145      9148      9128      9145      9149      9147      9145      9148
      9147      9145      9149      9148      9145      9149      9145      9149      9151
      9149      9151      9153      9149      9151      9155      9153      9151      9155
      9151      9155      9157      9151      9155      9158      9151      9155      9226
      9157      9155      9158      9157      9155      9226      9158      9155      9226
      9137      9163      9165      9137      9163      9166      9137      9163      9167
      9165      9163      9166      9165      9163      9167      9166      9163      9167
      9163      9167      9169      9163      9167      9170      9163      9167      9171
      9169      9167      9170      9169      9167      9171      9170      9167      9171
      9167      9171      9173      9167      9171      9174      9167      9171      9175
      9173      9171      9174      9173      9171      9175      9174      9171      9175
      9171      9175      9177      9171      9175      9178      9171      9175      9179
      9177      9175      9178      9177      9175      9179      9178      9175      9179
      9175      9179      9181      9175      9179      9182      9175      9179      9183
      9181      9179      9182      9181      9179      9183      9182      9179      9183
      9179      9183      9185      9179      9183      9186      9179      9183      9187
      9185      9183      9186      9185      9183      9187      9186      9183      9187
      9183      9187      9189      9183      9187      9190      9189      9187      9190
      9187      9190      9192      9187      9190      9193      9192      9190      9193
      9190      9193      9195      9190      9193      9196      9190      9193      9197
      9195      9193      9196      9195      9193      9197      9196      9193      9197
      9193      9197      9199      9193      9197      9200      9193      9197      9201
      9199      9197      9200      9199      9197      9201      9200      9197      9201
      9197      9201      9203      9197      9201      9204      9197      9201      9205
      9203      9201      9204      9203      9201      9205      9204      9201      9205
      9201      9205      9207      9201      9205      9208      9201      9205      9209
      9207      9205      9208      9207      9205      9209      9208      9205      9209
      9205      9209      9211      9205      9209      9212      9205      9209      9213
      9211      9209      9212      9211      9209      9213      9212      9209      9213
      9209      9213      9215      9209      9213      9216      9209      9213      9217
      9215      9213      9216      9215      9213      9217      9216      9213      9217
      9213      9217      9219      9213      9217      9220      9213      9217      9221
      9219      9217      9220      9219      9217      9221      9220      9217      9221
      9217      9221      9223      9217      9221      9224      9217      9221      9225
      9223      9221      9224      9223      9221      9225      9224      9221      9225
      9155      9226      9228      9155      9226      9229      9155      9226      9230
      9228      9226      9229      9228      9226      9230      9229      9226      9230
      9226      9230      9232      9226      9230      9233      9226      9230      9234
      9232      9230      9233      9232      9230      9234      9233      9230      9234
      9230      9234      9236      9230      9234      9237      9230      9234      9238
      9236      9234      9237      9236      9234      9238      9237      9234      9238
      9234      9238      9240      9234      9238      9241      9234      9238      9242
      9240      9238      9241      9240      9238      9242      9241      9238      9242
      9238      9242      9244      9238      9242      9245      9238      9242      9246
      9244      9242      9245      9244      9242      9246      9245      9242      9246
      9242      9246      9248      9242      9246      9249      9242      9246      9250
      9248      9246      9249      9248      9246      9250      9249      9246      9250
      9246      9250      9252      9246      9250      9253      9246      9250      9254
      9252      9250      9253      9252      9250      9254      9253      9250      9254
      9250      9254      9256      9250      9254      9257      9250      9254      9258
      9256      9254      9257      9256      9254      9258      9257      9254      9258
      9254      9258      9260      9254      9258      9261      9254      9258      9262
      9260      9258      9261      9260      9258      9262      9261      9258      9262
      9258      9262      9264      9258      9262      9265      9258      9262      9266
      9264      9262      9265      9264      9262      9266      9265      9262      9266
      9262      9266      9268      9262      9266      9269      9262      9266      9270
      9268      9266      9269      9268      9266      9270      9269      9266      9270
      9266      9270      9272      9266      9270      9273      9266      9270      9274
      9272      9270      9273      9272      9270      9274      9273      9270      9274
      9270      9274      9276      9270      9274      9277      9270      9274      9278
      9276      9274      9277      9276      9274      9278      9277      9274      9278
      9274      9278      9280      9274      9278      9281      9274      9278      9282
      9280      9278      9281      9280      9278      9282      9281      9278      9282
      9285      9283      9286      9285      9283      9287      9285      9283      9288
      9286      9283      9287      9286      9283      9288      9287      9283      9288
      9283      9288      9290      9283      9288      9291      9283      9288      9292
      9290      9288      9291      9290      9288      9292      9291      9288      9292
      9288      9292      9294      9288      9292      9295      9288      9292      9304
      9294      9292      9295      9294      9292      9304      9295      9292      9304
      9298      9296      9300      9298      9296      9302      9298      9296      9304
      9300      9296      9302      9300      9296      9304      9302      9296      9304
      9296      9302      9306      9292      9304      9296      9302      9306      9308
      9302      9306      9309      9302      9306      9310      9308      9306      9309
      9308      9306      9310      9309      9306      9310      9306      9310      9312
      9306      9310      9313      9306      9310      9327      9312      9310      9313
      9312      9310      9327      9313      9310      9327      9310      9313      9315
      9313      9315      9317      9313      9315      9319      9317      9315      9319
      9315      9319      9321      9315      9319      9322      9315      9319      9345
      9321      9319      9322      9321      9319      9345      9322      9319      9345
      9310      9327      9329      9310      9327      9330      9310      9327      9331
      9329      9327      9330      9329      9327      9331      9330      9327      9331
      9327      9331      9333      9331      9333      9335      9331      9333      9337
      9335      9333      9337      9333      9337      9339      9333      9337      9340
      9333      9337      9408      9339      9337      9340      9339      9337      9408
      9340      9337      9408      9319      9345      9347      9319      9345      9348
      9319      9345      9349      9347      9345      9348      9347      9345      9349
      9348      9345      9349      9345      9349      9351      9345      9349      9352
      9345      9349      9353      9351      9349      9352      9351      9349      9353
      9352      9349      9353      9349      9353      9355      9349      9353      9356
      9349      9353      9357      9355      9353      9356      9355      9353      9357
      9356      9353      9357      9353      9357      9359      9353      9357      9360
      9353      9357      9361      9359      9357      9360      9359      9357      9361
      9360      9357      9361      9357      9361      9363      9357      9361      9364
      9357      9361      9365      9363      9361      9364      9363      9361      9365
      9364      9361      9365      9361      9365      9367      9361      9365      9368
      9361      9365      9369      9367      9365      9368      9367      9365      9369
      9368      9365      9369      9365      9369      9371      9365      9369      9372
      9371      9369      9372      9369      9372      9374      9369      9372      9375
      9374      9372      9375      9372      9375      9377      9372      9375      9378
      9372      9375      9379      9377      9375      9378      9377      9375      9379
      9378      9375      9379      9375      9379      9381      9375      9379      9382
      9375      9379      9383      9381      9379      9382      9381      9379      9383
      9382      9379      9383      9379      9383      9385      9379      9383      9386
      9379      9383      9387      9385      9383      9386      9385      9383      9387
      9386      9383      9387      9383      9387      9389      9383      9387      9390
      9383      9387      9391      9389      9387      9390      9389      9387      9391
      9390      9387      9391      9387      9391      9393      9387      9391      9394
      9387      9391      9395      9393      9391      9394      9393      9391      9395
      9394      9391      9395      9391      9395      9397      9391      9395      9398
      9391      9395      9399      9397      9395      9398      9397      9395      9399
      9398      9395      9399      9395      9399      9401      9395      9399      9402
      9395      9399      9403      9401      9399      9402      9401      9399      9403
      9402      9399      9403      9399      9403      9405      9399      9403      9406
      9399      9403      9407      9405      9403      9406      9405      9403      9407
      9406      9403      9407      9337      9408      9410      9337      9408      9411
      9337      9408      9412      9410      9408      9411      9410      9408      9412
      9411      9408      9412      9408      9412      9414      9408      9412      9415
      9408      9412      9416      9414      9412      9415      9414      9412      9416
      9415      9412      9416      9412      9416      9418      9412      9416      9419
      9412      9416      9420      9418      9416      9419      9418      9416      9420
      9419      9416      9420      9416      9420      9422      9416      9420      9423
      9416      9420      9424      9422      9420      9423      9422      9420      9424
      9423      9420      9424      9420      9424      9426      9420      9424      9427
      9420      9424      9428      9426      9424      9427      9426      9424      9428
      9427      9424      9428      9424      9428      9430      9424      9428      9431
      9424      9428      9432      9430      9428      9431      9430      9428      9432
      9431      9428      9432      9428      9432      9434      9428      9432      9435
      9428      9432      9436      9434      9432      9435      9434      9432      9436
      9435      9432      9436      9432      9436      9438      9432      9436      9439
      9432      9436      9440      9438      9436      9439      9438      9436      9440
      9439      9436      9440      9436      9440      9442      9436      9440      9443
      9436      9440      9444      9442      9440      9443      9442      9440      9444
      9443      9440      9444      9440      9444      9446      9440      9444      9447
      9440      9444      9448      9446      9444      9447      9446      9444      9448
      9447      9444      9448      9444      9448      9450      9444      9448      9451
      9444      9448      9452      9450      9448      9451      9450      9448      9452
      9451      9448      9452      9448      9452      9454      9448      9452      9455
      9448      9452      9456      9454      9452      9455      9454      9452      9456
      9455      9452      9456      9452      9456      9458      9452      9456      9459
      9452      9456      9460      9458      9456      9459      9458      9456      9460
      9459      9456      9460      9456      9460      9462      9456      9460      9463
      9456      9460      9464      9462      9460      9463      9462      9460      9464
      9463      9460      9464      9467      9465      9468      9467      9465      9469
      9467      9465      9470      9468      9465      9469      9468      9465      9470
      9469      9465      9470      9465      9470      9472      9465      9470      9473
      9465      9470      9474      9472      9470      9473      9472      9470      9474
      9473      9470      9474      9470      9474      9476      9470      9474      9477
      9470      9474      9486      9476      9474      9477      9476      9474      9486
      9477      9474      9486      9480      9478      9482      9480      9478      9484
      9480      9478      9486      9482      9478      9484      9482      9478      9486
      9484      9478      9486      9478      9484      9488      9474      9486      9478
      9484      9488      9490      9484      9488      9491      9484      9488      9492
      9490      9488      9491      9490      9488      9492      9491      9488      9492
      9488      9492      9494      9488      9492      9495      9488      9492      9509
      9494      9492      9495      9494      9492      9509      9495      9492      9509
      9492      9495      9497      9495      9497      9499      9495      9497      9501
      9499      9497      9501      9497      9501      9503      9497      9501      9504
      9497      9501      9527      9503      9501      9504      9503      9501      9527
      9504      9501      9527      9492      9509      9511      9492      9509      9512
      9492      9509      9513      9511      9509      9512      9511      9509      9513
      9512      9509      9513      9509      9513      9515      9513      9515      9517
      9513      9515      9519      9517      9515      9519      9515      9519      9521
      9515      9519      9522      9515      9519      9590      9521      9519      9522
      9521      9519      9590      9522      9519      9590      9501      9527      9529
      9501      9527      9530      9501      9527      9531      9529      9527      9530
      9529      9527      9531      9530      9527      9531      9527      9531      9533
      9527      9531      9534      9527      9531      9535      9533      9531      9534
      9533      9531      9535      9534      9531      9535      9531      9535      9537
      9531      9535      9538      9531      9535      9539      9537      9535      9538
      9537      9535      9539      9538      9535      9539      9535      9539      9541
      9535      9539      9542      9535      9539      9543      9541      9539      9542
      9541      9539      9543      9542      9539      9543      9539      9543      9545
      9539      9543      9546      9539      9543      9547      9545      9543      9546
      9545      9543      9547      9546      9543      9547      9543      9547      9549
      9543      9547      9550      9543      9547      9551      9549      9547      9550
      9549      9547      9551      9550      9547      9551      9547      9551      9553
      9547      9551      9554      9553      9551      9554      9551      9554      9556
      9551      9554      9557      9556      9554      9557      9554      9557      9559
      9554      9557      9560      9554      9557      9561      9559      9557      9560
      9559      9557      9561      9560      9557      9561      9557      9561      9563
      9557      9561      9564      9557      9561      9565      9563      9561      9564
      9563      9561      9565      9564      9561      9565      9561      9565      9567
      9561      9565      9568      9561      9565      9569      9567      9565      9568
      9567      9565      9569      9568      9565      9569      9565      9569      9571
      9565      9569      9572      9565      9569      9573      9571      9569      9572
      9571      9569      9573      9572      9569      9573      9569      9573      9575
      9569      9573      9576      9569      9573      9577      9575      9573      9576
      9575      9573      9577      9576      9573      9577      9573      9577      9579
      9573      9577      9580      9573      9577      9581      9579      9577      9580
      9579      9577      9581      9580      9577      9581      9577      9581      9583
      9577      9581      9584      9577      9581      9585      9583      9581      9584
      9583      9581      9585      9584      9581      9585      9581      9585      9587
      9581      9585      9588      9581      9585      9589      9587      9585      9588
      9587      9585      9589      9588      9585      9589      9519      9590      9592
      9519      9590      9593      9519      9590      9594      9592      9590      9593
      9592      9590      9594      9593      9590      9594      9590      9594      9596
      9590      9594      9597      9590      9594      9598      9596      9594      9597
      9596      9594      9598      9597      9594      9598      9594      9598      9600
      9594      9598      9601      9594      9598      9602      9600      9598      9601
      9600      9598      9602      9601      9598      9602      9598      9602      9604
      9598      9602      9605      9598      9602      9606      9604      9602      9605
      9604      9602      9606      9605      9602      9606      9602      9606      9608
      9602      9606      9609      9602      9606      9610      9608      9606      9609
      9608      9606      9610      9609      9606      9610      9606      9610      9612
      9606      9610      9613      9606      9610      9614      9612      9610      9613
      9612      9610      9614      9613      9610      9614      9610      9614      9616
      9610      9614      9617      9610      9614      9618      9616      9614      9617
      9616      9614      9618      9617      9614      9618      9614      9618      9620
      9614      9618      9621      9614      9618      9622      9620      9618      9621
      9620      9618      9622      9621      9618      9622      9618      9622      9624
      9618      9622      9625      9618      9622      9626      9624      9622      9625
      9624      9622      9626      9625      9622      9626      9622      9626      9628
      9622      9626      9629      9622      9626      9630      9628      9626      9629
      9628      9626      9630      9629      9626      9630      9626      9630      9632
      9626      9630      9633      9626      9630      9634      9632      9630      9633
      9632      9630      9634      9633      9630      9634      9630      9634      9636
      9630      9634      9637      9630      9634      9638      9636      9634      9637
      9636      9634      9638      9637      9634      9638      9634      9638      9640
      9634      9638      9641      9634      9638      9642      9640      9638      9641
      9640      9638      9642      9641      9638      9642      9638      9642      9644
      9638      9642      9645      9638      9642      9646      9644      9642      9645
      9644      9642      9646      9645      9642      9646      9649      9647      9650
      9649      9647      9651      9649      9647      9652      9650      9647      9651
      9650      9647      9652      9651      9647      9652      9647      9652      9654
      9647      9652      9655      9647      9652      9656      9654      9652      9655
      9654      9652      9656      9655      9652      9656      9652      9656      9658
      9652      9656      9659      9652      9656      9668      9658      9656      9659
      9658      9656      9668      9659      9656      9668      9662      9660      9664
      9662      9660      9666      9662      9660      9668      9664      9660      9666
      9664      9660      9668      9666      9660      9668      9660      9666      9670
      9656      9668      9660      9666      9670      9672      9666      9670      9673
      9666      9670      9674      9672      9670      9673      9672      9670      9674
      9673      9670      9674      9670      9674      9676      9670      9674      9677
      9670      9674      9691      9676      9674      9677      9676      9674      9691
      9677      9674      9691      9674      9677      9679      9677      9679      9681
      9677      9679      9683      9681      9679      9683      9679      9683      9685
      9679      9683      9686      9679      9683      9709      9685      9683      9686
      9685      9683      9709      9686      9683      9709      9674      9691      9693
      9674      9691      9694      9674      9691      9695      9693      9691      9694
      9693      9691      9695      9694      9691      9695      9691      9695      9697
      9695      9697      9699      9695      9697      9701      9699      9697      9701
      9697      9701      9703      9697      9701      9704      9697      9701      9772
      9703      9701      9704      9703      9701      9772      9704      9701      9772
      9683      9709      9711      9683      9709      9712      9683      9709      9713
      9711      9709      9712      9711      9709      9713      9712      9709      9713
      9709      9713      9715      9709      9713      9716      9709      9713      9717
      9715      9713      9716      9715      9713      9717      9716      9713      9717
      9713      9717      9719      9713      9717      9720      9713      9717      9721
      9719      9717      9720      9719      9717      9721      9720      9717      9721
      9717      9721      9723      9717      9721      9724      9717      9721      9725
      9723      9721      9724      9723      9721      9725      9724      9721      9725
      9721      9725      9727      9721      9725      9728      9721      9725      9729
      9727      9725      9728      9727      9725      9729      9728      9725      9729
      9725      9729      9731      9725      9729      9732      9725      9729      9733
      9731      9729      9732      9731      9729      9733      9732      9729      9733
      9729      9733      9735      9729      9733      9736      9735      9733      9736
      9733      9736      9738      9733      9736      9739      9738      9736      9739
      9736      9739      9741      9736      9739      9742      9736      9739      9743
      9741      9739      9742      9741      9739      9743      9742      9739      9743
      9739      9743      9745      9739      9743      9746      9739      9743      9747
      9745      9743      9746      9745      9743      9747      9746      9743      9747
      9743      9747      9749      9743      9747      9750      9743      9747      9751
      9749      9747      9750      9749      9747      9751      9750      9747      9751
      9747      9751      9753      9747      9751      9754      9747      9751      9755
      9753      9751      9754      9753      9751      9755      9754      9751      9755
      9751      9755      9757      9751      9755      9758      9751      9755      9759
      9757      9755      9758      9757      9755      9759      9758      9755      9759
      9755      9759      9761      9755      9759      9762      9755      9759      9763
      9761      9759      9762      9761      9759      9763      9762      9759      9763
      9759      9763      9765      9759      9763      9766      9759      9763      9767
      9765      9763      9766      9765      9763      9767      9766      9763      9767
      9763      9767      9769      9763      9767      9770      9763      9767      9771
      9769      9767      9770      9769      9767      9771      9770      9767      9771
      9701      9772      9774      9701      9772      9775      9701      9772      9776
      9774      9772      9775      9774      9772      9776      9775      9772      9776
      9772      9776      9778      9772      9776      9779      9772      9776      9780
      9778      9776      9779      9778      9776      9780      9779      9776      9780
      9776      9780      9782      9776      9780      9783      9776      9780      9784
      9782      9780      9783      9782      9780      9784      9783      9780      9784
      9780      9784      9786      9780      9784      9787      9780      9784      9788
      9786      9784      9787      9786      9784      9788      9787      9784      9788
      9784      9788      9790      9784      9788      9791      9784      9788      9792
      9790      9788      9791      9790      9788      9792      9791      9788      9792
      9788      9792      9794      9788      9792      9795      9788      9792      9796
      9794      9792      9795      9794      9792      9796      9795      9792      9796
      9792      9796      9798      9792      9796      9799      9792      9796      9800
      9798      9796      9799      9798      9796      9800      9799      9796      9800
      9796      9800      9802      9796      9800      9803      9796      9800      9804
      9802      9800      9803      9802      9800      9804      9803      9800      9804
      9800      9804      9806      9800      9804      9807      9800      9804      9808
      9806      9804      9807      9806      9804      9808      9807      9804      9808
      9804      9808      9810      9804      9808      9811      9804      9808      9812
      9810      9808      9811      9810      9808      9812      9811      9808      9812
      9808      9812      9814      9808      9812      9815      9808      9812      9816
      9814      9812      9815      9814      9812      9816      9815      9812      9816
      9812      9816      9818      9812      9816      9819      9812      9816      9820
      9818      9816      9819      9818      9816      9820      9819      9816      9820
      9816      9820      9822      9816      9820      9823      9816      9820      9824
      9822      9820      9823      9822      9820      9824      9823      9820      9824
      9820      9824      9826      9820      9824      9827      9820      9824      9828
      9826      9824      9827      9826      9824      9828      9827      9824      9828
      9831      9829      9832      9831      9829      9833      9831      9829      9834
      9832      9829      9833      9832      9829      9834      9833      9829      9834
      9829      9834      9836      9829      9834      9837      9829      9834      9838
      9836      9834      9837      9836      9834      9838      9837      9834      9838
      9834      9838      9840      9834      9838      9841      9834      9838      9850
      9840      9838      9841      9840      9838      9850      9841      9838      9850
      9844      9842      9846      9844      9842      9848      9844      9842      9850
      9846      9842      9848      9846      9842      9850      9848      9842      9850
      9842      9848      9852      9838      9850      9842      9848      9852      9854
      9848      9852      9855      9848      9852      9856      9854      9852      9855
      9854      9852      9856      9855      9852      9856      9852      9856      9858
      9852      9856      9859      9852      9856      9873      9858      9856      9859
      9858      9856      9873      9859      9856      9873      9856      9859      9861
      9859      9861      9863      9859      9861      9865      9863      9861      9865
      9861      9865      9867      9861      9865      9868      9861      9865      9891
      9867      9865      9868      9867      9865      9891      9868      9865      9891
      9856      9873      9875      9856      9873      9876      9856      9873      9877
      9875      9873      9876      9875      9873      9877      9876      9873      9877
      9873      9877      9879      9877      9879      9881      9877      9879      9883
      9881      9879      9883      9879      9883      9885      9879      9883      9886
      9879      9883      9954      9885      9883      9886      9885      9883      9954
      9886      9883      9954      9865      9891      9893      9865      9891      9894
      9865      9891      9895      9893      9891      9894      9893      9891      9895
      9894      9891      9895      9891      9895      9897      9891      9895      9898
      9891      9895      9899      9897      9895      9898      9897      9895      9899
      9898      9895      9899      9895      9899      9901      9895      9899      9902
      9895      9899      9903      9901      9899      9902      9901      9899      9903
      9902      9899      9903      9899      9903      9905      9899      9903      9906
      9899      9903      9907      9905      9903      9906      9905      9903      9907
      9906      9903      9907      9903      9907      9909      9903      9907      9910
      9903      9907      9911      9909      9907      9910      9909      9907      9911
      9910      9907      9911      9907      9911      9913      9907      9911      9914
      9907      9911      9915      9913      9911      9914      9913      9911      9915
      9914      9911      9915      9911      9915      9917      9911      9915      9918
      9917      9915      9918      9915      9918      9920      9915      9918      9921
      9920      9918      9921      9918      9921      9923      9918      9921      9924
      9918      9921      9925      9923      9921      9924      9923      9921      9925
      9924      9921      9925      9921      9925      9927      9921      9925      9928
      9921      9925      9929      9927      9925      9928      9927      9925      9929
      9928      9925      9929      9925      9929      9931      9925      9929      9932
      9925      9929      9933      9931      9929      9932      9931      9929      9933
      9932      9929      9933      9929      9933      9935      9929      9933      9936
      9929      9933      9937      9935      9933      9936      9935      9933      9937
      9936      9933      9937      9933      9937      9939      9933      9937      9940
      9933      9937      9941      9939      9937      9940      9939      9937      9941
      9940      9937      9941      9937      9941      9943      9937      9941      9944
      9937      9941      9945      9943      9941      9944      9943      9941      9945
      9944      9941      9945      9941      9945      9947      9941      9945      9948
      9941      9945      9949      9947      9945      9948      9947      9945      9949
      9948      9945      9949      9945      9949      9951      9945      9949      9952
      9945      9949      9953      9951      9949      9952      9951      9949      9953
      9952      9949      9953      9883      9954      9956      9883      9954      9957
      9883      9954      9958      9956      9954      9957      9956      9954      9958
      9957      9954      9958      9954      9958      9960      9954      9958      9961
      9954      9958      9962      9960      9958      9961      9960      9958      9962
      9961      9958      9962      9958      9962      9964      9958      9962      9965
      9958      9962      9966      9964      9962      9965      9964      9962      9966
      9965      9962      9966      9962      9966      9968      9962      9966      9969
      9962      9966      9970      9968      9966      9969      9968      9966      9970
      9969      9966      9970      9966      9970      9972      9966      9970      9973
      9966      9970      9974      9972      9970      9973      9972      9970      9974
      9973      9970      9974      9970      9974      9976      9970      9974      9977
      9970      9974      9978      9976      9974      9977      9976      9974      9978
      9977      9974      9978      9974      9978      9980      9974      9978      9981
      9974      9978      9982      9980      9978      9981      9980      9978      9982
      9981      9978      9982      9978      9982      9984      9978      9982      9985
      9978      9982      9986      9984      9982      9985      9984      9982      9986
      9985      9982      9986      9982      9986      9988      9982      9986      9989
      9982      9986      9990      9988      9986      9989      9988      9986      9990
      9989      9986      9990      9986      9990      9992      9986      9990      9993
      9986      9990      9994      9992      9990      9993      9992      9990      9994
      9993      9990      9994      9990      9994      9996      9990      9994      9997
      9990      9994      9998      9996      9994      9997      9996      9994      9998
      9997      9994      9998      9994      9998     10000      9994      9998     10001
      9994      9998     10002     10000      9998     10001     10000      9998     10002
     10001      9998     10002      9998     10002     10004      9998     10002     10005
      9998     10002     10006     10004     10002     10005     10004     10002     10006
     10005     10002     10006     10002     10006     10008     10002     10006     10009
     10002     10006     10010     10008     10006     10009     10008     10006     10010
     10009     10006     10010     10013     10011     10014     10013     10011     10015
     10013     10011     10016     10014     10011     10015     10014     10011     10016
     10015     10011     10016     10011     10016     10018     10011     10016     10019
     10011     10016     10020     10018     10016     10019     10018     10016     10020
     10019     10016     10020     10016     10020     10022     10016     10020     10023
     10016     10020     10032     10022     10020     10023     10022     10020     10032
     10023     10020     10032     10026     10024     10028     10026     10024     10030
     10026     10024     10032     10028     10024     10030     10028     10024     10032
     10030     10024     10032     10024     10030     10034     10020     10032     10024
     10030     10034     10036     10030     10034     10037     10030     10034     10038
     10036     10034     10037     10036     10034     10038     10037     10034     10038
     10034     10038     10040     10034     10038     10041     10034     10038     10055
     10040     10038     10041     10040     10038     10055     10041     10038     10055
     10038     10041     10043     10041     10043     10045     10041     10043     10047
     10045     10043     10047     10043     10047     10049     10043     10047     10050
     10043     10047     10073     10049     10047     10050     10049     10047     10073
     10050     10047     10073     10038     10055     10057     10038     10055     10058
     10038     10055     10059     10057     10055     10058     10057     10055     10059
     10058     10055     10059     10055     10059     10061     10059     10061     10063
     10059     10061     10065     10063     10061     10065     10061     10065     10067
     10061     10065     10068     10061     10065     10136     10067     10065     10068
     10067     10065     10136     10068     10065     10136     10047     10073     10075
     10047     10073     10076     10047     10073     10077     10075     10073     10076
     10075     10073     10077     10076     10073     10077     10073     10077     10079
     10073     10077     10080     10073     10077     10081     10079     10077     10080
     10079     10077     10081     10080     10077     10081     10077     10081     10083
     10077     10081     10084     10077     10081     10085     10083     10081     10084
     10083     10081     10085     10084     10081     10085     10081     10085     10087
     10081     10085     10088     10081     10085     10089     10087     10085     10088
     10087     10085     10089     10088     10085     10089     10085     10089     10091
     10085     10089     10092     10085     10089     10093     10091     10089     10092
     10091     10089     10093     10092     10089     10093     10089     10093     10095
     10089     10093     10096     10089     10093     10097     10095     10093     10096
     10095     10093     10097     10096     10093     10097     10093     10097     10099
     10093     10097     10100     10099     10097     10100     10097     10100     10102
     10097     10100     10103     10102     10100     10103     10100     10103     10105
     10100     10103     10106     10100     10103     10107     10105     10103     10106
     10105     10103     10107     10106     10103     10107     10103     10107     10109
     10103     10107     10110     10103     10107     10111     10109     10107     10110
     10109     10107     10111     10110     10107     10111     10107     10111     10113
     10107     10111     10114     10107     10111     10115     10113     10111     10114
     10113     10111     10115     10114     10111     10115     10111     10115     10117
     10111     10115     10118     10111     10115     10119     10117     10115     10118
     10117     10115     10119     10118     10115     10119     10115     10119     10121
     10115     10119     10122     10115     10119     10123     10121     10119     10122
     10121     10119     10123     10122     10119     10123     10119     10123     10125
     10119     10123     10126     10119     10123     10127     10125     10123     10126
     10125     10123     10127     10126     10123     10127     10123     10127     10129
     10123     10127     10130     10123     10127     10131     10129     10127     10130
     10129     10127     10131     10130     10127     10131     10127     10131     10133
     10127     10131     10134     10127     10131     10135     10133     10131     10134
     10133     10131     10135     10134     10131     10135     10065     10136     10138
     10065     10136     10139     10065     10136     10140     10138     10136     10139
     10138     10136     10140     10139     10136     10140     10136     10140     10142
     10136     10140     10143     10136     10140     10144     10142     10140     10143
     10142     10140     10144     10143     10140     10144     10140     10144     10146
     10140     10144     10147     10140     10144     10148     10146     10144     10147
     10146     10144     10148     10147     10144     10148     10144     10148     10150
     10144     10148     10151     10144     10148     10152     10150     10148     10151
     10150     10148     10152     10151     10148     10152     10148     10152     10154
     10148     10152     10155     10148     10152     10156     10154     10152     10155
     10154     10152     10156     10155     10152     10156     10152     10156     10158
     10152     10156     10159     10152     10156     10160     10158     10156     10159
     10158     10156     10160     10159     10156     10160     10156     10160     10162
     10156     10160     10163     10156     10160     10164     10162     10160     10163
     10162     10160     10164     10163     10160     10164     10160     10164     10166
     10160     10164     10167     10160     10164     10168     10166     10164     10167
     10166     10164     10168     10167     10164     10168     10164     10168     10170
     10164     10168     10171     10164     10168     10172     10170     10168     10171
     10170     10168     10172     10171     10168     10172     10168     10172     10174
     10168     10172     10175     10168     10172     10176     10174     10172     10175
     10174     10172     10176     10175     10172     10176     10172     10176     10178
     10172     10176     10179     10172     10176     10180     10178     10176     10179
     10178     10176     10180     10179     10176     10180     10176     10180     10182
     10176     10180     10183     10176     10180     10184     10182     10180     10183
     10182     10180     10184     10183     10180     10184     10180     10184     10186
     10180     10184     10187     10180     10184     10188     10186     10184     10187
     10186     10184     10188     10187     10184     10188     10184     10188     10190
     10184     10188     10191     10184     10188     10192     10190     10188     10191
     10190     10188     10192     10191     10188     10192     10195     10193     10196
     10195     10193     10197     10195     10193     10198     10196     10193     10197
     10196     10193     10198     10197     10193     10198     10193     10198     10200
     10193     10198     10201     10193     10198     10202     10200     10198     10201
     10200     10198     10202     10201     10198     10202     10198     10202     10204
     10198     10202     10205     10198     10202     10214     10204     10202     10205
     10204     10202     10214     10205     10202     10214     10208     10206     10210
     10208     10206     10212     10208     10206     10214     10210     10206     10212
     10210     10206     10214     10212     10206     10214     10206     10212     10216
     10202     10214     10206     10212     10216     10218     10212     10216     10219
     10212     10216     10220     10218     10216     10219     10218     10216     10220
     10219     10216     10220     10216     10220     10222     10216     10220     10223
     10216     10220     10237     10222     10220     10223     10222     10220     10237
     10223     10220     10237     10220     10223     10225     10223     10225     10227
     10223     10225     10229     10227     10225     10229     10225     10229     10231
     10225     10229     10232     10225     10229     10255     10231     10229     10232
     10231     10229     10255     10232     10229     10255     10220     10237     10239
     10220     10237     10240     10220     10237     10241     10239     10237     10240
     10239     10237     10241     10240     10237     10241     10237     10241     10243
     10241     10243     10245     10241     10243     10247     10245     10243     10247
     10243     10247     10249     10243     10247     10250     10243     10247     10318
     10249     10247     10250     10249     10247     10318     10250     10247     10318
     10229     10255     10257     10229     10255     10258     10229     10255     10259
     10257     10255     10258     10257     10255     10259     10258     10255     10259
     10255     10259     10261     10255     10259     10262     10255     10259     10263
     10261     10259     10262     10261     10259     10263     10262     10259     10263
     10259     10263     10265     10259     10263     10266     10259     10263     10267
     10265     10263     10266     10265     10263     10267     10266     10263     10267
     10263     10267     10269     10263     10267     10270     10263     10267     10271
     10269     10267     10270     10269     10267     10271     10270     10267     10271
     10267     10271     10273     10267     10271     10274     10267     10271     10275
     10273     10271     10274     10273     10271     10275     10274     10271     10275
     10271     10275     10277     10271     10275     10278     10271     10275     10279
     10277     10275     10278     10277     10275     10279     10278     10275     10279
     10275     10279     10281     10275     10279     10282     10281     10279     10282
     10279     10282     10284     10279     10282     10285     10284     10282     10285
     10282     10285     10287     10282     10285     10288     10282     10285     10289
     10287     10285     10288     10287     10285     10289     10288     10285     10289
     10285     10289     10291     10285     10289     10292     10285     10289     10293
     10291     10289     10292     10291     10289     10293     10292     10289     10293
     10289     10293     10295     10289     10293     10296     10289     10293     10297
     10295     10293     10296     10295     10293     10297     10296     10293     10297
     10293     10297     10299     10293     10297     10300     10293     10297     10301
     10299     10297     10300     10299     10297     10301     10300     10297     10301
     10297     10301     10303     10297     10301     10304     10297     10301     10305
     10303     10301     10304     10303     10301     10305     10304     10301     10305
     10301     10305     10307     10301     10305     10308     10301     10305     10309
     10307     10305     10308     10307     10305     10309     10308     10305     10309
     10305     10309     10311     10305     10309     10312     10305     10309     10313
     10311     10309     10312     10311     10309     10313     10312     10309     10313
     10309     10313     10315     10309     10313     10316     10309     10313     10317
     10315     10313     10316     10315     10313     10317     10316     10313     10317
     10247     10318     10320     10247     10318     10321     10247     10318     10322
     10320     10318     10321     10320     10318     10322     10321     10318     10322
     10318     10322     10324     10318     10322     10325     10318     10322     10326
     10324     10322     10325     10324     10322     10326     10325     10322     10326
     10322     10326     10328     10322     10326     10329     10322     10326     10330
     10328     10326     10329     10328     10326     10330     10329     10326     10330
     10326     10330     10332     10326     10330     10333     10326     10330     10334
     10332     10330     10333     10332     10330     10334     10333     10330     10334
     10330     10334     10336     10330     10334     10337     10330     10334     10338
     10336     10334     10337     10336     10334     10338     10337     10334     10338
     10334     10338     10340     10334     10338     10341     10334     10338     10342
     10340     10338     10341     10340     10338     10342     10341     10338     10342
     10338     10342     10344     10338     10342     10345     10338     10342     10346
     10344     10342     10345     10344     10342     10346     10345     10342     10346
     10342     10346     10348     10342     10346     10349     10342     10346     10350
     10348     10346     10349     10348     10346     10350     10349     10346     10350
     10346     10350     10352     10346     10350     10353     10346     10350     10354
     10352     10350     10353     10352     10350     10354     10353     10350     10354
     10350     10354     10356     10350     10354     10357     10350     10354     10358
     10356     10354     10357     10356     10354     10358     10357     10354     10358
     10354     10358     10360     10354     10358     10361     10354     10358     10362
     10360     10358     10361     10360     10358     10362     10361     10358     10362
     10358     10362     10364     10358     10362     10365     10358     10362     10366
     10364     10362     10365     10364     10362     10366     10365     10362     10366
     10362     10366     10368     10362     10366     10369     10362     10366     10370
     10368     10366     10369     10368     10366     10370     10369     10366     10370
     10366     10370     10372     10366     10370     10373     10366     10370     10374
     10372     10370     10373     10372     10370     10374     10373     10370     10374
     10377     10375     10378     10377     10375     10379     10377     10375     10380
     10378     10375     10379     10378     10375     10380     10379     10375     10380
     10375     10380     10382     10375     10380     10383     10375     10380     10384
     10382     10380     10383     10382     10380     10384     10383     10380     10384
     10380     10384     10386     10380     10384     10387     10380     10384     10396
     10386     10384     10387     10386     10384     10396     10387     10384     10396
     10390     10388     10392     10390     10388     10394     10390     10388     10396
     10392     10388     10394     10392     10388     10396     10394     10388     10396
     10388     10394     10398     10384     10396     10388     10394     10398     10400
     10394     10398     10401     10394     10398     10402     10400     10398     10401
     10400     10398     10402     10401     10398     10402     10398     10402     10404
     10398     10402     10405     10398     10402     10419     10404     10402     10405
     10404     10402     10419     10405     10402     10419     10402     10405     10407
     10405     10407     10409     10405     10407     10411     10409     10407     10411
     10407     10411     10413     10407     10411     10414     10407     10411     10437
     10413     10411     10414     10413     10411     10437     10414     10411     10437
     10402     10419     10421     10402     10419     10422     10402     10419     10423
     10421     10419     10422     10421     10419     10423     10422     10419     10423
     10419     10423     10425     10423     10425     10427     10423     10425     10429
     10427     10425     10429     10425     10429     10431     10425     10429     10432
     10425     10429     10500     10431     10429     10432     10431     10429     10500
     10432     10429     10500     10411     10437     10439     10411     10437     10440
     10411     10437     10441     10439     10437     10440     10439     10437     10441
     10440     10437     10441     10437     10441     10443     10437     10441     10444
     10437     10441     10445     10443     10441     10444     10443     10441     10445
     10444     10441     10445     10441     10445     10447     10441     10445     10448
     10441     10445     10449     10447     10445     10448     10447     10445     10449
     10448     10445     10449     10445     10449     10451     10445     10449     10452
     10445     10449     10453     10451     10449     10452     10451     10449     10453
     10452     10449     10453     10449     10453     10455     10449     10453     10456
     10449     10453     10457     10455     10453     10456     10455     10453     10457
     10456     10453     10457     10453     10457     10459     10453     10457     10460
     10453     10457     10461     10459     10457     10460     10459     10457     10461
     10460     10457     10461     10457     10461     10463     10457     10461     10464
     10463     10461     10464     10461     10464     10466     10461     10464     10467
     10466     10464     10467     10464     10467     10469     10464     10467     10470
     10464     10467     10471     10469     10467     10470     10469     10467     10471
     10470     10467     10471     10467     10471     10473     10467     10471     10474
     10467     10471     10475     10473     10471     10474     10473     10471     10475
     10474     10471     10475     10471     10475     10477     10471     10475     10478
     10471     10475     10479     10477     10475     10478     10477     10475     10479
     10478     10475     10479     10475     10479     10481     10475     10479     10482
     10475     10479     10483     10481     10479     10482     10481     10479     10483
     10482     10479     10483     10479     10483     10485     10479     10483     10486
     10479     10483     10487     10485     10483     10486     10485     10483     10487
     10486     10483     10487     10483     10487     10489     10483     10487     10490
     10483     10487     10491     10489     10487     10490     10489     10487     10491
     10490     10487     10491     10487     10491     10493     10487     10491     10494
     10487     10491     10495     10493     10491     10494     10493     10491     10495
     10494     10491     10495     10491     10495     10497     10491     10495     10498
     10491     10495     10499     10497     10495     10498     10497     10495     10499
     10498     10495     10499     10429     10500     10502     10429     10500     10503
     10429     10500     10504     10502     10500     10503     10502     10500     10504
     10503     10500     10504     10500     10504     10506     10500     10504     10507
     10500     10504     10508     10506     10504     10507     10506     10504     10508
     10507     10504     10508     10504     10508     10510     10504     10508     10511
     10504     10508     10512     10510     10508     10511     10510     10508     10512
     10511     10508     10512     10508     10512     10514     10508     10512     10515
     10508     10512     10516     10514     10512     10515     10514     10512     10516
     10515     10512     10516     10512     10516     10518     10512     10516     10519
     10512     10516     10520     10518     10516     10519     10518     10516     10520
     10519     10516     10520     10516     10520     10522     10516     10520     10523
     10516     10520     10524     10522     10520     10523     10522     10520     10524
     10523     10520     10524     10520     10524     10526     10520     10524     10527
     10520     10524     10528     10526     10524     10527     10526     10524     10528
     10527     10524     10528     10524     10528     10530     10524     10528     10531
     10524     10528     10532     10530     10528     10531     10530     10528     10532
     10531     10528     10532     10528     10532     10534     10528     10532     10535
     10528     10532     10536     10534     10532     10535     10534     10532     10536
     10535     10532     10536     10532     10536     10538     10532     10536     10539
     10532     10536     10540     10538     10536     10539     10538     10536     10540
     10539     10536     10540     10536     10540     10542     10536     10540     10543
     10536     10540     10544     10542     10540     10543     10542     10540     10544
     10543     10540     10544     10540     10544     10546     10540     10544     10547
     10540     10544     10548     10546     10544     10547     10546     10544     10548
     10547     10544     10548     10544     10548     10550     10544     10548     10551
     10544     10548     10552     10550     10548     10551     10550     10548     10552
     10551     10548     10552     10548     10552     10554     10548     10552     10555
     10548     10552     10556     10554     10552     10555     10554     10552     10556
     10555     10552     10556     10559     10557     10560     10559     10557     10561
     10559     10557     10562     10560     10557     10561     10560     10557     10562
     10561     10557     10562     10557     10562     10564     10557     10562     10565
     10557     10562     10566     10564     10562     10565     10564     10562     10566
     10565     10562     10566     10562     10566     10568     10562     10566     10569
     10562     10566     10578     10568     10566     10569     10568     10566     10578
     10569     10566     10578     10572     10570     10574     10572     10570     10576
     10572     10570     10578     10574     10570     10576     10574     10570     10578
     10576     10570     10578     10570     10576     10580     10566     10578     10570
     10576     10580     10582     10576     10580     10583     10576     10580     10584
     10582     10580     10583     10582     10580     10584     10583     10580     10584
     10580     10584     10586     10580     10584     10587     10580     10584     10601
     10586     10584     10587     10586     10584     10601     10587     10584     10601
     10584     10587     10589     10587     10589     10591     10587     10589     10593
     10591     10589     10593     10589     10593     10595     10589     10593     10596
     10589     10593     10619     10595     10593     10596     10595     10593     10619
     10596     10593     10619     10584     10601     10603     10584     10601     10604
     10584     10601     10605     10603     10601     10604     10603     10601     10605
     10604     10601     10605     10601     10605     10607     10605     10607     10609
     10605     10607     10611     10609     10607     10611     10607     10611     10613
     10607     10611     10614     10607     10611     10682     10613     10611     10614
     10613     10611     10682     10614     10611     10682     10593     10619     10621
     10593     10619     10622     10593     10619     10623     10621     10619     10622
     10621     10619     10623     10622     10619     10623     10619     10623     10625
     10619     10623     10626     10619     10623     10627     10625     10623     10626
     10625     10623     10627     10626     10623     10627     10623     10627     10629
     10623     10627     10630     10623     10627     10631     10629     10627     10630
     10629     10627     10631     10630     10627     10631     10627     10631     10633
     10627     10631     10634     10627     10631     10635     10633     10631     10634
     10633     10631     10635     10634     10631     10635     10631     10635     10637
     10631     10635     10638     10631     10635     10639     10637     10635     10638
     10637     10635     10639     10638     10635     10639     10635     10639     10641
     10635     10639     10642     10635     10639     10643     10641     10639     10642
     10641     10639     10643     10642     10639     10643     10639     10643     10645
     10639     10643     10646     10645     10643     10646     10643     10646     10648
     10643     10646     10649     10648     10646     10649     10646     10649     10651
     10646     10649     10652     10646     10649     10653     10651     10649     10652
     10651     10649     10653     10652     10649     10653     10649     10653     10655
     10649     10653     10656     10649     10653     10657     10655     10653     10656
     10655     10653     10657     10656     10653     10657     10653     10657     10659
     10653     10657     10660     10653     10657     10661     10659     10657     10660
     10659     10657     10661     10660     10657     10661     10657     10661     10663
     10657     10661     10664     10657     10661     10665     10663     10661     10664
     10663     10661     10665     10664     10661     10665     10661     10665     10667
     10661     10665     10668     10661     10665     10669     10667     10665     10668
     10667     10665     10669     10668     10665     10669     10665     10669     10671
     10665     10669     10672     10665     10669     10673     10671     10669     10672
     10671     10669     10673     10672     10669     10673     10669     10673     10675
     10669     10673     10676     10669     10673     10677     10675     10673     10676
     10675     10673     10677     10676     10673     10677     10673     10677     10679
     10673     10677     10680     10673     10677     10681     10679     10677     10680
     10679     10677     10681     10680     10677     10681     10611     10682     10684
     10611     10682     10685     10611     10682     10686     10684     10682     10685
     10684     10682     10686     10685     10682     10686     10682     10686     10688
     10682     10686     10689     10682     10686     10690     10688     10686     10689
     10688     10686     10690     10689     10686     10690     10686     10690     10692
     10686     10690     10693     10686     10690     10694     10692     10690     10693
     10692     10690     10694     10693     10690     10694     10690     10694     10696
     10690     10694     10697     10690     10694     10698     10696     10694     10697
     10696     10694     10698     10697     10694     10698     10694     10698     10700
     10694     10698     10701     10694     10698     10702     10700     10698     10701
     10700     10698     10702     10701     10698     10702     10698     10702     10704
     10698     10702     10705     10698     10702     10706     10704     10702     10705
     10704     10702     10706     10705     10702     10706     10702     10706     10708
     10702     10706     10709     10702     10706     10710     10708     10706     10709
     10708     10706     10710     10709     10706     10710     10706     10710     10712
     10706     10710     10713     10706     10710     10714     10712     10710     10713
     10712     10710     10714     10713     10710     10714     10710     10714     10716
     10710     10714     10717     10710     10714     10718     10716     10714     10717
     10716     10714     10718     10717     10714     10718     10714     10718     10720
     10714     10718     10721     10714     10718     10722     10720     10718     10721
     10720     10718     10722     10721     10718     10722     10718     10722     10724
     10718     10722     10725     10718     10722     10726     10724     10722     10725
     10724     10722     10726     10725     10722     10726     10722     10726     10728
     10722     10726     10729     10722     10726     10730     10728     10726     10729
     10728     10726     10730     10729     10726     10730     10726     10730     10732
     10726     10730     10733     10726     10730     10734     10732     10730     10733
     10732     10730     10734     10733     10730     10734     10730     10734     10736
     10730     10734     10737     10730     10734     10738     10736     10734     10737
     10736     10734     10738     10737     10734     10738     10741     10739     10742
     10741     10739     10743     10741     10739     10744     10742     10739     10743
     10742     10739     10744     10743     10739     10744     10739     10744     10746
     10739     10744     10747     10739     10744     10748     10746     10744     10747
     10746     10744     10748     10747     10744     10748     10744     10748     10750
     10744     10748     10751     10744     10748     10760     10750     10748     10751
     10750     10748     10760     10751     10748     10760     10754     10752     10756
     10754     10752     10758     10754     10752     10760     10756     10752     10758
     10756     10752     10760     10758     10752     10760     10752     10758     10762
     10748     10760     10752     10758     10762     10764     10758     10762     10765
     10758     10762     10766     10764     10762     10765     10764     10762     10766
     10765     10762     10766     10762     10766     10768     10762     10766     10769
     10762     10766     10783     10768     10766     10769     10768     10766     10783
     10769     10766     10783     10766     10769     10771     10769     10771     10773
     10769     10771     10775     10773     10771     10775     10771     10775     10777
     10771     10775     10778     10771     10775     10801     10777     10775     10778
     10777     10775     10801     10778     10775     10801     10766     10783     10785
     10766     10783     10786     10766     10783     10787     10785     10783     10786
     10785     10783     10787     10786     10783     10787     10783     10787     10789
     10787     10789     10791     10787     10789     10793     10791     10789     10793
     10789     10793     10795     10789     10793     10796     10789     10793     10864
     10795     10793     10796     10795     10793     10864     10796     10793     10864
     10775     10801     10803     10775     10801     10804     10775     10801     10805
     10803     10801     10804     10803     10801     10805     10804     10801     10805
     10801     10805     10807     10801     10805     10808     10801     10805     10809
     10807     10805     10808     10807     10805     10809     10808     10805     10809
     10805     10809     10811     10805     10809     10812     10805     10809     10813
     10811     10809     10812     10811     10809     10813     10812     10809     10813
     10809     10813     10815     10809     10813     10816     10809     10813     10817
     10815     10813     10816     10815     10813     10817     10816     10813     10817
     10813     10817     10819     10813     10817     10820     10813     10817     10821
     10819     10817     10820     10819     10817     10821     10820     10817     10821
     10817     10821     10823     10817     10821     10824     10817     10821     10825
     10823     10821     10824     10823     10821     10825     10824     10821     10825
     10821     10825     10827     10821     10825     10828     10827     10825     10828
     10825     10828     10830     10825     10828     10831     10830     10828     10831
     10828     10831     10833     10828     10831     10834     10828     10831     10835
     10833     10831     10834     10833     10831     10835     10834     10831     10835
     10831     10835     10837     10831     10835     10838     10831     10835     10839
     10837     10835     10838     10837     10835     10839     10838     10835     10839
     10835     10839     10841     10835     10839     10842     10835     10839     10843
     10841     10839     10842     10841     10839     10843     10842     10839     10843
     10839     10843     10845     10839     10843     10846     10839     10843     10847
     10845     10843     10846     10845     10843     10847     10846     10843     10847
     10843     10847     10849     10843     10847     10850     10843     10847     10851
     10849     10847     10850     10849     10847     10851     10850     10847     10851
     10847     10851     10853     10847     10851     10854     10847     10851     10855
     10853     10851     10854     10853     10851     10855     10854     10851     10855
     10851     10855     10857     10851     10855     10858     10851     10855     10859
     10857     10855     10858     10857     10855     10859     10858     10855     10859
     10855     10859     10861     10855     10859     10862     10855     10859     10863
     10861     10859     10862     10861     10859     10863     10862     10859     10863
     10793     10864     10866     10793     10864     10867     10793     10864     10868
     10866     10864     10867     10866     10864     10868     10867     10864     10868
     10864     10868     10870     10864     10868     10871     10864     10868     10872
     10870     10868     10871     10870     10868     10872     10871     10868     10872
     10868     10872     10874     10868     10872     10875     10868     10872     10876
     10874     10872     10875     10874     10872     10876     10875     10872     10876
     10872     10876     10878     10872     10876     10879     10872     10876     10880
     10878     10876     10879     10878     10876     10880     10879     10876     10880
     10876     10880     10882     10876     10880     10883     10876     10880     10884
     10882     10880     10883     10882     10880     10884     10883     10880     10884
     10880     10884     10886     10880     10884     10887     10880     10884     10888
     10886     10884     10887     10886     10884     10888     10887     10884     10888
     10884     10888     10890     10884     10888     10891     10884     10888     10892
     10890     10888     10891     10890     10888     10892     10891     10888     10892
     10888     10892     10894     10888     10892     10895     10888     10892     10896
     10894     10892     10895     10894     10892     10896     10895     10892     10896
     10892     10896     10898     10892     10896     10899     10892     10896     10900
     10898     10896     10899     10898     10896     10900     10899     10896     10900
     10896     10900     10902     10896     10900     10903     10896     10900     10904
     10902     10900     10903     10902     10900     10904     10903     10900     10904
     10900     10904     10906     10900     10904     10907     10900     10904     10908
     10906     10904     10907     10906     10904     10908     10907     10904     10908
     10904     10908     10910     10904     10908     10911     10904     10908     10912
     10910     10908     10911     10910     10908     10912     10911     10908     10912
     10908     10912     10914     10908     10912     10915     10908     10912     10916
     10914     10912     10915     10914     10912     10916     10915     10912     10916
     10912     10916     10918     10912     10916     10919     10912     10916     10920
     10918     10916     10919     10918     10916     10920     10919     10916     10920
     10923     10921     10924     10923     10921     10925     10923     10921     10926
     10924     10921     10925     10924     10921     10926     10925     10921     10926
     10921     10926     10928     10921     10926     10929     10921     10926     10930
     10928     10926     10929     10928     10926     10930     10929     10926     10930
     10926     10930     10932     10926     10930     10933     10926     10930     10942
     10932     10930     10933     10932     10930     10942     10933     10930     10942
     10936     10934     10938     10936     10934     10940     10936     10934     10942
     10938     10934     10940     10938     10934     10942     10940     10934     10942
     10934     10940     10944     10930     10942     10934     10940     10944     10946
     10940     10944     10947     10940     10944     10948     10946     10944     10947
     10946     10944     10948     10947     10944     10948     10944     10948     10950
     10944     10948     10951     10944     10948     10965     10950     10948     10951
     10950     10948     10965     10951     10948     10965     10948     10951     10953
     10951     10953     10955     10951     10953     10957     10955     10953     10957
     10953     10957     10959     10953     10957     10960     10953     10957     10983
     10959     10957     10960     10959     10957     10983     10960     10957     10983
     10948     10965     10967     10948     10965     10968     10948     10965     10969
     10967     10965     10968     10967     10965     10969     10968     10965     10969
     10965     10969     10971     10969     10971     10973     10969     10971     10975
     10973     10971     10975     10971     10975     10977     10971     10975     10978
     10971     10975     11046     10977     10975     10978     10977     10975     11046
     10978     10975     11046     10957     10983     10985     10957     10983     10986
     10957     10983     10987     10985     10983     10986     10985     10983     10987
     10986     10983     10987     10983     10987     10989     10983     10987     10990
     10983     10987     10991     10989     10987     10990     10989     10987     10991
     10990     10987     10991     10987     10991     10993     10987     10991     10994
     10987     10991     10995     10993     10991     10994     10993     10991     10995
     10994     10991     10995     10991     10995     10997     10991     10995     10998
     10991     10995     10999     10997     10995     10998     10997     10995     10999
     10998     10995     10999     10995     10999     11001     10995     10999     11002
     10995     10999     11003     11001     10999     11002     11001     10999     11003
     11002     10999     11003     10999     11003     11005     10999     11003     11006
     10999     11003     11007     11005     11003     11006     11005     11003     11007
     11006     11003     11007     11003     11007     11009     11003     11007     11010
     11009     11007     11010     11007     11010     11012     11007     11010     11013
     11012     11010     11013     11010     11013     11015     11010     11013     11016
     11010     11013     11017     11015     11013     11016     11015     11013     11017
     11016     11013     11017     11013     11017     11019     11013     11017     11020
     11013     11017     11021     11019     11017     11020     11019     11017     11021
     11020     11017     11021     11017     11021     11023     11017     11021     11024
     11017     11021     11025     11023     11021     11024     11023     11021     11025
     11024     11021     11025     11021     11025     11027     11021     11025     11028
     11021     11025     11029     11027     11025     11028     11027     11025     11029
     11028     11025     11029     11025     11029     11031     11025     11029     11032
     11025     11029     11033     11031     11029     11032     11031     11029     11033
     11032     11029     11033     11029     11033     11035     11029     11033     11036
     11029     11033     11037     11035     11033     11036     11035     11033     11037
     11036     11033     11037     11033     11037     11039     11033     11037     11040
     11033     11037     11041     11039     11037     11040     11039     11037     11041
     11040     11037     11041     11037     11041     11043     11037     11041     11044
     11037     11041     11045     11043     11041     11044     11043     11041     11045
     11044     11041     11045     10975     11046     11048     10975     11046     11049
     10975     11046     11050     11048     11046     11049     11048     11046     11050
     11049     11046     11050     11046     11050     11052     11046     11050     11053
     11046     11050     11054     11052     11050     11053     11052     11050     11054
     11053     11050     11054     11050     11054     11056     11050     11054     11057
     11050     11054     11058     11056     11054     11057     11056     11054     11058
     11057     11054     11058     11054     11058     11060     11054     11058     11061
     11054     11058     11062     11060     11058     11061     11060     11058     11062
     11061     11058     11062     11058     11062     11064     11058     11062     11065
     11058     11062     11066     11064     11062     11065     11064     11062     11066
     11065     11062     11066     11062     11066     11068     11062     11066     11069
     11062     11066     11070     11068     11066     11069     11068     11066     11070
     11069     11066     11070     11066     11070     11072     11066     11070     11073
     11066     11070     11074     11072     11070     11073     11072     11070     11074
     11073     11070     11074     11070     11074     11076     11070     11074     11077
     11070     11074     11078     11076     11074     11077     11076     11074     11078
     11077     11074     11078     11074     11078     11080     11074     11078     11081
     11074     11078     11082     11080     11078     11081     11080     11078     11082
     11081     11078     11082     11078     11082     11084     11078     11082     11085
     11078     11082     11086     11084     11082     11085     11084     11082     11086
     11085     11082     11086     11082     11086     11088     11082     11086     11089
     11082     11086     11090     11088     11086     11089     11088     11086     11090
     11089     11086     11090     11086     11090     11092     11086     11090     11093
     11086     11090     11094     11092     11090     11093     11092     11090     11094
     11093     11090     11094     11090     11094     11096     11090     11094     11097
     11090     11094     11098     11096     11094     11097     11096     11094     11098
     11097     11094     11098     11094     11098     11100     11094     11098     11101
     11094     11098     11102     11100     11098     11101     11100     11098     11102
     11101     11098     11102     11105     11103     11106     11105     11103     11107
     11105     11103     11108     11106     11103     11107     11106     11103     11108
     11107     11103     11108     11103     11108     11110     11103     11108     11111
     11103     11108     11112     11110     11108     11111     11110     11108     11112
     11111     11108     11112     11108     11112     11114     11108     11112     11115
     11108     11112     11124     11114     11112     11115     11114     11112     11124
     11115     11112     11124     11118     11116     11120     11118     11116     11122
     11118     11116     11124     11120     11116     11122     11120     11116     11124
     11122     11116     11124     11116     11122     11126     11112     11124     11116
     11122     11126     11128     11122     11126     11129     11122     11126     11130
     11128     11126     11129     11128     11126     11130     11129     11126     11130
     11126     11130     11132     11126     11130     11133     11126     11130     11147
     11132     11130     11133     11132     11130     11147     11133     11130     11147
     11130     11133     11135     11133     11135     11137     11133     11135     11139
     11137     11135     11139     11135     11139     11141     11135     11139     11142
     11135     11139     11165     11141     11139     11142     11141     11139     11165
     11142     11139     11165     11130     11147     11149     11130     11147     11150
     11130     11147     11151     11149     11147     11150     11149     11147     11151
     11150     11147     11151     11147     11151     11153     11151     11153     11155
     11151     11153     11157     11155     11153     11157     11153     11157     11159
     11153     11157     11160     11153     11157     11228     11159     11157     11160
     11159     11157     11228     11160     11157     11228     11139     11165     11167
     11139     11165     11168     11139     11165     11169     11167     11165     11168
     11167     11165     11169     11168     11165     11169     11165     11169     11171
     11165     11169     11172     11165     11169     11173     11171     11169     11172
     11171     11169     11173     11172     11169     11173     11169     11173     11175
     11169     11173     11176     11169     11173     11177     11175     11173     11176
     11175     11173     11177     11176     11173     11177     11173     11177     11179
     11173     11177     11180     11173     11177     11181     11179     11177     11180
     11179     11177     11181     11180     11177     11181     11177     11181     11183
     11177     11181     11184     11177     11181     11185     11183     11181     11184
     11183     11181     11185     11184     11181     11185     11181     11185     11187
     11181     11185     11188     11181     11185     11189     11187     11185     11188
     11187     11185     11189     11188     11185     11189     11185     11189     11191
     11185     11189     11192     11191     11189     11192     11189     11192     11194
     11189     11192     11195     11194     11192     11195     11192     11195     11197
     11192     11195     11198     11192     11195     11199     11197     11195     11198
     11197     11195     11199     11198     11195     11199     11195     11199     11201
     11195     11199     11202     11195     11199     11203     11201     11199     11202
     11201     11199     11203     11202     11199     11203     11199     11203     11205
     11199     11203     11206     11199     11203     11207     11205     11203     11206
     11205     11203     11207     11206     11203     11207     11203     11207     11209
     11203     11207     11210     11203     11207     11211     11209     11207     11210
     11209     11207     11211     11210     11207     11211     11207     11211     11213
     11207     11211     11214     11207     11211     11215     11213     11211     11214
     11213     11211     11215     11214     11211     11215     11211     11215     11217
     11211     11215     11218     11211     11215     11219     11217     11215     11218
     11217     11215     11219     11218     11215     11219     11215     11219     11221
     11215     11219     11222     11215     11219     11223     11221     11219     11222
     11221     11219     11223     11222     11219     11223     11219     11223     11225
     11219     11223     11226     11219     11223     11227     11225     11223     11226
     11225     11223     11227     11226     11223     11227     11157     11228     11230
     11157     11228     11231     11157     11228     11232     11230     11228     11231
     11230     11228     11232     11231     11228     11232     11228     11232     11234
     11228     11232     11235     11228     11232     11236     11234     11232     11235
     11234     11232     11236     11235     11232     11236     11232     11236     11238
     11232     11236     11239     11232     11236     11240     11238     11236     11239
     11238     11236     11240     11239     11236     11240     11236     11240     11242
     11236     11240     11243     11236     11240     11244     11242     11240     11243
     11242     11240     11244     11243     11240     11244     11240     11244     11246
     11240     11244     11247     11240     11244     11248     11246     11244     11247
     11246     11244     11248     11247     11244     11248     11244     11248     11250
     11244     11248     11251     11244     11248     11252     11250     11248     11251
     11250     11248     11252     11251     11248     11252     11248     11252     11254
     11248     11252     11255     11248     11252     11256     11254     11252     11255
     11254     11252     11256     11255     11252     11256     11252     11256     11258
     11252     11256     11259     11252     11256     11260     11258     11256     11259
     11258     11256     11260     11259     11256     11260     11256     11260     11262
     11256     11260     11263     11256     11260     11264     11262     11260     11263
     11262     11260     11264     11263     11260     11264     11260     11264     11266
     11260     11264     11267     11260     11264     11268     11266     11264     11267
     11266     11264     11268     11267     11264     11268     11264     11268     11270
     11264     11268     11271     11264     11268     11272     11270     11268     11271
     11270     11268     11272     11271     11268     11272     11268     11272     11274
     11268     11272     11275     11268     11272     11276     11274     11272     11275
     11274     11272     11276     11275     11272     11276     11272     11276     11278
     11272     11276     11279     11272     11276     11280     11278     11276     11279
     11278     11276     11280     11279     11276     11280     11276     11280     11282
     11276     11280     11283     11276     11280     11284     11282     11280     11283
     11282     11280     11284     11283     11280     11284     11287     11285     11288
     11287     11285     11289     11287     11285     11290     11288     11285     11289
     11288     11285     11290     11289     11285     11290     11285     11290     11292
     11285     11290     11293     11285     11290     11294     11292     11290     11293
     11292     11290     11294     11293     11290     11294     11290     11294     11296
     11290     11294     11297     11290     11294     11306     11296     11294     11297
     11296     11294     11306     11297     11294     11306     11300     11298     11302
     11300     11298     11304     11300     11298     11306     11302     11298     11304
     11302     11298     11306     11304     11298     11306     11298     11304     11308
     11294     11306     11298     11304     11308     11310     11304     11308     11311
     11304     11308     11312     11310     11308     11311     11310     11308     11312
     11311     11308     11312     11308     11312     11314     11308     11312     11315
     11308     11312     11329     11314     11312     11315     11314     11312     11329
     11315     11312     11329     11312     11315     11317     11315     11317     11319
     11315     11317     11321     11319     11317     11321     11317     11321     11323
     11317     11321     11324     11317     11321     11347     11323     11321     11324
     11323     11321     11347     11324     11321     11347     11312     11329     11331
     11312     11329     11332     11312     11329     11333     11331     11329     11332
     11331     11329     11333     11332     11329     11333     11329     11333     11335
     11333     11335     11337     11333     11335     11339     11337     11335     11339
     11335     11339     11341     11335     11339     11342     11335     11339     11410
     11341     11339     11342     11341     11339     11410     11342     11339     11410
     11321     11347     11349     11321     11347     11350     11321     11347     11351
     11349     11347     11350     11349     11347     11351     11350     11347     11351
     11347     11351     11353     11347     11351     11354     11347     11351     11355
     11353     11351     11354     11353     11351     11355     11354     11351     11355
     11351     11355     11357     11351     11355     11358     11351     11355     11359
     11357     11355     11358     11357     11355     11359     11358     11355     11359
     11355     11359     11361     11355     11359     11362     11355     11359     11363
     11361     11359     11362     11361     11359     11363     11362     11359     11363
     11359     11363     11365     11359     11363     11366     11359     11363     11367
     11365     11363     11366     11365     11363     11367     11366     11363     11367
     11363     11367     11369     11363     11367     11370     11363     11367     11371
     11369     11367     11370     11369     11367     11371     11370     11367     11371
     11367     11371     11373     11367     11371     11374     11373     11371     11374
     11371     11374     11376     11371     11374     11377     11376     11374     11377
     11374     11377     11379     11374     11377     11380     11374     11377     11381
     11379     11377     11380     11379     11377     11381     11380     11377     11381
     11377     11381     11383     11377     11381     11384     11377     11381     11385
     11383     11381     11384     11383     11381     11385     11384     11381     11385
     11381     11385     11387     11381     11385     11388     11381     11385     11389
     11387     11385     11388     11387     11385     11389     11388     11385     11389
     11385     11389     11391     11385     11389     11392     11385     11389     11393
     11391     11389     11392     11391     11389     11393     11392     11389     11393
     11389     11393     11395     11389     11393     11396     11389     11393     11397
     11395     11393     11396     11395     11393     11397     11396     11393     11397
     11393     11397     11399     11393     11397     11400     11393     11397     11401
     11399     11397     11400     11399     11397     11401     11400     11397     11401
     11397     11401     11403     11397     11401     11404     11397     11401     11405
     11403     11401     11404     11403     11401     11405     11404     11401     11405
     11401     11405     11407     11401     11405     11408     11401     11405     11409
     11407     11405     11408     11407     11405     11409     11408     11405     11409
     11339     11410     11412     11339     11410     11413     11339     11410     11414
     11412     11410     11413     11412     11410     11414     11413     11410     11414
     11410     11414     11416     11410     11414     11417     11410     11414     11418
     11416     11414     11417     11416     11414     11418     11417     11414     11418
     11414     11418     11420     11414     11418     11421     11414     11418     11422
     11420     11418     11421     11420     11418     11422     11421     11418     11422
     11418     11422     11424     11418     11422     11425     11418     11422     11426
     11424     11422     11425     11424     11422     11426     11425     11422     11426
     11422     11426     11428     11422     11426     11429     11422     11426     11430
     11428     11426     11429     11428     11426     11430     11429     11426     11430
     11426     11430     11432     11426     11430     11433     11426     11430     11434
     11432     11430     11433     11432     11430     11434     11433     11430     11434
     11430     11434     11436     11430     11434     11437     11430     11434     11438
     11436     11434     11437     11436     11434     11438     11437     11434     11438
     11434     11438     11440     11434     11438     11441     11434     11438     11442
     11440     11438     11441     11440     11438     11442     11441     11438     11442
     11438     11442     11444     11438     11442     11445     11438     11442     11446
     11444     11442     11445     11444     11442     11446     11445     11442     11446
     11442     11446     11448     11442     11446     11449     11442     11446     11450
     11448     11446     11449     11448     11446     11450     11449     11446     11450
     11446     11450     11452     11446     11450     11453     11446     11450     11454
     11452     11450     11453     11452     11450     11454     11453     11450     11454
     11450     11454     11456     11450     11454     11457     11450     11454     11458
     11456     11454     11457     11456     11454     11458     11457     11454     11458
     11454     11458     11460     11454     11458     11461     11454     11458     11462
     11460     11458     11461     11460     11458     11462     11461     11458     11462
     11458     11462     11464     11458     11462     11465     11458     11462     11466
     11464     11462     11465     11464     11462     11466     11465     11462     11466
     11469     11467     11470     11469     11467     11471     11469     11467     11472
     11470     11467     11471     11470     11467     11472     11471     11467     11472
     11467     11472     11474     11467     11472     11475     11467     11472     11476
     11474     11472     11475     11474     11472     11476     11475     11472     11476
     11472     11476     11478     11472     11476     11479     11472     11476     11488
     11478     11476     11479     11478     11476     11488     11479     11476     11488
     11482     11480     11484     11482     11480     11486     11482     11480     11488
     11484     11480     11486     11484     11480     11488     11486     11480     11488
     11480     11486     11490     11476     11488     11480     11486     11490     11492
     11486     11490     11493     11486     11490     11494     11492     11490     11493
     11492     11490     11494     11493     11490     11494     11490     11494     11496
     11490     11494     11497     11490     11494     11511     11496     11494     11497
     11496     11494     11511     11497     11494     11511     11494     11497     11499
     11497     11499     11501     11497     11499     11503     11501     11499     11503
     11499     11503     11505     11499     11503     11506     11499     11503     11529
     11505     11503     11506     11505     11503     11529     11506     11503     11529
     11494     11511     11513     11494     11511     11514     11494     11511     11515
     11513     11511     11514     11513     11511     11515     11514     11511     11515
     11511     11515     11517     11515     11517     11519     11515     11517     11521
     11519     11517     11521     11517     11521     11523     11517     11521     11524
     11517     11521     11592     11523     11521     11524     11523     11521     11592
     11524     11521     11592     11503     11529     11531     11503     11529     11532
     11503     11529     11533     11531     11529     11532     11531     11529     11533
     11532     11529     11533     11529     11533     11535     11529     11533     11536
     11529     11533     11537     11535     11533     11536     11535     11533     11537
     11536     11533     11537     11533     11537     11539     11533     11537     11540
     11533     11537     11541     11539     11537     11540     11539     11537     11541
     11540     11537     11541     11537     11541     11543     11537     11541     11544
     11537     11541     11545     11543     11541     11544     11543     11541     11545
     11544     11541     11545     11541     11545     11547     11541     11545     11548
     11541     11545     11549     11547     11545     11548     11547     11545     11549
     11548     11545     11549     11545     11549     11551     11545     11549     11552
     11545     11549     11553     11551     11549     11552     11551     11549     11553
     11552     11549     11553     11549     11553     11555     11549     11553     11556
     11555     11553     11556     11553     11556     11558     11553     11556     11559
     11558     11556     11559     11556     11559     11561     11556     11559     11562
     11556     11559     11563     11561     11559     11562     11561     11559     11563
     11562     11559     11563     11559     11563     11565     11559     11563     11566
     11559     11563     11567     11565     11563     11566     11565     11563     11567
     11566     11563     11567     11563     11567     11569     11563     11567     11570
     11563     11567     11571     11569     11567     11570     11569     11567     11571
     11570     11567     11571     11567     11571     11573     11567     11571     11574
     11567     11571     11575     11573     11571     11574     11573     11571     11575
     11574     11571     11575     11571     11575     11577     11571     11575     11578
     11571     11575     11579     11577     11575     11578     11577     11575     11579
     11578     11575     11579     11575     11579     11581     11575     11579     11582
     11575     11579     11583     11581     11579     11582     11581     11579     11583
     11582     11579     11583     11579     11583     11585     11579     11583     11586
     11579     11583     11587     11585     11583     11586     11585     11583     11587
     11586     11583     11587     11583     11587     11589     11583     11587     11590
     11583     11587     11591     11589     11587     11590     11589     11587     11591
     11590     11587     11591     11521     11592     11594     11521     11592     11595
     11521     11592     11596     11594     11592     11595     11594     11592     11596
     11595     11592     11596     11592     11596     11598     11592     11596     11599
     11592     11596     11600     11598     11596     11599     11598     11596     11600
     11599     11596     11600     11596     11600     11602     11596     11600     11603
     11596     11600     11604     11602     11600     11603     11602     11600     11604
     11603     11600     11604     11600     11604     11606     11600     11604     11607
     11600     11604     11608     11606     11604     11607     11606     11604     11608
     11607     11604     11608     11604     11608     11610     11604     11608     11611
     11604     11608     11612     11610     11608     11611     11610     11608     11612
     11611     11608     11612     11608     11612     11614     11608     11612     11615
     11608     11612     11616     11614     11612     11615     11614     11612     11616
     11615     11612     11616     11612     11616     11618     11612     11616     11619
     11612     11616     11620     11618     11616     11619     11618     11616     11620
     11619     11616     11620     11616     11620     11622     11616     11620     11623
     11616     11620     11624     11622     11620     11623     11622     11620     11624
     11623     11620     11624     11620     11624     11626     11620     11624     11627
     11620     11624     11628     11626     11624     11627     11626     11624     11628
     11627     11624     11628     11624     11628     11630     11624     11628     11631
     11624     11628     11632     11630     11628     11631     11630     11628     11632
     11631     11628     11632     11628     11632     11634     11628     11632     11635
     11628     11632     11636     11634     11632     11635     11634     11632     11636
     11635     11632     11636     11632     11636     11638     11632     11636     11639
     11632     11636     11640     11638     11636     11639     11638     11636     11640
     11639     11636     11640     11636     11640     11642     11636     11640     11643
     11636     11640     11644     11642     11640     11643     11642     11640     11644
     11643     11640     11644     11640     11644     11646     11640     11644     11647
     11640     11644     11648     11646     11644     11647     11646     11644     11648
     11647     11644     11648     11651     11649     11652     11651     11649     11653
     11651     11649     11654     11652     11649     11653     11652     11649     11654
     11653     11649     11654     11649     11654     11656     11649     11654     11657
     11649     11654     11658     11656     11654     11657     11656     11654     11658
     11657     11654     11658     11654     11658     11660     11654     11658     11661
     11654     11658     11670     11660     11658     11661     11660     11658     11670
     11661     11658     11670     11664     11662     11666     11664     11662     11668
     11664     11662     11670     11666     11662     11668     11666     11662     11670
     11668     11662     11670     11662     11668     11672     11658     11670     11662
     11668     11672     11674     11668     11672     11675     11668     11672     11676
     11674     11672     11675     11674     11672     11676     11675     11672     11676
     11672     11676     11678     11672     11676     11679     11672     11676     11693
     11678     11676     11679     11678     11676     11693     11679     11676     11693
     11676     11679     11681     11679     11681     11683     11679     11681     11685
     11683     11681     11685     11681     11685     11687     11681     11685     11688
     11681     11685     11711     11687     11685     11688     11687     11685     11711
     11688     11685     11711     11676     11693     11695     11676     11693     11696
     11676     11693     11697     11695     11693     11696     11695     11693     11697
     11696     11693     11697     11693     11697     11699     11697     11699     11701
     11697     11699     11703     11701     11699     11703     11699     11703     11705
     11699     11703     11706     11699     11703     11774     11705     11703     11706
     11705     11703     11774     11706     11703     11774     11685     11711     11713
     11685     11711     11714     11685     11711     11715     11713     11711     11714
     11713     11711     11715     11714     11711     11715     11711     11715     11717
     11711     11715     11718     11711     11715     11719     11717     11715     11718
     11717     11715     11719     11718     11715     11719     11715     11719     11721
     11715     11719     11722     11715     11719     11723     11721     11719     11722
     11721     11719     11723     11722     11719     11723     11719     11723     11725
     11719     11723     11726     11719     11723     11727     11725     11723     11726
     11725     11723     11727     11726     11723     11727     11723     11727     11729
     11723     11727     11730     11723     11727     11731     11729     11727     11730
     11729     11727     11731     11730     11727     11731     11727     11731     11733
     11727     11731     11734     11727     11731     11735     11733     11731     11734
     11733     11731     11735     11734     11731     11735     11731     11735     11737
     11731     11735     11738     11737     11735     11738     11735     11738     11740
     11735     11738     11741     11740     11738     11741     11738     11741     11743
     11738     11741     11744     11738     11741     11745     11743     11741     11744
     11743     11741     11745     11744     11741     11745     11741     11745     11747
     11741     11745     11748     11741     11745     11749     11747     11745     11748
     11747     11745     11749     11748     11745     11749     11745     11749     11751
     11745     11749     11752     11745     11749     11753     11751     11749     11752
     11751     11749     11753     11752     11749     11753     11749     11753     11755
     11749     11753     11756     11749     11753     11757     11755     11753     11756
     11755     11753     11757     11756     11753     11757     11753     11757     11759
     11753     11757     11760     11753     11757     11761     11759     11757     11760
     11759     11757     11761     11760     11757     11761     11757     11761     11763
     11757     11761     11764     11757     11761     11765     11763     11761     11764
     11763     11761     11765     11764     11761     11765     11761     11765     11767
     11761     11765     11768     11761     11765     11769     11767     11765     11768
     11767     11765     11769     11768     11765     11769     11765     11769     11771
     11765     11769     11772     11765     11769     11773     11771     11769     11772
     11771     11769     11773     11772     11769     11773     11703     11774     11776
     11703     11774     11777     11703     11774     11778     11776     11774     11777
     11776     11774     11778     11777     11774     11778     11774     11778     11780
     11774     11778     11781     11774     11778     11782     11780     11778     11781
     11780     11778     11782     11781     11778     11782     11778     11782     11784
     11778     11782     11785     11778     11782     11786     11784     11782     11785
     11784     11782     11786     11785     11782     11786     11782     11786     11788
     11782     11786     11789     11782     11786     11790     11788     11786     11789
     11788     11786     11790     11789     11786     11790     11786     11790     11792
     11786     11790     11793     11786     11790     11794     11792     11790     11793
     11792     11790     11794     11793     11790     11794     11790     11794     11796
     11790     11794     11797     11790     11794     11798     11796     11794     11797
     11796     11794     11798     11797     11794     11798     11794     11798     11800
     11794     11798     11801     11794     11798     11802     11800     11798     11801
     11800     11798     11802     11801     11798     11802     11798     11802     11804
     11798     11802     11805     11798     11802     11806     11804     11802     11805
     11804     11802     11806     11805     11802     11806     11802     11806     11808
     11802     11806     11809     11802     11806     11810     11808     11806     11809
     11808     11806     11810     11809     11806     11810     11806     11810     11812
     11806     11810     11813     11806     11810     11814     11812     11810     11813
     11812     11810     11814     11813     11810     11814     11810     11814     11816
     11810     11814     11817     11810     11814     11818     11816     11814     11817
     11816     11814     11818     11817     11814     11818     11814     11818     11820
     11814     11818     11821     11814     11818     11822     11820     11818     11821
     11820     11818     11822     11821     11818     11822     11818     11822     11824
     11818     11822     11825     11818     11822     11826     11824     11822     11825
     11824     11822     11826     11825     11822     11826     11822     11826     11828
     11822     11826     11829     11822     11826     11830     11828     11826     11829
     11828     11826     11830     11829     11826     11830     11833     11831     11834
     11833     11831     11835     11833     11831     11836     11834     11831     11835
     11834     11831     11836     11835     11831     11836     11831     11836     11838
     11831     11836     11839     11831     11836     11840     11838     11836     11839
     11838     11836     11840     11839     11836     11840     11836     11840     11842
     11836     11840     11843     11836     11840     11852     11842     11840     11843
     11842     11840     11852     11843     11840     11852     11846     11844     11848
     11846     11844     11850     11846     11844     11852     11848     11844     11850
     11848     11844     11852     11850     11844     11852     11844     11850     11854
     11840     11852     11844     11850     11854     11856     11850     11854     11857
     11850     11854     11858     11856     11854     11857     11856     11854     11858
     11857     11854     11858     11854     11858     11860     11854     11858     11861
     11854     11858     11875     11860     11858     11861     11860     11858     11875
     11861     11858     11875     11858     11861     11863     11861     11863     11865
     11861     11863     11867     11865     11863     11867     11863     11867     11869
     11863     11867     11870     11863     11867     11893     11869     11867     11870
     11869     11867     11893     11870     11867     11893     11858     11875     11877
     11858     11875     11878     11858     11875     11879     11877     11875     11878
     11877     11875     11879     11878     11875     11879     11875     11879     11881
     11879     11881     11883     11879     11881     11885     11883     11881     11885
     11881     11885     11887     11881     11885     11888     11881     11885     11956
     11887     11885     11888     11887     11885     11956     11888     11885     11956
     11867     11893     11895     11867     11893     11896     11867     11893     11897
     11895     11893     11896     11895     11893     11897     11896     11893     11897
     11893     11897     11899     11893     11897     11900     11893     11897     11901
     11899     11897     11900     11899     11897     11901     11900     11897     11901
     11897     11901     11903     11897     11901     11904     11897     11901     11905
     11903     11901     11904     11903     11901     11905     11904     11901     11905
     11901     11905     11907     11901     11905     11908     11901     11905     11909
     11907     11905     11908     11907     11905     11909     11908     11905     11909
     11905     11909     11911     11905     11909     11912     11905     11909     11913
     11911     11909     11912     11911     11909     11913     11912     11909     11913
     11909     11913     11915     11909     11913     11916     11909     11913     11917
     11915     11913     11916     11915     11913     11917     11916     11913     11917
     11913     11917     11919     11913     11917     11920     11919     11917     11920
     11917     11920     11922     11917     11920     11923     11922     11920     11923
     11920     11923     11925     11920     11923     11926     11920     11923     11927
     11925     11923     11926     11925     11923     11927     11926     11923     11927
     11923     11927     11929     11923     11927     11930     11923     11927     11931
     11929     11927     11930     11929     11927     11931     11930     11927     11931
     11927     11931     11933     11927     11931     11934     11927     11931     11935
     11933     11931     11934     11933     11931     11935     11934     11931     11935
     11931     11935     11937     11931     11935     11938     11931     11935     11939
     11937     11935     11938     11937     11935     11939     11938     11935     11939
     11935     11939     11941     11935     11939     11942     11935     11939     11943
     11941     11939     11942     11941     11939     11943     11942     11939     11943
     11939     11943     11945     11939     11943     11946     11939     11943     11947
     11945     11943     11946     11945     11943     11947     11946     11943     11947
     11943     11947     11949     11943     11947     11950     11943     11947     11951
     11949     11947     11950     11949     11947     11951     11950     11947     11951
     11947     11951     11953     11947     11951     11954     11947     11951     11955
     11953     11951     11954     11953     11951     11955     11954     11951     11955
     11885     11956     11958     11885     11956     11959     11885     11956     11960
     11958     11956     11959     11958     11956     11960     11959     11956     11960
     11956     11960     11962     11956     11960     11963     11956     11960     11964
     11962     11960     11963     11962     11960     11964     11963     11960     11964
     11960     11964     11966     11960     11964     11967     11960     11964     11968
     11966     11964     11967     11966     11964     11968     11967     11964     11968
     11964     11968     11970     11964     11968     11971     11964     11968     11972
     11970     11968     11971     11970     11968     11972     11971     11968     11972
     11968     11972     11974     11968     11972     11975     11968     11972     11976
     11974     11972     11975     11974     11972     11976     11975     11972     11976
     11972     11976     11978     11972     11976     11979     11972     11976     11980
     11978     11976     11979     11978     11976     11980     11979     11976     11980
     11976     11980     11982     11976     11980     11983     11976     11980     11984
     11982     11980     11983     11982     11980     11984     11983     11980     11984
     11980     11984     11986     11980     11984     11987     11980     11984     11988
     11986     11984     11987     11986     11984     11988     11987     11984     11988
     11984     11988     11990     11984     11988     11991     11984     11988     11992
     11990     11988     11991     11990     11988     11992     11991     11988     11992
     11988     11992     11994     11988     11992     11995     11988     11992     11996
     11994     11992     11995     11994     11992     11996     11995     11992     11996
     11992     11996     11998     11992     11996     11999     11992     11996     12000
     11998     11996     11999     11998     11996     12000     11999     11996     12000
     11996     12000     12002     11996     12000     12003     11996     12000     12004
     12002     12000     12003     12002     12000     12004     12003     12000     12004
     12000     12004     12006     12000     12004     12007     12000     12004     12008
     12006     12004     12007     12006     12004     12008     12007     12004     12008
     12004     12008     12010     12004     12008     12011     12004     12008     12012
     12010     12008     12011     12010     12008     12012     12011     12008     12012
     12015     12013     12016     12015     12013     12017     12015     12013     12018
     12016     12013     12017     12016     12013     12018     12017     12013     12018
     12013     12018     12020     12013     12018     12021     12013     12018     12022
     12020     12018     12021     12020     12018     12022     12021     12018     12022
     12018     12022     12024     12018     12022     12025     12018     12022     12034
     12024     12022     12025     12024     12022     12034     12025     12022     12034
     12028     12026     12030     12028     12026     12032     12028     12026     12034
     12030     12026     12032     12030     12026     12034     12032     12026     12034
     12026     12032     12036     12022     12034     12026     12032     12036     12038
     12032     12036     12039     12032     12036     12040     12038     12036     12039
     12038     12036     12040     12039     12036     12040     12036     12040     12042
     12036     12040     12043     12036     12040     12057     12042     12040     12043
     12042     12040     12057     12043     12040     12057     12040     12043     12045
     12043     12045     12047     12043     12045     12049     12047     12045     12049
     12045     12049     12051     12045     12049     12052     12045     12049     12075
     12051     12049     12052     12051     12049     12075     12052     12049     12075
     12040     12057     12059     12040     12057     12060     12040     12057     12061
     12059     12057     12060     12059     12057     12061     12060     12057     12061
     12057     12061     12063     12061     12063     12065     12061     12063     12067
     12065     12063     12067     12063     12067     12069     12063     12067     12070
     12063     12067     12138     12069     12067     12070     12069     12067     12138
     12070     12067     12138     12049     12075     12077     12049     12075     12078
     12049     12075     12079     12077     12075     12078     12077     12075     12079
     12078     12075     12079     12075     12079     12081     12075     12079     12082
     12075     12079     12083     12081     12079     12082     12081     12079     12083
     12082     12079     12083     12079     12083     12085     12079     12083     12086
     12079     12083     12087     12085     12083     12086     12085     12083     12087
     12086     12083     12087     12083     12087     12089     12083     12087     12090
     12083     12087     12091     12089     12087     12090     12089     12087     12091
     12090     12087     12091     12087     12091     12093     12087     12091     12094
     12087     12091     12095     12093     12091     12094     12093     12091     12095
     12094     12091     12095     12091     12095     12097     12091     12095     12098
     12091     12095     12099     12097     12095     12098     12097     12095     12099
     12098     12095     12099     12095     12099     12101     12095     12099     12102
     12101     12099     12102     12099     12102     12104     12099     12102     12105
     12104     12102     12105     12102     12105     12107     12102     12105     12108
     12102     12105     12109     12107     12105     12108     12107     12105     12109
     12108     12105     12109     12105     12109     12111     12105     12109     12112
     12105     12109     12113     12111     12109     12112     12111     12109     12113
     12112     12109     12113     12109     12113     12115     12109     12113     12116
     12109     12113     12117     12115     12113     12116     12115     12113     12117
     12116     12113     12117     12113     12117     12119     12113     12117     12120
     12113     12117     12121     12119     12117     12120     12119     12117     12121
     12120     12117     12121     12117     12121     12123     12117     12121     12124
     12117     12121     12125     12123     12121     12124     12123     12121     12125
     12124     12121     12125     12121     12125     12127     12121     12125     12128
     12121     12125     12129     12127     12125     12128     12127     12125     12129
     12128     12125     12129     12125     12129     12131     12125     12129     12132
     12125     12129     12133     12131     12129     12132     12131     12129     12133
     12132     12129     12133     12129     12133     12135     12129     12133     12136
     12129     12133     12137     12135     12133     12136     12135     12133     12137
     12136     12133     12137     12067     12138     12140     12067     12138     12141
     12067     12138     12142     12140     12138     12141     12140     12138     12142
     12141     12138     12142     12138     12142     12144     12138     12142     12145
     12138     12142     12146     12144     12142     12145     12144     12142     12146
     12145     12142     12146     12142     12146     12148     12142     12146     12149
     12142     12146     12150     12148     12146     12149     12148     12146     12150
     12149     12146     12150     12146     12150     12152     12146     12150     12153
     12146     12150     12154     12152     12150     12153     12152     12150     12154
     12153     12150     12154     12150     12154     12156     12150     12154     12157
     12150     12154     12158     12156     12154     12157     12156     12154     12158
     12157     12154     12158     12154     12158     12160     12154     12158     12161
     12154     12158     12162     12160     12158     12161     12160     12158     12162
     12161     12158     12162     12158     12162     12164     12158     12162     12165
     12158     12162     12166     12164     12162     12165     12164     12162     12166
     12165     12162     12166     12162     12166     12168     12162     12166     12169
     12162     12166     12170     12168     12166     12169     12168     12166     12170
     12169     12166     12170     12166     12170     12172     12166     12170     12173
     12166     12170     12174     12172     12170     12173     12172     12170     12174
     12173     12170     12174     12170     12174     12176     12170     12174     12177
     12170     12174     12178     12176     12174     12177     12176     12174     12178
     12177     12174     12178     12174     12178     12180     12174     12178     12181
     12174     12178     12182     12180     12178     12181     12180     12178     12182
     12181     12178     12182     12178     12182     12184     12178     12182     12185
     12178     12182     12186     12184     12182     12185     12184     12182     12186
     12185     12182     12186     12182     12186     12188     12182     12186     12189
     12182     12186     12190     12188     12186     12189     12188     12186     12190
     12189     12186     12190     12186     12190     12192     12186     12190     12193
     12186     12190     12194     12192     12190     12193     12192     12190     12194
     12193     12190     12194     12197     12195     12198     12197     12195     12199
     12197     12195     12200     12198     12195     12199     12198     12195     12200
     12199     12195     12200     12195     12200     12202     12195     12200     12203
     12195     12200     12204     12202     12200     12203     12202     12200     12204
     12203     12200     12204     12200     12204     12206     12200     12204     12207
     12200     12204     12216     12206     12204     12207     12206     12204     12216
     12207     12204     12216     12210     12208     12212     12210     12208     12214
     12210     12208     12216     12212     12208     12214     12212     12208     12216
     12214     12208     12216     12208     12214     12218     12204     12216     12208
     12214     12218     12220     12214     12218     12221     12214     12218     12222
     12220     12218     12221     12220     12218     12222     12221     12218     12222
     12218     12222     12224     12218     12222     12225     12218     12222     12239
     12224     12222     12225     12224     12222     12239     12225     12222     12239
     12222     12225     12227     12225     12227     12229     12225     12227     12231
     12229     12227     12231     12227     12231     12233     12227     12231     12234
     12227     12231     12257     12233     12231     12234     12233     12231     12257
     12234     12231     12257     12222     12239     12241     12222     12239     12242
     12222     12239     12243     12241     12239     12242     12241     12239     12243
     12242     12239     12243     12239     12243     12245     12243     12245     12247
     12243     12245     12249     12247     12245     12249     12245     12249     12251
     12245     12249     12252     12245     12249     12320     12251     12249     12252
     12251     12249     12320     12252     12249     12320     12231     12257     12259
     12231     12257     12260     12231     12257     12261     12259     12257     12260
     12259     12257     12261     12260     12257     12261     12257     12261     12263
     12257     12261     12264     12257     12261     12265     12263     12261     12264
     12263     12261     12265     12264     12261     12265     12261     12265     12267
     12261     12265     12268     12261     12265     12269     12267     12265     12268
     12267     12265     12269     12268     12265     12269     12265     12269     12271
     12265     12269     12272     12265     12269     12273     12271     12269     12272
     12271     12269     12273     12272     12269     12273     12269     12273     12275
     12269     12273     12276     12269     12273     12277     12275     12273     12276
     12275     12273     12277     12276     12273     12277     12273     12277     12279
     12273     12277     12280     12273     12277     12281     12279     12277     12280
     12279     12277     12281     12280     12277     12281     12277     12281     12283
     12277     12281     12284     12283     12281     12284     12281     12284     12286
     12281     12284     12287     12286     12284     12287     12284     12287     12289
     12284     12287     12290     12284     12287     12291     12289     12287     12290
     12289     12287     12291     12290     12287     12291     12287     12291     12293
     12287     12291     12294     12287     12291     12295     12293     12291     12294
     12293     12291     12295     12294     12291     12295     12291     12295     12297
     12291     12295     12298     12291     12295     12299     12297     12295     12298
     12297     12295     12299     12298     12295     12299     12295     12299     12301
     12295     12299     12302     12295     12299     12303     12301     12299     12302
     12301     12299     12303     12302     12299     12303     12299     12303     12305
     12299     12303     12306     12299     12303     12307     12305     12303     12306
     12305     12303     12307     12306     12303     12307     12303     12307     12309
     12303     12307     12310     12303     12307     12311     12309     12307     12310
     12309     12307     12311     12310     12307     12311     12307     12311     12313
     12307     12311     12314     12307     12311     12315     12313     12311     12314
     12313     12311     12315     12314     12311     12315     12311     12315     12317
     12311     12315     12318     12311     12315     12319     12317     12315     12318
     12317     12315     12319     12318     12315     12319     12249     12320     12322
     12249     12320     12323     12249     12320     12324     12322     12320     12323
     12322     12320     12324     12323     12320     12324     12320     12324     12326
     12320     12324     12327     12320     12324     12328     12326     12324     12327
     12326     12324     12328     12327     12324     12328     12324     12328     12330
     12324     12328     12331     12324     12328     12332     12330     12328     12331
     12330     12328     12332     12331     12328     12332     12328     12332     12334
     12328     12332     12335     12328     12332     12336     12334     12332     12335
     12334     12332     12336     12335     12332     12336     12332     12336     12338
     12332     12336     12339     12332     12336     12340     12338     12336     12339
     12338     12336     12340     12339     12336     12340     12336     12340     12342
     12336     12340     12343     12336     12340     12344     12342     12340     12343
     12342     12340     12344     12343     12340     12344     12340     12344     12346
     12340     12344     12347     12340     12344     12348     12346     12344     12347
     12346     12344     12348     12347     12344     12348     12344     12348     12350
     12344     12348     12351     12344     12348     12352     12350     12348     12351
     12350     12348     12352     12351     12348     12352     12348     12352     12354
     12348     12352     12355     12348     12352     12356     12354     12352     12355
     12354     12352     12356     12355     12352     12356     12352     12356     12358
     12352     12356     12359     12352     12356     12360     12358     12356     12359
     12358     12356     12360     12359     12356     12360     12356     12360     12362
     12356     12360     12363     12356     12360     12364     12362     12360     12363
     12362     12360     12364     12363     12360     12364     12360     12364     12366
     12360     12364     12367     12360     12364     12368     12366     12364     12367
     12366     12364     12368     12367     12364     12368     12364     12368     12370
     12364     12368     12371     12364     12368     12372     12370     12368     12371
     12370     12368     12372     12371     12368     12372     12368     12372     12374
     12368     12372     12375     12368     12372     12376     12374     12372     12375
     12374     12372     12376     12375     12372     12376     12379     12377     12380
     12379     12377     12381     12379     12377     12382     12380     12377     12381
     12380     12377     12382     12381     12377     12382     12377     12382     12384
     12377     12382     12385     12377     12382     12386     12384     12382     12385
     12384     12382     12386     12385     12382     12386     12382     12386     12388
     12382     12386     12389     12382     12386     12398     12388     12386     12389
     12388     12386     12398     12389     12386     12398     12392     12390     12394
     12392     12390     12396     12392     12390     12398     12394     12390     12396
     12394     12390     12398     12396     12390     12398     12390     12396     12400
     12386     12398     12390     12396     12400     12402     12396     12400     12403
     12396     12400     12404     12402     12400     12403     12402     12400     12404
     12403     12400     12404     12400     12404     12406     12400     12404     12407
     12400     12404     12421     12406     12404     12407     12406     12404     12421
     12407     12404     12421     12404     12407     12409     12407     12409     12411
     12407     12409     12413     12411     12409     12413     12409     12413     12415
     12409     12413     12416     12409     12413     12439     12415     12413     12416
     12415     12413     12439     12416     12413     12439     12404     12421     12423
     12404     12421     12424     12404     12421     12425     12423     12421     12424
     12423     12421     12425     12424     12421     12425     12421     12425     12427
     12425     12427     12429     12425     12427     12431     12429     12427     12431
     12427     12431     12433     12427     12431     12434     12427     12431     12502
     12433     12431     12434     12433     12431     12502     12434     12431     12502
     12413     12439     12441     12413     12439     12442     12413     12439     12443
     12441     12439     12442     12441     12439     12443     12442     12439     12443
     12439     12443     12445     12439     12443     12446     12439     12443     12447
     12445     12443     12446     12445     12443     12447     12446     12443     12447
     12443     12447     12449     12443     12447     12450     12443     12447     12451
     12449     12447     12450     12449     12447     12451     12450     12447     12451
     12447     12451     12453     12447     12451     12454     12447     12451     12455
     12453     12451     12454     12453     12451     12455     12454     12451     12455
     12451     12455     12457     12451     12455     12458     12451     12455     12459
     12457     12455     12458     12457     12455     12459     12458     12455     12459
     12455     12459     12461     12455     12459     12462     12455     12459     12463
     12461     12459     12462     12461     12459     12463     12462     12459     12463
     12459     12463     12465     12459     12463     12466     12465     12463     12466
     12463     12466     12468     12463     12466     12469     12468     12466     12469
     12466     12469     12471     12466     12469     12472     12466     12469     12473
     12471     12469     12472     12471     12469     12473     12472     12469     12473
     12469     12473     12475     12469     12473     12476     12469     12473     12477
     12475     12473     12476     12475     12473     12477     12476     12473     12477
     12473     12477     12479     12473     12477     12480     12473     12477     12481
     12479     12477     12480     12479     12477     12481     12480     12477     12481
     12477     12481     12483     12477     12481     12484     12477     12481     12485
     12483     12481     12484     12483     12481     12485     12484     12481     12485
     12481     12485     12487     12481     12485     12488     12481     12485     12489
     12487     12485     12488     12487     12485     12489     12488     12485     12489
     12485     12489     12491     12485     12489     12492     12485     12489     12493
     12491     12489     12492     12491     12489     12493     12492     12489     12493
     12489     12493     12495     12489     12493     12496     12489     12493     12497
     12495     12493     12496     12495     12493     12497     12496     12493     12497
     12493     12497     12499     12493     12497     12500     12493     12497     12501
     12499     12497     12500     12499     12497     12501     12500     12497     12501
     12431     12502     12504     12431     12502     12505     12431     12502     12506
     12504     12502     12505     12504     12502     12506     12505     12502     12506
     12502     12506     12508     12502     12506     12509     12502     12506     12510
     12508     12506     12509     12508     12506     12510     12509     12506     12510
     12506     12510     12512     12506     12510     12513     12506     12510     12514
     12512     12510     12513     12512     12510     12514     12513     12510     12514
     12510     12514     12516     12510     12514     12517     12510     12514     12518
     12516     12514     12517     12516     12514     12518     12517     12514     12518
     12514     12518     12520     12514     12518     12521     12514     12518     12522
     12520     12518     12521     12520     12518     12522     12521     12518     12522
     12518     12522     12524     12518     12522     12525     12518     12522     12526
     12524     12522     12525     12524     12522     12526     12525     12522     12526
     12522     12526     12528     12522     12526     12529     12522     12526     12530
     12528     12526     12529     12528     12526     12530     12529     12526     12530
     12526     12530     12532     12526     12530     12533     12526     12530     12534
     12532     12530     12533     12532     12530     12534     12533     12530     12534
     12530     12534     12536     12530     12534     12537     12530     12534     12538
     12536     12534     12537     12536     12534     12538     12537     12534     12538
     12534     12538     12540     12534     12538     12541     12534     12538     12542
     12540     12538     12541     12540     12538     12542     12541     12538     12542
     12538     12542     12544     12538     12542     12545     12538     12542     12546
     12544     12542     12545     12544     12542     12546     12545     12542     12546
     12542     12546     12548     12542     12546     12549     12542     12546     12550
     12548     12546     12549     12548     12546     12550     12549     12546     12550
     12546     12550     12552     12546     12550     12553     12546     12550     12554
     12552     12550     12553     12552     12550     12554     12553     12550     12554
     12550     12554     12556     12550     12554     12557     12550     12554     12558
     12556     12554     12557     12556     12554     12558     12557     12554     12558
     12561     12559     12562     12561     12559     12563     12561     12559     12564
     12562     12559     12563     12562     12559     12564     12563     12559     12564
     12559     12564     12566     12559     12564     12567     12559     12564     12568
     12566     12564     12567     12566     12564     12568     12567     12564     12568
     12564     12568     12570     12564     12568     12571     12564     12568     12580
     12570     12568     12571     12570     12568     12580     12571     12568     12580
     12574     12572     12576     12574     12572     12578     12574     12572     12580
     12576     12572     12578     12576     12572     12580     12578     12572     12580
     12572     12578     12582     12568     12580     12572     12578     12582     12584
     12578     12582     12585     12578     12582     12586     12584     12582     12585
     12584     12582     12586     12585     12582     12586     12582     12586     12588
     12582     12586     12589     12582     12586     12603     12588     12586     12589
     12588     12586     12603     12589     12586     12603     12586     12589     12591
     12589     12591     12593     12589     12591     12595     12593     12591     12595
     12591     12595     12597     12591     12595     12598     12591     12595     12621
     12597     12595     12598     12597     12595     12621     12598     12595     12621
     12586     12603     12605     12586     12603     12606     12586     12603     12607
     12605     12603     12606     12605     12603     12607     12606     12603     12607
     12603     12607     12609     12607     12609     12611     12607     12609     12613
     12611     12609     12613     12609     12613     12615     12609     12613     12616
     12609     12613     12684     12615     12613     12616     12615     12613     12684
     12616     12613     12684     12595     12621     12623     12595     12621     12624
     12595     12621     12625     12623     12621     12624     12623     12621     12625
     12624     12621     12625     12621     12625     12627     12621     12625     12628
     12621     12625     12629     12627     12625     12628     12627     12625     12629
     12628     12625     12629     12625     12629     12631     12625     12629     12632
     12625     12629     12633     12631     12629     12632     12631     12629     12633
     12632     12629     12633     12629     12633     12635     12629     12633     12636
     12629     12633     12637     12635     12633     12636     12635     12633     12637
     12636     12633     12637     12633     12637     12639     12633     12637     12640
     12633     12637     12641     12639     12637     12640     12639     12637     12641
     12640     12637     12641     12637     12641     12643     12637     12641     12644
     12637     12641     12645     12643     12641     12644     12643     12641     12645
     12644     12641     12645     12641     12645     12647     12641     12645     12648
     12647     12645     12648     12645     12648     12650     12645     12648     12651
     12650     12648     12651     12648     12651     12653     12648     12651     12654
     12648     12651     12655     12653     12651     12654     12653     12651     12655
     12654     12651     12655     12651     12655     12657     12651     12655     12658
     12651     12655     12659     12657     12655     12658     12657     12655     12659
     12658     12655     12659     12655     12659     12661     12655     12659     12662
     12655     12659     12663     12661     12659     12662     12661     12659     12663
     12662     12659     12663     12659     12663     12665     12659     12663     12666
     12659     12663     12667     12665     12663     12666     12665     12663     12667
     12666     12663     12667     12663     12667     12669     12663     12667     12670
     12663     12667     12671     12669     12667     12670     12669     12667     12671
     12670     12667     12671     12667     12671     12673     12667     12671     12674
     12667     12671     12675     12673     12671     12674     12673     12671     12675
     12674     12671     12675     12671     12675     12677     12671     12675     12678
     12671     12675     12679     12677     12675     12678     12677     12675     12679
     12678     12675     12679     12675     12679     12681     12675     12679     12682
     12675     12679     12683     12681     12679     12682     12681     12679     12683
     12682     12679     12683     12613     12684     12686     12613     12684     12687
     12613     12684     12688     12686     12684     12687     12686     12684     12688
     12687     12684     12688     12684     12688     12690     12684     12688     12691
     12684     12688     12692     12690     12688     12691     12690     12688     12692
     12691     12688     12692     12688     12692     12694     12688     12692     12695
     12688     12692     12696     12694     12692     12695     12694     12692     12696
     12695     12692     12696     12692     12696     12698     12692     12696     12699
     12692     12696     12700     12698     12696     12699     12698     12696     12700
     12699     12696     12700     12696     12700     12702     12696     12700     12703
     12696     12700     12704     12702     12700     12703     12702     12700     12704
     12703     12700     12704     12700     12704     12706     12700     12704     12707
     12700     12704     12708     12706     12704     12707     12706     12704     12708
     12707     12704     12708     12704     12708     12710     12704     12708     12711
     12704     12708     12712     12710     12708     12711     12710     12708     12712
     12711     12708     12712     12708     12712     12714     12708     12712     12715
     12708     12712     12716     12714     12712     12715     12714     12712     12716
     12715     12712     12716     12712     12716     12718     12712     12716     12719
     12712     12716     12720     12718     12716     12719     12718     12716     12720
     12719     12716     12720     12716     12720     12722     12716     12720     12723
     12716     12720     12724     12722     12720     12723     12722     12720     12724
     12723     12720     12724     12720     12724     12726     12720     12724     12727
     12720     12724     12728     12726     12724     12727     12726     12724     12728
     12727     12724     12728     12724     12728     12730     12724     12728     12731
     12724     12728     12732     12730     12728     12731     12730     12728     12732
     12731     12728     12732     12728     12732     12734     12728     12732     12735
     12728     12732     12736     12734     12732     12735     12734     12732     12736
     12735     12732     12736     12732     12736     12738     12732     12736     12739
     12732     12736     12740     12738     12736     12739     12738     12736     12740
     12739     12736     12740     12743     12741     12744     12743     12741     12745
     12743     12741     12746     12744     12741     12745     12744     12741     12746
     12745     12741     12746     12741     12746     12748     12741     12746     12749
     12741     12746     12750     12748     12746     12749     12748     12746     12750
     12749     12746     12750     12746     12750     12752     12746     12750     12753
     12746     12750     12762     12752     12750     12753     12752     12750     12762
     12753     12750     12762     12756     12754     12758     12756     12754     12760
     12756     12754     12762     12758     12754     12760     12758     12754     12762
     12760     12754     12762     12754     12760     12764     12750     12762     12754
     12760     12764     12766     12760     12764     12767     12760     12764     12768
     12766     12764     12767     12766     12764     12768     12767     12764     12768
     12764     12768     12770     12764     12768     12771     12764     12768     12785
     12770     12768     12771     12770     12768     12785     12771     12768     12785
     12768     12771     12773     12771     12773     12775     12771     12773     12777
     12775     12773     12777     12773     12777     12779     12773     12777     12780
     12773     12777     12803     12779     12777     12780     12779     12777     12803
     12780     12777     12803     12768     12785     12787     12768     12785     12788
     12768     12785     12789     12787     12785     12788     12787     12785     12789
     12788     12785     12789     12785     12789     12791     12789     12791     12793
     12789     12791     12795     12793     12791     12795     12791     12795     12797
     12791     12795     12798     12791     12795     12866     12797     12795     12798
     12797     12795     12866     12798     12795     12866     12777     12803     12805
     12777     12803     12806     12777     12803     12807     12805     12803     12806
     12805     12803     12807     12806     12803     12807     12803     12807     12809
     12803     12807     12810     12803     12807     12811     12809     12807     12810
     12809     12807     12811     12810     12807     12811     12807     12811     12813
     12807     12811     12814     12807     12811     12815     12813     12811     12814
     12813     12811     12815     12814     12811     12815     12811     12815     12817
     12811     12815     12818     12811     12815     12819     12817     12815     12818
     12817     12815     12819     12818     12815     12819     12815     12819     12821
     12815     12819     12822     12815     12819     12823     12821     12819     12822
     12821     12819     12823     12822     12819     12823     12819     12823     12825
     12819     12823     12826     12819     12823     12827     12825     12823     12826
     12825     12823     12827     12826     12823     12827     12823     12827     12829
     12823     12827     12830     12829     12827     12830     12827     12830     12832
     12827     12830     12833     12832     12830     12833     12830     12833     12835
     12830     12833     12836     12830     12833     12837     12835     12833     12836
     12835     12833     12837     12836     12833     12837     12833     12837     12839
     12833     12837     12840     12833     12837     12841     12839     12837     12840
     12839     12837     12841     12840     12837     12841     12837     12841     12843
     12837     12841     12844     12837     12841     12845     12843     12841     12844
     12843     12841     12845     12844     12841     12845     12841     12845     12847
     12841     12845     12848     12841     12845     12849     12847     12845     12848
     12847     12845     12849     12848     12845     12849     12845     12849     12851
     12845     12849     12852     12845     12849     12853     12851     12849     12852
     12851     12849     12853     12852     12849     12853     12849     12853     12855
     12849     12853     12856     12849     12853     12857     12855     12853     12856
     12855     12853     12857     12856     12853     12857     12853     12857     12859
     12853     12857     12860     12853     12857     12861     12859     12857     12860
     12859     12857     12861     12860     12857     12861     12857     12861     12863
     12857     12861     12864     12857     12861     12865     12863     12861     12864
     12863     12861     12865     12864     12861     12865     12795     12866     12868
     12795     12866     12869     12795     12866     12870     12868     12866     12869
     12868     12866     12870     12869     12866     12870     12866     12870     12872
     12866     12870     12873     12866     12870     12874     12872     12870     12873
     12872     12870     12874     12873     12870     12874     12870     12874     12876
     12870     12874     12877     12870     12874     12878     12876     12874     12877
     12876     12874     12878     12877     12874     12878     12874     12878     12880
     12874     12878     12881     12874     12878     12882     12880     12878     12881
     12880     12878     12882     12881     12878     12882     12878     12882     12884
     12878     12882     12885     12878     12882     12886     12884     12882     12885
     12884     12882     12886     12885     12882     12886     12882     12886     12888
     12882     12886     12889     12882     12886     12890     12888     12886     12889
     12888     12886     12890     12889     12886     12890     12886     12890     12892
     12886     12890     12893     12886     12890     12894     12892     12890     12893
     12892     12890     12894     12893     12890     12894     12890     12894     12896
     12890     12894     12897     12890     12894     12898     12896     12894     12897
     12896     12894     12898     12897     12894     12898     12894     12898     12900
     12894     12898     12901     12894     12898     12902     12900     12898     12901
     12900     12898     12902     12901     12898     12902     12898     12902     12904
     12898     12902     12905     12898     12902     12906     12904     12902     12905
     12904     12902     12906     12905     12902     12906     12902     12906     12908
     12902     12906     12909     12902     12906     12910     12908     12906     12909
     12908     12906     12910     12909     12906     12910     12906     12910     12912
     12906     12910     12913     12906     12910     12914     12912     12910     12913
     12912     12910     12914     12913     12910     12914     12910     12914     12916
     12910     12914     12917     12910     12914     12918     12916     12914     12917
     12916     12914     12918     12917     12914     12918     12914     12918     12920
     12914     12918     12921     12914     12918     12922     12920     12918     12921
     12920     12918     12922     12921     12918     12922     12925     12923     12926
     12925     12923     12927     12925     12923     12928     12926     12923     12927
     12926     12923     12928     12927     12923     12928     12923     12928     12930
     12923     12928     12931     12923     12928     12932     12930     12928     12931
     12930     12928     12932     12931     12928     12932     12928     12932     12934
     12928     12932     12935     12928     12932     12944     12934     12932     12935
     12934     12932     12944     12935     12932     12944     12938     12936     12940
     12938     12936     12942     12938     12936     12944     12940     12936     12942
     12940     12936     12944     12942     12936     12944     12936     12942     12946
     12932     12944     12936     12942     12946     12948     12942     12946     12949
     12942     12946     12950     12948     12946     12949     12948     12946     12950
     12949     12946     12950     12946     12950     12952     12946     12950     12953
     12946     12950     12967     12952     12950     12953     12952     12950     12967
     12953     12950     12967     12950     12953     12955     12953     12955     12957
     12953     12955     12959     12957     12955     12959     12955     12959     12961
     12955     12959     12962     12955     12959     12985     12961     12959     12962
     12961     12959     12985     12962     12959     12985     12950     12967     12969
     12950     12967     12970     12950     12967     12971     12969     12967     12970
     12969     12967     12971     12970     12967     12971     12967     12971     12973
     12971     12973     12975     12971     12973     12977     12975     12973     12977
     12973     12977     12979     12973     12977     12980     12973     12977     13048
     12979     12977     12980     12979     12977     13048     12980     12977     13048
     12959     12985     12987     12959     12985     12988     12959     12985     12989
     12987     12985     12988     12987     12985     12989     12988     12985     12989
     12985     12989     12991     12985     12989     12992     12985     12989     12993
     12991     12989     12992     12991     12989     12993     12992     12989     12993
     12989     12993     12995     12989     12993     12996     12989     12993     12997
     12995     12993     12996     12995     12993     12997     12996     12993     12997
     12993     12997     12999     12993     12997     13000     12993     12997     13001
     12999     12997     13000     12999     12997     13001     13000     12997     13001
     12997     13001     13003     12997     13001     13004     12997     13001     13005
     13003     13001     13004     13003     13001     13005     13004     13001     13005
     13001     13005     13007     13001     13005     13008     13001     13005     13009
     13007     13005     13008     13007     13005     13009     13008     13005     13009
     13005     13009     13011     13005     13009     13012     13011     13009     13012
     13009     13012     13014     13009     13012     13015     13014     13012     13015
     13012     13015     13017     13012     13015     13018     13012     13015     13019
     13017     13015     13018     13017     13015     13019     13018     13015     13019
     13015     13019     13021     13015     13019     13022     13015     13019     13023
     13021     13019     13022     13021     13019     13023     13022     13019     13023
     13019     13023     13025     13019     13023     13026     13019     13023     13027
     13025     13023     13026     13025     13023     13027     13026     13023     13027
     13023     13027     13029     13023     13027     13030     13023     13027     13031
     13029     13027     13030     13029     13027     13031     13030     13027     13031
     13027     13031     13033     13027     13031     13034     13027     13031     13035
     13033     13031     13034     13033     13031     13035     13034     13031     13035
     13031     13035     13037     13031     13035     13038     13031     13035     13039
     13037     13035     13038     13037     13035     13039     13038     13035     13039
     13035     13039     13041     13035     13039     13042     13035     13039     13043
     13041     13039     13042     13041     13039     13043     13042     13039     13043
     13039     13043     13045     13039     13043     13046     13039     13043     13047
     13045     13043     13046     13045     13043     13047     13046     13043     13047
     12977     13048     13050     12977     13048     13051     12977     13048     13052
     13050     13048     13051     13050     13048     13052     13051     13048     13052
     13048     13052     13054     13048     13052     13055     13048     13052     13056
     13054     13052     13055     13054     13052     13056     13055     13052     13056
     13052     13056     13058     13052     13056     13059     13052     13056     13060
     13058     13056     13059     13058     13056     13060     13059     13056     13060
     13056     13060     13062     13056     13060     13063     13056     13060     13064
     13062     13060     13063     13062     13060     13064     13063     13060     13064
     13060     13064     13066     13060     13064     13067     13060     13064     13068
     13066     13064     13067     13066     13064     13068     13067     13064     13068
     13064     13068     13070     13064     13068     13071     13064     13068     13072
     13070     13068     13071     13070     13068     13072     13071     13068     13072
     13068     13072     13074     13068     13072     13075     13068     13072     13076
     13074     13072     13075     13074     13072     13076     13075     13072     13076
     13072     13076     13078     13072     13076     13079     13072     13076     13080
     13078     13076     13079     13078     13076     13080     13079     13076     13080
     13076     13080     13082     13076     13080     13083     13076     13080     13084
     13082     13080     13083     13082     13080     13084     13083     13080     13084
     13080     13084     13086     13080     13084     13087     13080     13084     13088
     13086     13084     13087     13086     13084     13088     13087     13084     13088
     13084     13088     13090     13084     13088     13091     13084     13088     13092
     13090     13088     13091     13090     13088     13092     13091     13088     13092
     13088     13092     13094     13088     13092     13095     13088     13092     13096
     13094     13092     13095     13094     13092     13096     13095     13092     13096
     13092     13096     13098     13092     13096     13099     13092     13096     13100
     13098     13096     13099     13098     13096     13100     13099     13096     13100
     13096     13100     13102     13096     13100     13103     13096     13100     13104
     13102     13100     13103     13102     13100     13104     13103     13100     13104
     13107     13105     13108     13107     13105     13109     13107     13105     13110
     13108     13105     13109     13108     13105     13110     13109     13105     13110
     13105     13110     13112     13105     13110     13113     13105     13110     13114
     13112     13110     13113     13112     13110     13114     13113     13110     13114
     13110     13114     13116     13110     13114     13117     13110     13114     13126
     13116     13114     13117     13116     13114     13126     13117     13114     13126
     13120     13118     13122     13120     13118     13124     13120     13118     13126
     13122     13118     13124     13122     13118     13126     13124     13118     13126
     13118     13124     13128     13114     13126     13118     13124     13128     13130
     13124     13128     13131     13124     13128     13132     13130     13128     13131
     13130     13128     13132     13131     13128     13132     13128     13132     13134
     13128     13132     13135     13128     13132     13149     13134     13132     13135
     13134     13132     13149     13135     13132     13149     13132     13135     13137
     13135     13137     13139     13135     13137     13141     13139     13137     13141
     13137     13141     13143     13137     13141     13144     13137     13141     13167
     13143     13141     13144     13143     13141     13167     13144     13141     13167
     13132     13149     13151     13132     13149     13152     13132     13149     13153
     13151     13149     13152     13151     13149     13153     13152     13149     13153
     13149     13153     13155     13153     13155     13157     13153     13155     13159
     13157     13155     13159     13155     13159     13161     13155     13159     13162
     13155     13159     13230     13161     13159     13162     13161     13159     13230
     13162     13159     13230     13141     13167     13169     13141     13167     13170
     13141     13167     13171     13169     13167     13170     13169     13167     13171
     13170     13167     13171     13167     13171     13173     13167     13171     13174
     13167     13171     13175     13173     13171     13174     13173     13171     13175
     13174     13171     13175     13171     13175     13177     13171     13175     13178
     13171     13175     13179     13177     13175     13178     13177     13175     13179
     13178     13175     13179     13175     13179     13181     13175     13179     13182
     13175     13179     13183     13181     13179     13182     13181     13179     13183
     13182     13179     13183     13179     13183     13185     13179     13183     13186
     13179     13183     13187     13185     13183     13186     13185     13183     13187
     13186     13183     13187     13183     13187     13189     13183     13187     13190
     13183     13187     13191     13189     13187     13190     13189     13187     13191
     13190     13187     13191     13187     13191     13193     13187     13191     13194
     13193     13191     13194     13191     13194     13196     13191     13194     13197
     13196     13194     13197     13194     13197     13199     13194     13197     13200
     13194     13197     13201     13199     13197     13200     13199     13197     13201
     13200     13197     13201     13197     13201     13203     13197     13201     13204
     13197     13201     13205     13203     13201     13204     13203     13201     13205
     13204     13201     13205     13201     13205     13207     13201     13205     13208
     13201     13205     13209     13207     13205     13208     13207     13205     13209
     13208     13205     13209     13205     13209     13211     13205     13209     13212
     13205     13209     13213     13211     13209     13212     13211     13209     13213
     13212     13209     13213     13209     13213     13215     13209     13213     13216
     13209     13213     13217     13215     13213     13216     13215     13213     13217
     13216     13213     13217     13213     13217     13219     13213     13217     13220
     13213     13217     13221     13219     13217     13220     13219     13217     13221
     13220     13217     13221     13217     13221     13223     13217     13221     13224
     13217     13221     13225     13223     13221     13224     13223     13221     13225
     13224     13221     13225     13221     13225     13227     13221     13225     13228
     13221     13225     13229     13227     13225     13228     13227     13225     13229
     13228     13225     13229     13159     13230     13232     13159     13230     13233
     13159     13230     13234     13232     13230     13233     13232     13230     13234
     13233     13230     13234     13230     13234     13236     13230     13234     13237
     13230     13234     13238     13236     13234     13237     13236     13234     13238
     13237     13234     13238     13234     13238     13240     13234     13238     13241
     13234     13238     13242     13240     13238     13241     13240     13238     13242
     13241     13238     13242     13238     13242     13244     13238     13242     13245
     13238     13242     13246     13244     13242     13245     13244     13242     13246
     13245     13242     13246     13242     13246     13248     13242     13246     13249
     13242     13246     13250     13248     13246     13249     13248     13246     13250
     13249     13246     13250     13246     13250     13252     13246     13250     13253
     13246     13250     13254     13252     13250     13253     13252     13250     13254
     13253     13250     13254     13250     13254     13256     13250     13254     13257
     13250     13254     13258     13256     13254     13257     13256     13254     13258
     13257     13254     13258     13254     13258     13260     13254     13258     13261
     13254     13258     13262     13260     13258     13261     13260     13258     13262
     13261     13258     13262     13258     13262     13264     13258     13262     13265
     13258     13262     13266     13264     13262     13265     13264     13262     13266
     13265     13262     13266     13262     13266     13268     13262     13266     13269
     13262     13266     13270     13268     13266     13269     13268     13266     13270
     13269     13266     13270     13266     13270     13272     13266     13270     13273
     13266     13270     13274     13272     13270     13273     13272     13270     13274
     13273     13270     13274     13270     13274     13276     13270     13274     13277
     13270     13274     13278     13276     13274     13277     13276     13274     13278
     13277     13274     13278     13274     13278     13280     13274     13278     13281
     13274     13278     13282     13280     13278     13281     13280     13278     13282
     13281     13278     13282     13278     13282     13284     13278     13282     13285
     13278     13282     13286     13284     13282     13285     13284     13282     13286
     13285     13282     13286     13289     13287     13290     13289     13287     13291
     13289     13287     13292     13290     13287     13291     13290     13287     13292
     13291     13287     13292     13287     13292     13294     13287     13292     13295
     13287     13292     13296     13294     13292     13295     13294     13292     13296
     13295     13292     13296     13292     13296     13298     13292     13296     13299
     13292     13296     13308     13298     13296     13299     13298     13296     13308
     13299     13296     13308     13302     13300     13304     13302     13300     13306
     13302     13300     13308     13304     13300     13306     13304     13300     13308
     13306     13300     13308     13300     13306     13310     13296     13308     13300
     13306     13310     13312     13306     13310     13313     13306     13310     13314
     13312     13310     13313     13312     13310     13314     13313     13310     13314
     13310     13314     13316     13310     13314     13317     13310     13314     13331
     13316     13314     13317     13316     13314     13331     13317     13314     13331
     13314     13317     13319     13317     13319     13321     13317     13319     13323
     13321     13319     13323     13319     13323     13325     13319     13323     13326
     13319     13323     13349     13325     13323     13326     13325     13323     13349
     13326     13323     13349     13314     13331     13333     13314     13331     13334
     13314     13331     13335     13333     13331     13334     13333     13331     13335
     13334     13331     13335     13331     13335     13337     13335     13337     13339
     13335     13337     13341     13339     13337     13341     13337     13341     13343
     13337     13341     13344     13337     13341     13412     13343     13341     13344
     13343     13341     13412     13344     13341     13412     13323     13349     13351
     13323     13349     13352     13323     13349     13353     13351     13349     13352
     13351     13349     13353     13352     13349     13353     13349     13353     13355
     13349     13353     13356     13349     13353     13357     13355     13353     13356
     13355     13353     13357     13356     13353     13357     13353     13357     13359
     13353     13357     13360     13353     13357     13361     13359     13357     13360
     13359     13357     13361     13360     13357     13361     13357     13361     13363
     13357     13361     13364     13357     13361     13365     13363     13361     13364
     13363     13361     13365     13364     13361     13365     13361     13365     13367
     13361     13365     13368     13361     13365     13369     13367     13365     13368
     13367     13365     13369     13368     13365     13369     13365     13369     13371
     13365     13369     13372     13365     13369     13373     13371     13369     13372
     13371     13369     13373     13372     13369     13373     13369     13373     13375
     13369     13373     13376     13375     13373     13376     13373     13376     13378
     13373     13376     13379     13378     13376     13379     13376     13379     13381
     13376     13379     13382     13376     13379     13383     13381     13379     13382
     13381     13379     13383     13382     13379     13383     13379     13383     13385
     13379     13383     13386     13379     13383     13387     13385     13383     13386
     13385     13383     13387     13386     13383     13387     13383     13387     13389
     13383     13387     13390     13383     13387     13391     13389     13387     13390
     13389     13387     13391     13390     13387     13391     13387     13391     13393
     13387     13391     13394     13387     13391     13395     13393     13391     13394
     13393     13391     13395     13394     13391     13395     13391     13395     13397
     13391     13395     13398     13391     13395     13399     13397     13395     13398
     13397     13395     13399     13398     13395     13399     13395     13399     13401
     13395     13399     13402     13395     13399     13403     13401     13399     13402
     13401     13399     13403     13402     13399     13403     13399     13403     13405
     13399     13403     13406     13399     13403     13407     13405     13403     13406
     13405     13403     13407     13406     13403     13407     13403     13407     13409
     13403     13407     13410     13403     13407     13411     13409     13407     13410
     13409     13407     13411     13410     13407     13411     13341     13412     13414
     13341     13412     13415     13341     13412     13416     13414     13412     13415
     13414     13412     13416     13415     13412     13416     13412     13416     13418
     13412     13416     13419     13412     13416     13420     13418     13416     13419
     13418     13416     13420     13419     13416     13420     13416     13420     13422
     13416     13420     13423     13416     13420     13424     13422     13420     13423
     13422     13420     13424     13423     13420     13424     13420     13424     13426
     13420     13424     13427     13420     13424     13428     13426     13424     13427
     13426     13424     13428     13427     13424     13428     13424     13428     13430
     13424     13428     13431     13424     13428     13432     13430     13428     13431
     13430     13428     13432     13431     13428     13432     13428     13432     13434
     13428     13432     13435     13428     13432     13436     13434     13432     13435
     13434     13432     13436     13435     13432     13436     13432     13436     13438
     13432     13436     13439     13432     13436     13440     13438     13436     13439
     13438     13436     13440     13439     13436     13440     13436     13440     13442
     13436     13440     13443     13436     13440     13444     13442     13440     13443
     13442     13440     13444     13443     13440     13444     13440     13444     13446
     13440     13444     13447     13440     13444     13448     13446     13444     13447
     13446     13444     13448     13447     13444     13448     13444     13448     13450
     13444     13448     13451     13444     13448     13452     13450     13448     13451
     13450     13448     13452     13451     13448     13452     13448     13452     13454
     13448     13452     13455     13448     13452     13456     13454     13452     13455
     13454     13452     13456     13455     13452     13456     13452     13456     13458
     13452     13456     13459     13452     13456     13460     13458     13456     13459
     13458     13456     13460     13459     13456     13460     13456     13460     13462
     13456     13460     13463     13456     13460     13464     13462     13460     13463
     13462     13460     13464     13463     13460     13464     13460     13464     13466
     13460     13464     13467     13460     13464     13468     13466     13464     13467
     13466     13464     13468     13467     13464     13468     13471     13469     13472
     13471     13469     13473     13471     13469     13474     13472     13469     13473
     13472     13469     13474     13473     13469     13474     13469     13474     13476
     13469     13474     13477     13469     13474     13478     13476     13474     13477
     13476     13474     13478     13477     13474     13478     13474     13478     13480
     13474     13478     13481     13474     13478     13490     13480     13478     13481
     13480     13478     13490     13481     13478     13490     13484     13482     13486
     13484     13482     13488     13484     13482     13490     13486     13482     13488
     13486     13482     13490     13488     13482     13490     13482     13488     13492
     13478     13490     13482     13488     13492     13494     13488     13492     13495
     13488     13492     13496     13494     13492     13495     13494     13492     13496
     13495     13492     13496     13492     13496     13498     13492     13496     13499
     13492     13496     13513     13498     13496     13499     13498     13496     13513
     13499     13496     13513     13496     13499     13501     13499     13501     13503
     13499     13501     13505     13503     13501     13505     13501     13505     13507
     13501     13505     13508     13501     13505     13531     13507     13505     13508
     13507     13505     13531     13508     13505     13531     13496     13513     13515
     13496     13513     13516     13496     13513     13517     13515     13513     13516
     13515     13513     13517     13516     13513     13517     13513     13517     13519
     13517     13519     13521     13517     13519     13523     13521     13519     13523
     13519     13523     13525     13519     13523     13526     13519     13523     13594
     13525     13523     13526     13525     13523     13594     13526     13523     13594
     13505     13531     13533     13505     13531     13534     13505     13531     13535
     13533     13531     13534     13533     13531     13535     13534     13531     13535
     13531     13535     13537     13531     13535     13538     13531     13535     13539
     13537     13535     13538     13537     13535     13539     13538     13535     13539
     13535     13539     13541     13535     13539     13542     13535     13539     13543
     13541     13539     13542     13541     13539     13543     13542     13539     13543
     13539     13543     13545     13539     13543     13546     13539     13543     13547
     13545     13543     13546     13545     13543     13547     13546     13543     13547
     13543     13547     13549     13543     13547     13550     13543     13547     13551
     13549     13547     13550     13549     13547     13551     13550     13547     13551
     13547     13551     13553     13547     13551     13554     13547     13551     13555
     13553     13551     13554     13553     13551     13555     13554     13551     13555
     13551     13555     13557     13551     13555     13558     13557     13555     13558
     13555     13558     13560     13555     13558     13561     13560     13558     13561
     13558     13561     13563     13558     13561     13564     13558     13561     13565
     13563     13561     13564     13563     13561     13565     13564     13561     13565
     13561     13565     13567     13561     13565     13568     13561     13565     13569
     13567     13565     13568     13567     13565     13569     13568     13565     13569
     13565     13569     13571     13565     13569     13572     13565     13569     13573
     13571     13569     13572     13571     13569     13573     13572     13569     13573
     13569     13573     13575     13569     13573     13576     13569     13573     13577
     13575     13573     13576     13575     13573     13577     13576     13573     13577
     13573     13577     13579     13573     13577     13580     13573     13577     13581
     13579     13577     13580     13579     13577     13581     13580     13577     13581
     13577     13581     13583     13577     13581     13584     13577     13581     13585
     13583     13581     13584     13583     13581     13585     13584     13581     13585
     13581     13585     13587     13581     13585     13588     13581     13585     13589
     13587     13585     13588     13587     13585     13589     13588     13585     13589
     13585     13589     13591     13585     13589     13592     13585     13589     13593
     13591     13589     13592     13591     13589     13593     13592     13589     13593
     13523     13594     13596     13523     13594     13597     13523     13594     13598
     13596     13594     13597     13596     13594     13598     13597     13594     13598
     13594     13598     13600     13594     13598     13601     13594     13598     13602
     13600     13598     13601     13600     13598     13602     13601     13598     13602
     13598     13602     13604     13598     13602     13605     13598     13602     13606
     13604     13602     13605     13604     13602     13606     13605     13602     13606
     13602     13606     13608     13602     13606     13609     13602     13606     13610
     13608     13606     13609     13608     13606     13610     13609     13606     13610
     13606     13610     13612     13606     13610     13613     13606     13610     13614
     13612     13610     13613     13612     13610     13614     13613     13610     13614
     13610     13614     13616     13610     13614     13617     13610     13614     13618
     13616     13614     13617     13616     13614     13618     13617     13614     13618
     13614     13618     13620     13614     13618     13621     13614     13618     13622
     13620     13618     13621     13620     13618     13622     13621     13618     13622
     13618     13622     13624     13618     13622     13625     13618     13622     13626
     13624     13622     13625     13624     13622     13626     13625     13622     13626
     13622     13626     13628     13622     13626     13629     13622     13626     13630
     13628     13626     13629     13628     13626     13630     13629     13626     13630
     13626     13630     13632     13626     13630     13633     13626     13630     13634
     13632     13630     13633     13632     13630     13634     13633     13630     13634
     13630     13634     13636     13630     13634     13637     13630     13634     13638
     13636     13634     13637     13636     13634     13638     13637     13634     13638
     13634     13638     13640     13634     13638     13641     13634     13638     13642
     13640     13638     13641     13640     13638     13642     13641     13638     13642
     13638     13642     13644     13638     13642     13645     13638     13642     13646
     13644     13642     13645     13644     13642     13646     13645     13642     13646
     13642     13646     13648     13642     13646     13649     13642     13646     13650
     13648     13646     13649     13648     13646     13650     13649     13646     13650
     13653     13651     13654     13653     13651     13655     13653     13651     13656
     13654     13651     13655     13654     13651     13656     13655     13651     13656
     13651     13656     13658     13651     13656     13659     13651     13656     13660
     13658     13656     13659     13658     13656     13660     13659     13656     13660
     13656     13660     13662     13656     13660     13663     13656     13660     13672
     13662     13660     13663     13662     13660     13672     13663     13660     13672
     13666     13664     13668     13666     13664     13670     13666     13664     13672
     13668     13664     13670     13668     13664     13672     13670     13664     13672
     13664     13670     13674     13660     13672     13664     13670     13674     13676
     13670     13674     13677     13670     13674     13678     13676     13674     13677
     13676     13674     13678     13677     13674     13678     13674     13678     13680
     13674     13678     13681     13674     13678     13695     13680     13678     13681
     13680     13678     13695     13681     13678     13695     13678     13681     13683
     13681     13683     13685     13681     13683     13687     13685     13683     13687
     13683     13687     13689     13683     13687     13690     13683     13687     13713
     13689     13687     13690     13689     13687     13713     13690     13687     13713
     13678     13695     13697     13678     13695     13698     13678     13695     13699
     13697     13695     13698     13697     13695     13699     13698     13695     13699
     13695     13699     13701     13699     13701     13703     13699     13701     13705
     13703     13701     13705     13701     13705     13707     13701     13705     13708
     13701     13705     13776     13707     13705     13708     13707     13705     13776
     13708     13705     13776     13687     13713     13715     13687     13713     13716
     13687     13713     13717     13715     13713     13716     13715     13713     13717
     13716     13713     13717     13713     13717     13719     13713     13717     13720
     13713     13717     13721     13719     13717     13720     13719     13717     13721
     13720     13717     13721     13717     13721     13723     13717     13721     13724
     13717     13721     13725     13723     13721     13724     13723     13721     13725
     13724     13721     13725     13721     13725     13727     13721     13725     13728
     13721     13725     13729     13727     13725     13728     13727     13725     13729
     13728     13725     13729     13725     13729     13731     13725     13729     13732
     13725     13729     13733     13731     13729     13732     13731     13729     13733
     13732     13729     13733     13729     13733     13735     13729     13733     13736
     13729     13733     13737     13735     13733     13736     13735     13733     13737
     13736     13733     13737     13733     13737     13739     13733     13737     13740
     13739     13737     13740     13737     13740     13742     13737     13740     13743
     13742     13740     13743     13740     13743     13745     13740     13743     13746
     13740     13743     13747     13745     13743     13746     13745     13743     13747
     13746     13743     13747     13743     13747     13749     13743     13747     13750
     13743     13747     13751     13749     13747     13750     13749     13747     13751
     13750     13747     13751     13747     13751     13753     13747     13751     13754
     13747     13751     13755     13753     13751     13754     13753     13751     13755
     13754     13751     13755     13751     13755     13757     13751     13755     13758
     13751     13755     13759     13757     13755     13758     13757     13755     13759
     13758     13755     13759     13755     13759     13761     13755     13759     13762
     13755     13759     13763     13761     13759     13762     13761     13759     13763
     13762     13759     13763     13759     13763     13765     13759     13763     13766
     13759     13763     13767     13765     13763     13766     13765     13763     13767
     13766     13763     13767     13763     13767     13769     13763     13767     13770
     13763     13767     13771     13769     13767     13770     13769     13767     13771
     13770     13767     13771     13767     13771     13773     13767     13771     13774
     13767     13771     13775     13773     13771     13774     13773     13771     13775
     13774     13771     13775     13705     13776     13778     13705     13776     13779
     13705     13776     13780     13778     13776     13779     13778     13776     13780
     13779     13776     13780     13776     13780     13782     13776     13780     13783
     13776     13780     13784     13782     13780     13783     13782     13780     13784
     13783     13780     13784     13780     13784     13786     13780     13784     13787
     13780     13784     13788     13786     13784     13787     13786     13784     13788
     13787     13784     13788     13784     13788     13790     13784     13788     13791
     13784     13788     13792     13790     13788     13791     13790     13788     13792
     13791     13788     13792     13788     13792     13794     13788     13792     13795
     13788     13792     13796     13794     13792     13795     13794     13792     13796
     13795     13792     13796     13792     13796     13798     13792     13796     13799
     13792     13796     13800     13798     13796     13799     13798     13796     13800
     13799     13796     13800     13796     13800     13802     13796     13800     13803
     13796     13800     13804     13802     13800     13803     13802     13800     13804
     13803     13800     13804     13800     13804     13806     13800     13804     13807
     13800     13804     13808     13806     13804     13807     13806     13804     13808
     13807     13804     13808     13804     13808     13810     13804     13808     13811
     13804     13808     13812     13810     13808     13811     13810     13808     13812
     13811     13808     13812     13808     13812     13814     13808     13812     13815
     13808     13812     13816     13814     13812     13815     13814     13812     13816
     13815     13812     13816     13812     13816     13818     13812     13816     13819
     13812     13816     13820     13818     13816     13819     13818     13816     13820
     13819     13816     13820     13816     13820     13822     13816     13820     13823
     13816     13820     13824     13822     13820     13823     13822     13820     13824
     13823     13820     13824     13820     13824     13826     13820     13824     13827
     13820     13824     13828     13826     13824     13827     13826     13824     13828
     13827     13824     13828     13824     13828     13830     13824     13828     13831
     13824     13828     13832     13830     13828     13831     13830     13828     13832
     13831     13828     13832     13835     13833     13836     13835     13833     13837
     13835     13833     13838     13836     13833     13837     13836     13833     13838
     13837     13833     13838     13833     13838     13840     13833     13838     13841
     13833     13838     13842     13840     13838     13841     13840     13838     13842
     13841     13838     13842     13838     13842     13844     13838     13842     13845
     13838     13842     13854     13844     13842     13845     13844     13842     13854
     13845     13842     13854     13848     13846     13850     13848     13846     13852
     13848     13846     13854     13850     13846     13852     13850     13846     13854
     13852     13846     13854     13846     13852     13856     13842     13854     13846
     13852     13856     13858     13852     13856     13859     13852     13856     13860
     13858     13856     13859     13858     13856     13860     13859     13856     13860
     13856     13860     13862     13856     13860     13863     13856     13860     13877
     13862     13860     13863     13862     13860     13877     13863     13860     13877
     13860     13863     13865     13863     13865     13867     13863     13865     13869
     13867     13865     13869     13865     13869     13871     13865     13869     13872
     13865     13869     13895     13871     13869     13872     13871     13869     13895
     13872     13869     13895     13860     13877     13879     13860     13877     13880
     13860     13877     13881     13879     13877     13880     13879     13877     13881
     13880     13877     13881     13877     13881     13883     13881     13883     13885
     13881     13883     13887     13885     13883     13887     13883     13887     13889
     13883     13887     13890     13883     13887     13958     13889     13887     13890
     13889     13887     13958     13890     13887     13958     13869     13895     13897
     13869     13895     13898     13869     13895     13899     13897     13895     13898
     13897     13895     13899     13898     13895     13899     13895     13899     13901
     13895     13899     13902     13895     13899     13903     13901     13899     13902
     13901     13899     13903     13902     13899     13903     13899     13903     13905
     13899     13903     13906     13899     13903     13907     13905     13903     13906
     13905     13903     13907     13906     13903     13907     13903     13907     13909
     13903     13907     13910     13903     13907     13911     13909     13907     13910
     13909     13907     13911     13910     13907     13911     13907     13911     13913
     13907     13911     13914     13907     13911     13915     13913     13911     13914
     13913     13911     13915     13914     13911     13915     13911     13915     13917
     13911     13915     13918     13911     13915     13919     13917     13915     13918
     13917     13915     13919     13918     13915     13919     13915     13919     13921
     13915     13919     13922     13921     13919     13922     13919     13922     13924
     13919     13922     13925     13924     13922     13925     13922     13925     13927
     13922     13925     13928     13922     13925     13929     13927     13925     13928
     13927     13925     13929     13928     13925     13929     13925     13929     13931
     13925     13929     13932     13925     13929     13933     13931     13929     13932
     13931     13929     13933     13932     13929     13933     13929     13933     13935
     13929     13933     13936     13929     13933     13937     13935     13933     13936
     13935     13933     13937     13936     13933     13937     13933     13937     13939
     13933     13937     13940     13933     13937     13941     13939     13937     13940
     13939     13937     13941     13940     13937     13941     13937     13941     13943
     13937     13941     13944     13937     13941     13945     13943     13941     13944
     13943     13941     13945     13944     13941     13945     13941     13945     13947
     13941     13945     13948     13941     13945     13949     13947     13945     13948
     13947     13945     13949     13948     13945     13949     13945     13949     13951
     13945     13949     13952     13945     13949     13953     13951     13949     13952
     13951     13949     13953     13952     13949     13953     13949     13953     13955
     13949     13953     13956     13949     13953     13957     13955     13953     13956
     13955     13953     13957     13956     13953     13957     13887     13958     13960
     13887     13958     13961     13887     13958     13962     13960     13958     13961
     13960     13958     13962     13961     13958     13962     13958     13962     13964
     13958     13962     13965     13958     13962     13966     13964     13962     13965
     13964     13962     13966     13965     13962     13966     13962     13966     13968
     13962     13966     13969     13962     13966     13970     13968     13966     13969
     13968     13966     13970     13969     13966     13970     13966     13970     13972
     13966     13970     13973     13966     13970     13974     13972     13970     13973
     13972     13970     13974     13973     13970     13974     13970     13974     13976
     13970     13974     13977     13970     13974     13978     13976     13974     13977
     13976     13974     13978     13977     13974     13978     13974     13978     13980
     13974     13978     13981     13974     13978     13982     13980     13978     13981
     13980     13978     13982     13981     13978     13982     13978     13982     13984
     13978     13982     13985     13978     13982     13986     13984     13982     13985
     13984     13982     13986     13985     13982     13986     13982     13986     13988
     13982     13986     13989     13982     13986     13990     13988     13986     13989
     13988     13986     13990     13989     13986     13990     13986     13990     13992
     13986     13990     13993     13986     13990     13994     13992     13990     13993
     13992     13990     13994     13993     13990     13994     13990     13994     13996
     13990     13994     13997     13990     13994     13998     13996     13994     13997
     13996     13994     13998     13997     13994     13998     13994     13998     14000
     13994     13998     14001     13994     13998     14002     14000     13998     14001
     14000     13998     14002     14001     13998     14002     13998     14002     14004
     13998     14002     14005     13998     14002     14006     14004     14002     14005
     14004     14002     14006     14005     14002     14006     14002     14006     14008
     14002     14006     14009     14002     14006     14010     14008     14006     14009
     14008     14006     14010     14009     14006     14010     14006     14010     14012
     14006     14010     14013     14006     14010     14014     14012     14010     14013
     14012     14010     14014     14013     14010     14014     14017     14015     14018
     14017     14015     14019     14017     14015     14020     14018     14015     14019
     14018     14015     14020     14019     14015     14020     14015     14020     14022
     14015     14020     14023     14015     14020     14024     14022     14020     14023
     14022     14020     14024     14023     14020     14024     14020     14024     14026
     14020     14024     14027     14020     14024     14036     14026     14024     14027
     14026     14024     14036     14027     14024     14036     14030     14028     14032
     14030     14028     14034     14030     14028     14036     14032     14028     14034
     14032     14028     14036     14034     14028     14036     14028     14034     14038
     14024     14036     14028     14034     14038     14040     14034     14038     14041
     14034     14038     14042     14040     14038     14041     14040     14038     14042
     14041     14038     14042     14038     14042     14044     14038     14042     14045
     14038     14042     14059     14044     14042     14045     14044     14042     14059
     14045     14042     14059     14042     14045     14047     14045     14047     14049
     14045     14047     14051     14049     14047     14051     14047     14051     14053
     14047     14051     14054     14047     14051     14077     14053     14051     14054
     14053     14051     14077     14054     14051     14077     14042     14059     14061
     14042     14059     14062     14042     14059     14063     14061     14059     14062
     14061     14059     14063     14062     14059     14063     14059     14063     14065
     14063     14065     14067     14063     14065     14069     14067     14065     14069
     14065     14069     14071     14065     14069     14072     14065     14069     14140
     14071     14069     14072     14071     14069     14140     14072     14069     14140
     14051     14077     14079     14051     14077     14080     14051     14077     14081
     14079     14077     14080     14079     14077     14081     14080     14077     14081
     14077     14081     14083     14077     14081     14084     14077     14081     14085
     14083     14081     14084     14083     14081     14085     14084     14081     14085
     14081     14085     14087     14081     14085     14088     14081     14085     14089
     14087     14085     14088     14087     14085     14089     14088     14085     14089
     14085     14089     14091     14085     14089     14092     14085     14089     14093
     14091     14089     14092     14091     14089     14093     14092     14089     14093
     14089     14093     14095     14089     14093     14096     14089     14093     14097
     14095     14093     14096     14095     14093     14097     14096     14093     14097
     14093     14097     14099     14093     14097     14100     14093     14097     14101
     14099     14097     14100     14099     14097     14101     14100     14097     14101
     14097     14101     14103     14097     14101     14104     14103     14101     14104
     14101     14104     14106     14101     14104     14107     14106     14104     14107
     14104     14107     14109     14104     14107     14110     14104     14107     14111
     14109     14107     14110     14109     14107     14111     14110     14107     14111
     14107     14111     14113     14107     14111     14114     14107     14111     14115
     14113     14111     14114     14113     14111     14115     14114     14111     14115
     14111     14115     14117     14111     14115     14118     14111     14115     14119
     14117     14115     14118     14117     14115     14119     14118     14115     14119
     14115     14119     14121     14115     14119     14122     14115     14119     14123
     14121     14119     14122     14121     14119     14123     14122     14119     14123
     14119     14123     14125     14119     14123     14126     14119     14123     14127
     14125     14123     14126     14125     14123     14127     14126     14123     14127
     14123     14127     14129     14123     14127     14130     14123     14127     14131
     14129     14127     14130     14129     14127     14131     14130     14127     14131
     14127     14131     14133     14127     14131     14134     14127     14131     14135
     14133     14131     14134     14133     14131     14135     14134     14131     14135
     14131     14135     14137     14131     14135     14138     14131     14135     14139
     14137     14135     14138     14137     14135     14139     14138     14135     14139
     14069     14140     14142     14069     14140     14143     14069     14140     14144
     14142     14140     14143     14142     14140     14144     14143     14140     14144
     14140     14144     14146     14140     14144     14147     14140     14144     14148
     14146     14144     14147     14146     14144     14148     14147     14144     14148
     14144     14148     14150     14144     14148     14151     14144     14148     14152
     14150     14148     14151     14150     14148     14152     14151     14148     14152
     14148     14152     14154     14148     14152     14155     14148     14152     14156
     14154     14152     14155     14154     14152     14156     14155     14152     14156
     14152     14156     14158     14152     14156     14159     14152     14156     14160
     14158     14156     14159     14158     14156     14160     14159     14156     14160
     14156     14160     14162     14156     14160     14163     14156     14160     14164
     14162     14160     14163     14162     14160     14164     14163     14160     14164
     14160     14164     14166     14160     14164     14167     14160     14164     14168
     14166     14164     14167     14166     14164     14168     14167     14164     14168
     14164     14168     14170     14164     14168     14171     14164     14168     14172
     14170     14168     14171     14170     14168     14172     14171     14168     14172
     14168     14172     14174     14168     14172     14175     14168     14172     14176
     14174     14172     14175     14174     14172     14176     14175     14172     14176
     14172     14176     14178     14172     14176     14179     14172     14176     14180
     14178     14176     14179     14178     14176     14180     14179     14176     14180
     14176     14180     14182     14176     14180     14183     14176     14180     14184
     14182     14180     14183     14182     14180     14184     14183     14180     14184
     14180     14184     14186     14180     14184     14187     14180     14184     14188
     14186     14184     14187     14186     14184     14188     14187     14184     14188
     14184     14188     14190     14184     14188     14191     14184     14188     14192
     14190     14188     14191     14190     14188     14192     14191     14188     14192
     14188     14192     14194     14188     14192     14195     14188     14192     14196
     14194     14192     14195     14194     14192     14196     14195     14192     14196
     14199     14197     14200     14199     14197     14201     14199     14197     14202
     14200     14197     14201     14200     14197     14202     14201     14197     14202
     14197     14202     14204     14197     14202     14205     14197     14202     14206
     14204     14202     14205     14204     14202     14206     14205     14202     14206
     14202     14206     14208     14202     14206     14209     14202     14206     14218
     14208     14206     14209     14208     14206     14218     14209     14206     14218
     14212     14210     14214     14212     14210     14216     14212     14210     14218
     14214     14210     14216     14214     14210     14218     14216     14210     14218
     14210     14216     14220     14206     14218     14210     14216     14220     14222
     14216     14220     14223     14216     14220     14224     14222     14220     14223
     14222     14220     14224     14223     14220     14224     14220     14224     14226
     14220     14224     14227     14220     14224     14241     14226     14224     14227
     14226     14224     14241     14227     14224     14241     14224     14227     14229
     14227     14229     14231     14227     14229     14233     14231     14229     14233
     14229     14233     14235     14229     14233     14236     14229     14233     14259
     14235     14233     14236     14235     14233     14259     14236     14233     14259
     14224     14241     14243     14224     14241     14244     14224     14241     14245
     14243     14241     14244     14243     14241     14245     14244     14241     14245
     14241     14245     14247     14245     14247     14249     14245     14247     14251
     14249     14247     14251     14247     14251     14253     14247     14251     14254
     14247     14251     14322     14253     14251     14254     14253     14251     14322
     14254     14251     14322     14233     14259     14261     14233     14259     14262
     14233     14259     14263     14261     14259     14262     14261     14259     14263
     14262     14259     14263     14259     14263     14265     14259     14263     14266
     14259     14263     14267     14265     14263     14266     14265     14263     14267
     14266     14263     14267     14263     14267     14269     14263     14267     14270
     14263     14267     14271     14269     14267     14270     14269     14267     14271
     14270     14267     14271     14267     14271     14273     14267     14271     14274
     14267     14271     14275     14273     14271     14274     14273     14271     14275
     14274     14271     14275     14271     14275     14277     14271     14275     14278
     14271     14275     14279     14277     14275     14278     14277     14275     14279
     14278     14275     14279     14275     14279     14281     14275     14279     14282
     14275     14279     14283     14281     14279     14282     14281     14279     14283
     14282     14279     14283     14279     14283     14285     14279     14283     14286
     14285     14283     14286     14283     14286     14288     14283     14286     14289
     14288     14286     14289     14286     14289     14291     14286     14289     14292
     14286     14289     14293     14291     14289     14292     14291     14289     14293
     14292     14289     14293     14289     14293     14295     14289     14293     14296
     14289     14293     14297     14295     14293     14296     14295     14293     14297
     14296     14293     14297     14293     14297     14299     14293     14297     14300
     14293     14297     14301     14299     14297     14300     14299     14297     14301
     14300     14297     14301     14297     14301     14303     14297     14301     14304
     14297     14301     14305     14303     14301     14304     14303     14301     14305
     14304     14301     14305     14301     14305     14307     14301     14305     14308
     14301     14305     14309     14307     14305     14308     14307     14305     14309
     14308     14305     14309     14305     14309     14311     14305     14309     14312
     14305     14309     14313     14311     14309     14312     14311     14309     14313
     14312     14309     14313     14309     14313     14315     14309     14313     14316
     14309     14313     14317     14315     14313     14316     14315     14313     14317
     14316     14313     14317     14313     14317     14319     14313     14317     14320
     14313     14317     14321     14319     14317     14320     14319     14317     14321
     14320     14317     14321     14251     14322     14324     14251     14322     14325
     14251     14322     14326     14324     14322     14325     14324     14322     14326
     14325     14322     14326     14322     14326     14328     14322     14326     14329
     14322     14326     14330     14328     14326     14329     14328     14326     14330
     14329     14326     14330     14326     14330     14332     14326     14330     14333
     14326     14330     14334     14332     14330     14333     14332     14330     14334
     14333     14330     14334     14330     14334     14336     14330     14334     14337
     14330     14334     14338     14336     14334     14337     14336     14334     14338
     14337     14334     14338     14334     14338     14340     14334     14338     14341
     14334     14338     14342     14340     14338     14341     14340     14338     14342
     14341     14338     14342     14338     14342     14344     14338     14342     14345
     14338     14342     14346     14344     14342     14345     14344     14342     14346
     14345     14342     14346     14342     14346     14348     14342     14346     14349
     14342     14346     14350     14348     14346     14349     14348     14346     14350
     14349     14346     14350     14346     14350     14352     14346     14350     14353
     14346     14350     14354     14352     14350     14353     14352     14350     14354
     14353     14350     14354     14350     14354     14356     14350     14354     14357
     14350     14354     14358     14356     14354     14357     14356     14354     14358
     14357     14354     14358     14354     14358     14360     14354     14358     14361
     14354     14358     14362     14360     14358     14361     14360     14358     14362
     14361     14358     14362     14358     14362     14364     14358     14362     14365
     14358     14362     14366     14364     14362     14365     14364     14362     14366
     14365     14362     14366     14362     14366     14368     14362     14366     14369
     14362     14366     14370     14368     14366     14369     14368     14366     14370
     14369     14366     14370     14366     14370     14372     14366     14370     14373
     14366     14370     14374     14372     14370     14373     14372     14370     14374
     14373     14370     14374     14370     14374     14376     14370     14374     14377
     14370     14374     14378     14376     14374     14377     14376     14374     14378
     14377     14374     14378     14381     14379     14382     14381     14379     14383
     14381     14379     14384     14382     14379     14383     14382     14379     14384
     14383     14379     14384     14379     14384     14386     14379     14384     14387
     14379     14384     14388     14386     14384     14387     14386     14384     14388
     14387     14384     14388     14384     14388     14390     14384     14388     14391
     14384     14388     14400     14390     14388     14391     14390     14388     14400
     14391     14388     14400     14394     14392     14396     14394     14392     14398
     14394     14392     14400     14396     14392     14398     14396     14392     14400
     14398     14392     14400     14392     14398     14402     14388     14400     14392
     14398     14402     14404     14398     14402     14405     14398     14402     14406
     14404     14402     14405     14404     14402     14406     14405     14402     14406
     14402     14406     14408     14402     14406     14409     14402     14406     14423
     14408     14406     14409     14408     14406     14423     14409     14406     14423
     14406     14409     14411     14409     14411     14413     14409     14411     14415
     14413     14411     14415     14411     14415     14417     14411     14415     14418
     14411     14415     14441     14417     14415     14418     14417     14415     14441
     14418     14415     14441     14406     14423     14425     14406     14423     14426
     14406     14423     14427     14425     14423     14426     14425     14423     14427
     14426     14423     14427     14423     14427     14429     14427     14429     14431
     14427     14429     14433     14431     14429     14433     14429     14433     14435
     14429     14433     14436     14429     14433     14504     14435     14433     14436
     14435     14433     14504     14436     14433     14504     14415     14441     14443
     14415     14441     14444     14415     14441     14445     14443     14441     14444
     14443     14441     14445     14444     14441     14445     14441     14445     14447
     14441     14445     14448     14441     14445     14449     14447     14445     14448
     14447     14445     14449     14448     14445     14449     14445     14449     14451
     14445     14449     14452     14445     14449     14453     14451     14449     14452
     14451     14449     14453     14452     14449     14453     14449     14453     14455
     14449     14453     14456     14449     14453     14457     14455     14453     14456
     14455     14453     14457     14456     14453     14457     14453     14457     14459
     14453     14457     14460     14453     14457     14461     14459     14457     14460
     14459     14457     14461     14460     14457     14461     14457     14461     14463
     14457     14461     14464     14457     14461     14465     14463     14461     14464
     14463     14461     14465     14464     14461     14465     14461     14465     14467
     14461     14465     14468     14467     14465     14468     14465     14468     14470
     14465     14468     14471     14470     14468     14471     14468     14471     14473
     14468     14471     14474     14468     14471     14475     14473     14471     14474
     14473     14471     14475     14474     14471     14475     14471     14475     14477
     14471     14475     14478     14471     14475     14479     14477     14475     14478
     14477     14475     14479     14478     14475     14479     14475     14479     14481
     14475     14479     14482     14475     14479     14483     14481     14479     14482
     14481     14479     14483     14482     14479     14483     14479     14483     14485
     14479     14483     14486     14479     14483     14487     14485     14483     14486
     14485     14483     14487     14486     14483     14487     14483     14487     14489
     14483     14487     14490     14483     14487     14491     14489     14487     14490
     14489     14487     14491     14490     14487     14491     14487     14491     14493
     14487     14491     14494     14487     14491     14495     14493     14491     14494
     14493     14491     14495     14494     14491     14495     14491     14495     14497
     14491     14495     14498     14491     14495     14499     14497     14495     14498
     14497     14495     14499     14498     14495     14499     14495     14499     14501
     14495     14499     14502     14495     14499     14503     14501     14499     14502
     14501     14499     14503     14502     14499     14503     14433     14504     14506
     14433     14504     14507     14433     14504     14508     14506     14504     14507
     14506     14504     14508     14507     14504     14508     14504     14508     14510
     14504     14508     14511     14504     14508     14512     14510     14508     14511
     14510     14508     14512     14511     14508     14512     14508     14512     14514
     14508     14512     14515     14508     14512     14516     14514     14512     14515
     14514     14512     14516     14515     14512     14516     14512     14516     14518
     14512     14516     14519     14512     14516     14520     14518     14516     14519
     14518     14516     14520     14519     14516     14520     14516     14520     14522
     14516     14520     14523     14516     14520     14524     14522     14520     14523
     14522     14520     14524     14523     14520     14524     14520     14524     14526
     14520     14524     14527     14520     14524     14528     14526     14524     14527
     14526     14524     14528     14527     14524     14528     14524     14528     14530
     14524     14528     14531     14524     14528     14532     14530     14528     14531
     14530     14528     14532     14531     14528     14532     14528     14532     14534
     14528     14532     14535     14528     14532     14536     14534     14532     14535
     14534     14532     14536     14535     14532     14536     14532     14536     14538
     14532     14536     14539     14532     14536     14540     14538     14536     14539
     14538     14536     14540     14539     14536     14540     14536     14540     14542
     14536     14540     14543     14536     14540     14544     14542     14540     14543
     14542     14540     14544     14543     14540     14544     14540     14544     14546
     14540     14544     14547     14540     14544     14548     14546     14544     14547
     14546     14544     14548     14547     14544     14548     14544     14548     14550
     14544     14548     14551     14544     14548     14552     14550     14548     14551
     14550     14548     14552     14551     14548     14552     14548     14552     14554
     14548     14552     14555     14548     14552     14556     14554     14552     14555
     14554     14552     14556     14555     14552     14556     14552     14556     14558
     14552     14556     14559     14552     14556     14560     14558     14556     14559
     14558     14556     14560     14559     14556     14560     14563     14561     14564
     14563     14561     14565     14563     14561     14566     14564     14561     14565
     14564     14561     14566     14565     14561     14566     14561     14566     14568
     14561     14566     14569     14561     14566     14570     14568     14566     14569
     14568     14566     14570     14569     14566     14570     14566     14570     14572
     14566     14570     14573     14566     14570     14582     14572     14570     14573
     14572     14570     14582     14573     14570     14582     14576     14574     14578
     14576     14574     14580     14576     14574     14582     14578     14574     14580
     14578     14574     14582     14580     14574     14582     14574     14580     14584
     14570     14582     14574     14580     14584     14586     14580     14584     14587
     14580     14584     14588     14586     14584     14587     14586     14584     14588
     14587     14584     14588     14584     14588     14590     14584     14588     14591
     14584     14588     14605     14590     14588     14591     14590     14588     14605
     14591     14588     14605     14588     14591     14593     14591     14593     14595
     14591     14593     14597     14595     14593     14597     14593     14597     14599
     14593     14597     14600     14593     14597     14623     14599     14597     14600
     14599     14597     14623     14600     14597     14623     14588     14605     14607
     14588     14605     14608     14588     14605     14609     14607     14605     14608
     14607     14605     14609     14608     14605     14609     14605     14609     14611
     14609     14611     14613     14609     14611     14615     14613     14611     14615
     14611     14615     14617     14611     14615     14618     14611     14615     14686
     14617     14615     14618     14617     14615     14686     14618     14615     14686
     14597     14623     14625     14597     14623     14626     14597     14623     14627
     14625     14623     14626     14625     14623     14627     14626     14623     14627
     14623     14627     14629     14623     14627     14630     14623     14627     14631
     14629     14627     14630     14629     14627     14631     14630     14627     14631
     14627     14631     14633     14627     14631     14634     14627     14631     14635
     14633     14631     14634     14633     14631     14635     14634     14631     14635
     14631     14635     14637     14631     14635     14638     14631     14635     14639
     14637     14635     14638     14637     14635     14639     14638     14635     14639
     14635     14639     14641     14635     14639     14642     14635     14639     14643
     14641     14639     14642     14641     14639     14643     14642     14639     14643
     14639     14643     14645     14639     14643     14646     14639     14643     14647
     14645     14643     14646     14645     14643     14647     14646     14643     14647
     14643     14647     14649     14643     14647     14650     14649     14647     14650
     14647     14650     14652     14647     14650     14653     14652     14650     14653
     14650     14653     14655     14650     14653     14656     14650     14653     14657
     14655     14653     14656     14655     14653     14657     14656     14653     14657
     14653     14657     14659     14653     14657     14660     14653     14657     14661
     14659     14657     14660     14659     14657     14661     14660     14657     14661
     14657     14661     14663     14657     14661     14664     14657     14661     14665
     14663     14661     14664     14663     14661     14665     14664     14661     14665
     14661     14665     14667     14661     14665     14668     14661     14665     14669
     14667     14665     14668     14667     14665     14669     14668     14665     14669
     14665     14669     14671     14665     14669     14672     14665     14669     14673
     14671     14669     14672     14671     14669     14673     14672     14669     14673
     14669     14673     14675     14669     14673     14676     14669     14673     14677
     14675     14673     14676     14675     14673     14677     14676     14673     14677
     14673     14677     14679     14673     14677     14680     14673     14677     14681
     14679     14677     14680     14679     14677     14681     14680     14677     14681
     14677     14681     14683     14677     14681     14684     14677     14681     14685
     14683     14681     14684     14683     14681     14685     14684     14681     14685
     14615     14686     14688     14615     14686     14689     14615     14686     14690
     14688     14686     14689     14688     14686     14690     14689     14686     14690
     14686     14690     14692     14686     14690     14693     14686     14690     14694
     14692     14690     14693     14692     14690     14694     14693     14690     14694
     14690     14694     14696     14690     14694     14697     14690     14694     14698
     14696     14694     14697     14696     14694     14698     14697     14694     14698
     14694     14698     14700     14694     14698     14701     14694     14698     14702
     14700     14698     14701     14700     14698     14702     14701     14698     14702
     14698     14702     14704     14698     14702     14705     14698     14702     14706
     14704     14702     14705     14704     14702     14706     14705     14702     14706
     14702     14706     14708     14702     14706     14709     14702     14706     14710
     14708     14706     14709     14708     14706     14710     14709     14706     14710
     14706     14710     14712     14706     14710     14713     14706     14710     14714
     14712     14710     14713     14712     14710     14714     14713     14710     14714
     14710     14714     14716     14710     14714     14717     14710     14714     14718
     14716     14714     14717     14716     14714     14718     14717     14714     14718
     14714     14718     14720     14714     14718     14721     14714     14718     14722
     14720     14718     14721     14720     14718     14722     14721     14718     14722
     14718     14722     14724     14718     14722     14725     14718     14722     14726
     14724     14722     14725     14724     14722     14726     14725     14722     14726
     14722     14726     14728     14722     14726     14729     14722     14726     14730
     14728     14726     14729     14728     14726     14730     14729     14726     14730
     14726     14730     14732     14726     14730     14733     14726     14730     14734
     14732     14730     14733     14732     14730     14734     14733     14730     14734
     14730     14734     14736     14730     14734     14737     14730     14734     14738
     14736     14734     14737     14736     14734     14738     14737     14734     14738
     14734     14738     14740     14734     14738     14741     14734     14738     14742
     14740     14738     14741     14740     14738     14742     14741     14738     14742
     14745     14743     14746     14745     14743     14747     14745     14743     14748
     14746     14743     14747     14746     14743     14748     14747     14743     14748
     14743     14748     14750     14743     14748     14751     14743     14748     14752
     14750     14748     14751     14750     14748     14752     14751     14748     14752
     14748     14752     14754     14748     14752     14755     14748     14752     14764
     14754     14752     14755     14754     14752     14764     14755     14752     14764
     14758     14756     14760     14758     14756     14762     14758     14756     14764
     14760     14756     14762     14760     14756     14764     14762     14756     14764
     14756     14762     14766     14752     14764     14756     14762     14766     14768
     14762     14766     14769     14762     14766     14770     14768     14766     14769
     14768     14766     14770     14769     14766     14770     14766     14770     14772
     14766     14770     14773     14766     14770     14787     14772     14770     14773
     14772     14770     14787     14773     14770     14787     14770     14773     14775
     14773     14775     14777     14773     14775     14779     14777     14775     14779
     14775     14779     14781     14775     14779     14782     14775     14779     14805
     14781     14779     14782     14781     14779     14805     14782     14779     14805
     14770     14787     14789     14770     14787     14790     14770     14787     14791
     14789     14787     14790     14789     14787     14791     14790     14787     14791
     14787     14791     14793     14791     14793     14795     14791     14793     14797
     14795     14793     14797     14793     14797     14799     14793     14797     14800
     14793     14797     14868     14799     14797     14800     14799     14797     14868
     14800     14797     14868     14779     14805     14807     14779     14805     14808
     14779     14805     14809     14807     14805     14808     14807     14805     14809
     14808     14805     14809     14805     14809     14811     14805     14809     14812
     14805     14809     14813     14811     14809     14812     14811     14809     14813
     14812     14809     14813     14809     14813     14815     14809     14813     14816
     14809     14813     14817     14815     14813     14816     14815     14813     14817
     14816     14813     14817     14813     14817     14819     14813     14817     14820
     14813     14817     14821     14819     14817     14820     14819     14817     14821
     14820     14817     14821     14817     14821     14823     14817     14821     14824
     14817     14821     14825     14823     14821     14824     14823     14821     14825
     14824     14821     14825     14821     14825     14827     14821     14825     14828
     14821     14825     14829     14827     14825     14828     14827     14825     14829
     14828     14825     14829     14825     14829     14831     14825     14829     14832
     14831     14829     14832     14829     14832     14834     14829     14832     14835
     14834     14832     14835     14832     14835     14837     14832     14835     14838
     14832     14835     14839     14837     14835     14838     14837     14835     14839
     14838     14835     14839     14835     14839     14841     14835     14839     14842
     14835     14839     14843     14841     14839     14842     14841     14839     14843
     14842     14839     14843     14839     14843     14845     14839     14843     14846
     14839     14843     14847     14845     14843     14846     14845     14843     14847
     14846     14843     14847     14843     14847     14849     14843     14847     14850
     14843     14847     14851     14849     14847     14850     14849     14847     14851
     14850     14847     14851     14847     14851     14853     14847     14851     14854
     14847     14851     14855     14853     14851     14854     14853     14851     14855
     14854     14851     14855     14851     14855     14857     14851     14855     14858
     14851     14855     14859     14857     14855     14858     14857     14855     14859
     14858     14855     14859     14855     14859     14861     14855     14859     14862
     14855     14859     14863     14861     14859     14862     14861     14859     14863
     14862     14859     14863     14859     14863     14865     14859     14863     14866
     14859     14863     14867     14865     14863     14866     14865     14863     14867
     14866     14863     14867     14797     14868     14870     14797     14868     14871
     14797     14868     14872     14870     14868     14871     14870     14868     14872
     14871     14868     14872     14868     14872     14874     14868     14872     14875
     14868     14872     14876     14874     14872     14875     14874     14872     14876
     14875     14872     14876     14872     14876     14878     14872     14876     14879
     14872     14876     14880     14878     14876     14879     14878     14876     14880
     14879     14876     14880     14876     14880     14882     14876     14880     14883
     14876     14880     14884     14882     14880     14883     14882     14880     14884
     14883     14880     14884     14880     14884     14886     14880     14884     14887
     14880     14884     14888     14886     14884     14887     14886     14884     14888
     14887     14884     14888     14884     14888     14890     14884     14888     14891
     14884     14888     14892     14890     14888     14891     14890     14888     14892
     14891     14888     14892     14888     14892     14894     14888     14892     14895
     14888     14892     14896     14894     14892     14895     14894     14892     14896
     14895     14892     14896     14892     14896     14898     14892     14896     14899
     14892     14896     14900     14898     14896     14899     14898     14896     14900
     14899     14896     14900     14896     14900     14902     14896     14900     14903
     14896     14900     14904     14902     14900     14903     14902     14900     14904
     14903     14900     14904     14900     14904     14906     14900     14904     14907
     14900     14904     14908     14906     14904     14907     14906     14904     14908
     14907     14904     14908     14904     14908     14910     14904     14908     14911
     14904     14908     14912     14910     14908     14911     14910     14908     14912
     14911     14908     14912     14908     14912     14914     14908     14912     14915
     14908     14912     14916     14914     14912     14915     14914     14912     14916
     14915     14912     14916     14912     14916     14918     14912     14916     14919
     14912     14916     14920     14918     14916     14919     14918     14916     14920
     14919     14916     14920     14916     14920     14922     14916     14920     14923
     14916     14920     14924     14922     14920     14923     14922     14920     14924
     14923     14920     14924     14927     14925     14928     14927     14925     14929
     14927     14925     14930     14928     14925     14929     14928     14925     14930
     14929     14925     14930     14925     14930     14932     14925     14930     14933
     14925     14930     14934     14932     14930     14933     14932     14930     14934
     14933     14930     14934     14930     14934     14936     14930     14934     14937
     14930     14934     14946     14936     14934     14937     14936     14934     14946
     14937     14934     14946     14940     14938     14942     14940     14938     14944
     14940     14938     14946     14942     14938     14944     14942     14938     14946
     14944     14938     14946     14938     14944     14948     14934     14946     14938
     14944     14948     14950     14944     14948     14951     14944     14948     14952
     14950     14948     14951     14950     14948     14952     14951     14948     14952
     14948     14952     14954     14948     14952     14955     14948     14952     14969
     14954     14952     14955     14954     14952     14969     14955     14952     14969
     14952     14955     14957     14955     14957     14959     14955     14957     14961
     14959     14957     14961     14957     14961     14963     14957     14961     14964
     14957     14961     14987     14963     14961     14964     14963     14961     14987
     14964     14961     14987     14952     14969     14971     14952     14969     14972
     14952     14969     14973     14971     14969     14972     14971     14969     14973
     14972     14969     14973     14969     14973     14975     14973     14975     14977
     14973     14975     14979     14977     14975     14979     14975     14979     14981
     14975     14979     14982     14975     14979     15050     14981     14979     14982
     14981     14979     15050     14982     14979     15050     14961     14987     14989
     14961     14987     14990     14961     14987     14991     14989     14987     14990
     14989     14987     14991     14990     14987     14991     14987     14991     14993
     14987     14991     14994     14987     14991     14995     14993     14991     14994
     14993     14991     14995     14994     14991     14995     14991     14995     14997
     14991     14995     14998     14991     14995     14999     14997     14995     14998
     14997     14995     14999     14998     14995     14999     14995     14999     15001
     14995     14999     15002     14995     14999     15003     15001     14999     15002
     15001     14999     15003     15002     14999     15003     14999     15003     15005
     14999     15003     15006     14999     15003     15007     15005     15003     15006
     15005     15003     15007     15006     15003     15007     15003     15007     15009
     15003     15007     15010     15003     15007     15011     15009     15007     15010
     15009     15007     15011     15010     15007     15011     15007     15011     15013
     15007     15011     15014     15013     15011     15014     15011     15014     15016
     15011     15014     15017     15016     15014     15017     15014     15017     15019
     15014     15017     15020     15014     15017     15021     15019     15017     15020
     15019     15017     15021     15020     15017     15021     15017     15021     15023
     15017     15021     15024     15017     15021     15025     15023     15021     15024
     15023     15021     15025     15024     15021     15025     15021     15025     15027
     15021     15025     15028     15021     15025     15029     15027     15025     15028
     15027     15025     15029     15028     15025     15029     15025     15029     15031
     15025     15029     15032     15025     15029     15033     15031     15029     15032
     15031     15029     15033     15032     15029     15033     15029     15033     15035
     15029     15033     15036     15029     15033     15037     15035     15033     15036
     15035     15033     15037     15036     15033     15037     15033     15037     15039
     15033     15037     15040     15033     15037     15041     15039     15037     15040
     15039     15037     15041     15040     15037     15041     15037     15041     15043
     15037     15041     15044     15037     15041     15045     15043     15041     15044
     15043     15041     15045     15044     15041     15045     15041     15045     15047
     15041     15045     15048     15041     15045     15049     15047     15045     15048
     15047     15045     15049     15048     15045     15049     14979     15050     15052
     14979     15050     15053     14979     15050     15054     15052     15050     15053
     15052     15050     15054     15053     15050     15054     15050     15054     15056
     15050     15054     15057     15050     15054     15058     15056     15054     15057
     15056     15054     15058     15057     15054     15058     15054     15058     15060
     15054     15058     15061     15054     15058     15062     15060     15058     15061
     15060     15058     15062     15061     15058     15062     15058     15062     15064
     15058     15062     15065     15058     15062     15066     15064     15062     15065
     15064     15062     15066     15065     15062     15066     15062     15066     15068
     15062     15066     15069     15062     15066     15070     15068     15066     15069
     15068     15066     15070     15069     15066     15070     15066     15070     15072
     15066     15070     15073     15066     15070     15074     15072     15070     15073
     15072     15070     15074     15073     15070     15074     15070     15074     15076
     15070     15074     15077     15070     15074     15078     15076     15074     15077
     15076     15074     15078     15077     15074     15078     15074     15078     15080
     15074     15078     15081     15074     15078     15082     15080     15078     15081
     15080     15078     15082     15081     15078     15082     15078     15082     15084
     15078     15082     15085     15078     15082     15086     15084     15082     15085
     15084     15082     15086     15085     15082     15086     15082     15086     15088
     15082     15086     15089     15082     15086     15090     15088     15086     15089
     15088     15086     15090     15089     15086     15090     15086     15090     15092
     15086     15090     15093     15086     15090     15094     15092     15090     15093
     15092     15090     15094     15093     15090     15094     15090     15094     15096
     15090     15094     15097     15090     15094     15098     15096     15094     15097
     15096     15094     15098     15097     15094     15098     15094     15098     15100
     15094     15098     15101     15094     15098     15102     15100     15098     15101
     15100     15098     15102     15101     15098     15102     15098     15102     15104
     15098     15102     15105     15098     15102     15106     15104     15102     15105
     15104     15102     15106     15105     15102     15106     15109     15107     15110
     15109     15107     15111     15109     15107     15112     15110     15107     15111
     15110     15107     15112     15111     15107     15112     15107     15112     15114
     15107     15112     15115     15107     15112     15116     15114     15112     15115
     15114     15112     15116     15115     15112     15116     15112     15116     15118
     15112     15116     15119     15112     15116     15128     15118     15116     15119
     15118     15116     15128     15119     15116     15128     15122     15120     15124
     15122     15120     15126     15122     15120     15128     15124     15120     15126
     15124     15120     15128     15126     15120     15128     15120     15126     15130
     15116     15128     15120     15126     15130     15132     15126     15130     15133
     15126     15130     15134     15132     15130     15133     15132     15130     15134
     15133     15130     15134     15130     15134     15136     15130     15134     15137
     15130     15134     15151     15136     15134     15137     15136     15134     15151
     15137     15134     15151     15134     15137     15139     15137     15139     15141
     15137     15139     15143     15141     15139     15143     15139     15143     15145
     15139     15143     15146     15139     15143     15169     15145     15143     15146
     15145     15143     15169     15146     15143     15169     15134     15151     15153
     15134     15151     15154     15134     15151     15155     15153     15151     15154
     15153     15151     15155     15154     15151     15155     15151     15155     15157
     15155     15157     15159     15155     15157     15161     15159     15157     15161
     15157     15161     15163     15157     15161     15164     15157     15161     15232
     15163     15161     15164     15163     15161     15232     15164     15161     15232
     15143     15169     15171     15143     15169     15172     15143     15169     15173
     15171     15169     15172     15171     15169     15173     15172     15169     15173
     15169     15173     15175     15169     15173     15176     15169     15173     15177
     15175     15173     15176     15175     15173     15177     15176     15173     15177
     15173     15177     15179     15173     15177     15180     15173     15177     15181
     15179     15177     15180     15179     15177     15181     15180     15177     15181
     15177     15181     15183     15177     15181     15184     15177     15181     15185
     15183     15181     15184     15183     15181     15185     15184     15181     15185
     15181     15185     15187     15181     15185     15188     15181     15185     15189
     15187     15185     15188     15187     15185     15189     15188     15185     15189
     15185     15189     15191     15185     15189     15192     15185     15189     15193
     15191     15189     15192     15191     15189     15193     15192     15189     15193
     15189     15193     15195     15189     15193     15196     15195     15193     15196
     15193     15196     15198     15193     15196     15199     15198     15196     15199
     15196     15199     15201     15196     15199     15202     15196     15199     15203
     15201     15199     15202     15201     15199     15203     15202     15199     15203
     15199     15203     15205     15199     15203     15206     15199     15203     15207
     15205     15203     15206     15205     15203     15207     15206     15203     15207
     15203     15207     15209     15203     15207     15210     15203     15207     15211
     15209     15207     15210     15209     15207     15211     15210     15207     15211
     15207     15211     15213     15207     15211     15214     15207     15211     15215
     15213     15211     15214     15213     15211     15215     15214     15211     15215
     15211     15215     15217     15211     15215     15218     15211     15215     15219
     15217     15215     15218     15217     15215     15219     15218     15215     15219
     15215     15219     15221     15215     15219     15222     15215     15219     15223
     15221     15219     15222     15221     15219     15223     15222     15219     15223
     15219     15223     15225     15219     15223     15226     15219     15223     15227
     15225     15223     15226     15225     15223     15227     15226     15223     15227
     15223     15227     15229     15223     15227     15230     15223     15227     15231
     15229     15227     15230     15229     15227     15231     15230     15227     15231
     15161     15232     15234     15161     15232     15235     15161     15232     15236
     15234     15232     15235     15234     15232     15236     15235     15232     15236
     15232     15236     15238     15232     15236     15239     15232     15236     15240
     15238     15236     15239     15238     15236     15240     15239     15236     15240
     15236     15240     15242     15236     15240     15243     15236     15240     15244
     15242     15240     15243     15242     15240     15244     15243     15240     15244
     15240     15244     15246     15240     15244     15247     15240     15244     15248
     15246     15244     15247     15246     15244     15248     15247     15244     15248
     15244     15248     15250     15244     15248     15251     15244     15248     15252
     15250     15248     15251     15250     15248     15252     15251     15248     15252
     15248     15252     15254     15248     15252     15255     15248     15252     15256
     15254     15252     15255     15254     15252     15256     15255     15252     15256
     15252     15256     15258     15252     15256     15259     15252     15256     15260
     15258     15256     15259     15258     15256     15260     15259     15256     15260
     15256     15260     15262     15256     15260     15263     15256     15260     15264
     15262     15260     15263     15262     15260     15264     15263     15260     15264
     15260     15264     15266     15260     15264     15267     15260     15264     15268
     15266     15264     15267     15266     15264     15268     15267     15264     15268
     15264     15268     15270     15264     15268     15271     15264     15268     15272
     15270     15268     15271     15270     15268     15272     15271     15268     15272
     15268     15272     15274     15268     15272     15275     15268     15272     15276
     15274     15272     15275     15274     15272     15276     15275     15272     15276
     15272     15276     15278     15272     15276     15279     15272     15276     15280
     15278     15276     15279     15278     15276     15280     15279     15276     15280
     15276     15280     15282     15276     15280     15283     15276     15280     15284
     15282     15280     15283     15282     15280     15284     15283     15280     15284
     15280     15284     15286     15280     15284     15287     15280     15284     15288
     15286     15284     15287     15286     15284     15288     15287     15284     15288
     15291     15289     15292     15291     15289     15293     15291     15289     15294
     15292     15289     15293     15292     15289     15294     15293     15289     15294
     15289     15294     15296     15289     15294     15297     15289     15294     15298
     15296     15294     15297     15296     15294     15298     15297     15294     15298
     15294     15298     15300     15294     15298     15301     15294     15298     15310
     15300     15298     15301     15300     15298     15310     15301     15298     15310
     15304     15302     15306     15304     15302     15308     15304     15302     15310
     15306     15302     15308     15306     15302     15310     15308     15302     15310
     15302     15308     15312     15298     15310     15302     15308     15312     15314
     15308     15312     15315     15308     15312     15316     15314     15312     15315
     15314     15312     15316     15315     15312     15316     15312     15316     15318
     15312     15316     15319     15312     15316     15333     15318     15316     15319
     15318     15316     15333     15319     15316     15333     15316     15319     15321
     15319     15321     15323     15319     15321     15325     15323     15321     15325
     15321     15325     15327     15321     15325     15328     15321     15325     15351
     15327     15325     15328     15327     15325     15351     15328     15325     15351
     15316     15333     15335     15316     15333     15336     15316     15333     15337
     15335     15333     15336     15335     15333     15337     15336     15333     15337
     15333     15337     15339     15337     15339     15341     15337     15339     15343
     15341     15339     15343     15339     15343     15345     15339     15343     15346
     15339     15343     15414     15345     15343     15346     15345     15343     15414
     15346     15343     15414     15325     15351     15353     15325     15351     15354
     15325     15351     15355     15353     15351     15354     15353     15351     15355
     15354     15351     15355     15351     15355     15357     15351     15355     15358
     15351     15355     15359     15357     15355     15358     15357     15355     15359
     15358     15355     15359     15355     15359     15361     15355     15359     15362
     15355     15359     15363     15361     15359     15362     15361     15359     15363
     15362     15359     15363     15359     15363     15365     15359     15363     15366
     15359     15363     15367     15365     15363     15366     15365     15363     15367
     15366     15363     15367     15363     15367     15369     15363     15367     15370
     15363     15367     15371     15369     15367     15370     15369     15367     15371
     15370     15367     15371     15367     15371     15373     15367     15371     15374
     15367     15371     15375     15373     15371     15374     15373     15371     15375
     15374     15371     15375     15371     15375     15377     15371     15375     15378
     15377     15375     15378     15375     15378     15380     15375     15378     15381
     15380     15378     15381     15378     15381     15383     15378     15381     15384
     15378     15381     15385     15383     15381     15384     15383     15381     15385
     15384     15381     15385     15381     15385     15387     15381     15385     15388
     15381     15385     15389     15387     15385     15388     15387     15385     15389
     15388     15385     15389     15385     15389     15391     15385     15389     15392
     15385     15389     15393     15391     15389     15392     15391     15389     15393
     15392     15389     15393     15389     15393     15395     15389     15393     15396
     15389     15393     15397     15395     15393     15396     15395     15393     15397
     15396     15393     15397     15393     15397     15399     15393     15397     15400
     15393     15397     15401     15399     15397     15400     15399     15397     15401
     15400     15397     15401     15397     15401     15403     15397     15401     15404
     15397     15401     15405     15403     15401     15404     15403     15401     15405
     15404     15401     15405     15401     15405     15407     15401     15405     15408
     15401     15405     15409     15407     15405     15408     15407     15405     15409
     15408     15405     15409     15405     15409     15411     15405     15409     15412
     15405     15409     15413     15411     15409     15412     15411     15409     15413
     15412     15409     15413     15343     15414     15416     15343     15414     15417
     15343     15414     15418     15416     15414     15417     15416     15414     15418
     15417     15414     15418     15414     15418     15420     15414     15418     15421
     15414     15418     15422     15420     15418     15421     15420     15418     15422
     15421     15418     15422     15418     15422     15424     15418     15422     15425
     15418     15422     15426     15424     15422     15425     15424     15422     15426
     15425     15422     15426     15422     15426     15428     15422     15426     15429
     15422     15426     15430     15428     15426     15429     15428     15426     15430
     15429     15426     15430     15426     15430     15432     15426     15430     15433
     15426     15430     15434     15432     15430     15433     15432     15430     15434
     15433     15430     15434     15430     15434     15436     15430     15434     15437
     15430     15434     15438     15436     15434     15437     15436     15434     15438
     15437     15434     15438     15434     15438     15440     15434     15438     15441
     15434     15438     15442     15440     15438     15441     15440     15438     15442
     15441     15438     15442     15438     15442     15444     15438     15442     15445
     15438     15442     15446     15444     15442     15445     15444     15442     15446
     15445     15442     15446     15442     15446     15448     15442     15446     15449
     15442     15446     15450     15448     15446     15449     15448     15446     15450
     15449     15446     15450     15446     15450     15452     15446     15450     15453
     15446     15450     15454     15452     15450     15453     15452     15450     15454
     15453     15450     15454     15450     15454     15456     15450     15454     15457
     15450     15454     15458     15456     15454     15457     15456     15454     15458
     15457     15454     15458     15454     15458     15460     15454     15458     15461
     15454     15458     15462     15460     15458     15461     15460     15458     15462
     15461     15458     15462     15458     15462     15464     15458     15462     15465
     15458     15462     15466     15464     15462     15465     15464     15462     15466
     15465     15462     15466     15462     15466     15468     15462     15466     15469
     15462     15466     15470     15468     15466     15469     15468     15466     15470
     15469     15466     15470     15473     15471     15474     15473     15471     15475
     15473     15471     15476     15474     15471     15475     15474     15471     15476
     15475     15471     15476     15471     15476     15478     15471     15476     15479
     15471     15476     15480     15478     15476     15479     15478     15476     15480
     15479     15476     15480     15476     15480     15482     15476     15480     15483
     15476     15480     15492     15482     15480     15483     15482     15480     15492
     15483     15480     15492     15486     15484     15488     15486     15484     15490
     15486     15484     15492     15488     15484     15490     15488     15484     15492
     15490     15484     15492     15484     15490     15494     15480     15492     15484
     15490     15494     15496     15490     15494     15497     15490     15494     15498
     15496     15494     15497     15496     15494     15498     15497     15494     15498
     15494     15498     15500     15494     15498     15501     15494     15498     15515
     15500     15498     15501     15500     15498     15515     15501     15498     15515
     15498     15501     15503     15501     15503     15505     15501     15503     15507
     15505     15503     15507     15503     15507     15509     15503     15507     15510
     15503     15507     15533     15509     15507     15510     15509     15507     15533
     15510     15507     15533     15498     15515     15517     15498     15515     15518
     15498     15515     15519     15517     15515     15518     15517     15515     15519
     15518     15515     15519     15515     15519     15521     15519     15521     15523
     15519     15521     15525     15523     15521     15525     15521     15525     15527
     15521     15525     15528     15521     15525     15596     15527     15525     15528
     15527     15525     15596     15528     15525     15596     15507     15533     15535
     15507     15533     15536     15507     15533     15537     15535     15533     15536
     15535     15533     15537     15536     15533     15537     15533     15537     15539
     15533     15537     15540     15533     15537     15541     15539     15537     15540
     15539     15537     15541     15540     15537     15541     15537     15541     15543
     15537     15541     15544     15537     15541     15545     15543     15541     15544
     15543     15541     15545     15544     15541     15545     15541     15545     15547
     15541     15545     15548     15541     15545     15549     15547     15545     15548
     15547     15545     15549     15548     15545     15549     15545     15549     15551
     15545     15549     15552     15545     15549     15553     15551     15549     15552
     15551     15549     15553     15552     15549     15553     15549     15553     15555
     15549     15553     15556     15549     15553     15557     15555     15553     15556
     15555     15553     15557     15556     15553     15557     15553     15557     15559
     15553     15557     15560     15559     15557     15560     15557     15560     15562
     15557     15560     15563     15562     15560     15563     15560     15563     15565
     15560     15563     15566     15560     15563     15567     15565     15563     15566
     15565     15563     15567     15566     15563     15567     15563     15567     15569
     15563     15567     15570     15563     15567     15571     15569     15567     15570
     15569     15567     15571     15570     15567     15571     15567     15571     15573
     15567     15571     15574     15567     15571     15575     15573     15571     15574
     15573     15571     15575     15574     15571     15575     15571     15575     15577
     15571     15575     15578     15571     15575     15579     15577     15575     15578
     15577     15575     15579     15578     15575     15579     15575     15579     15581
     15575     15579     15582     15575     15579     15583     15581     15579     15582
     15581     15579     15583     15582     15579     15583     15579     15583     15585
     15579     15583     15586     15579     15583     15587     15585     15583     15586
     15585     15583     15587     15586     15583     15587     15583     15587     15589
     15583     15587     15590     15583     15587     15591     15589     15587     15590
     15589     15587     15591     15590     15587     15591     15587     15591     15593
     15587     15591     15594     15587     15591     15595     15593     15591     15594
     15593     15591     15595     15594     15591     15595     15525     15596     15598
     15525     15596     15599     15525     15596     15600     15598     15596     15599
     15598     15596     15600     15599     15596     15600     15596     15600     15602
     15596     15600     15603     15596     15600     15604     15602     15600     15603
     15602     15600     15604     15603     15600     15604     15600     15604     15606
     15600     15604     15607     15600     15604     15608     15606     15604     15607
     15606     15604     15608     15607     15604     15608     15604     15608     15610
     15604     15608     15611     15604     15608     15612     15610     15608     15611
     15610     15608     15612     15611     15608     15612     15608     15612     15614
     15608     15612     15615     15608     15612     15616     15614     15612     15615
     15614     15612     15616     15615     15612     15616     15612     15616     15618
     15612     15616     15619     15612     15616     15620     15618     15616     15619
     15618     15616     15620     15619     15616     15620     15616     15620     15622
     15616     15620     15623     15616     15620     15624     15622     15620     15623
     15622     15620     15624     15623     15620     15624     15620     15624     15626
     15620     15624     15627     15620     15624     15628     15626     15624     15627
     15626     15624     15628     15627     15624     15628     15624     15628     15630
     15624     15628     15631     15624     15628     15632     15630     15628     15631
     15630     15628     15632     15631     15628     15632     15628     15632     15634
     15628     15632     15635     15628     15632     15636     15634     15632     15635
     15634     15632     15636     15635     15632     15636     15632     15636     15638
     15632     15636     15639     15632     15636     15640     15638     15636     15639
     15638     15636     15640     15639     15636     15640     15636     15640     15642
     15636     15640     15643     15636     15640     15644     15642     15640     15643
     15642     15640     15644     15643     15640     15644     15640     15644     15646
     15640     15644     15647     15640     15644     15648     15646     15644     15647
     15646     15644     15648     15647     15644     15648     15644     15648     15650
     15644     15648     15651     15644     15648     15652     15650     15648     15651
     15650     15648     15652     15651     15648     15652     15655     15653     15656
     15655     15653     15657     15655     15653     15658     15656     15653     15657
     15656     15653     15658     15657     15653     15658     15653     15658     15660
     15653     15658     15661     15653     15658     15662     15660     15658     15661
     15660     15658     15662     15661     15658     15662     15658     15662     15664
     15658     15662     15665     15658     15662     15674     15664     15662     15665
     15664     15662     15674     15665     15662     15674     15668     15666     15670
     15668     15666     15672     15668     15666     15674     15670     15666     15672
     15670     15666     15674     15672     15666     15674     15666     15672     15676
     15662     15674     15666     15672     15676     15678     15672     15676     15679
     15672     15676     15680     15678     15676     15679     15678     15676     15680
     15679     15676     15680     15676     15680     15682     15676     15680     15683
     15676     15680     15697     15682     15680     15683     15682     15680     15697
     15683     15680     15697     15680     15683     15685     15683     15685     15687
     15683     15685     15689     15687     15685     15689     15685     15689     15691
     15685     15689     15692     15685     15689     15715     15691     15689     15692
     15691     15689     15715     15692     15689     15715     15680     15697     15699
     15680     15697     15700     15680     15697     15701     15699     15697     15700
     15699     15697     15701     15700     15697     15701     15697     15701     15703
     15701     15703     15705     15701     15703     15707     15705     15703     15707
     15703     15707     15709     15703     15707     15710     15703     15707     15778
     15709     15707     15710     15709     15707     15778     15710     15707     15778
     15689     15715     15717     15689     15715     15718     15689     15715     15719
     15717     15715     15718     15717     15715     15719     15718     15715     15719
     15715     15719     15721     15715     15719     15722     15715     15719     15723
     15721     15719     15722     15721     15719     15723     15722     15719     15723
     15719     15723     15725     15719     15723     15726     15719     15723     15727
     15725     15723     15726     15725     15723     15727     15726     15723     15727
     15723     15727     15729     15723     15727     15730     15723     15727     15731
     15729     15727     15730     15729     15727     15731     15730     15727     15731
     15727     15731     15733     15727     15731     15734     15727     15731     15735
     15733     15731     15734     15733     15731     15735     15734     15731     15735
     15731     15735     15737     15731     15735     15738     15731     15735     15739
     15737     15735     15738     15737     15735     15739     15738     15735     15739
     15735     15739     15741     15735     15739     15742     15741     15739     15742
     15739     15742     15744     15739     15742     15745     15744     15742     15745
     15742     15745     15747     15742     15745     15748     15742     15745     15749
     15747     15745     15748     15747     15745     15749     15748     15745     15749
     15745     15749     15751     15745     15749     15752     15745     15749     15753
     15751     15749     15752     15751     15749     15753     15752     15749     15753
     15749     15753     15755     15749     15753     15756     15749     15753     15757
     15755     15753     15756     15755     15753     15757     15756     15753     15757
     15753     15757     15759     15753     15757     15760     15753     15757     15761
     15759     15757     15760     15759     15757     15761     15760     15757     15761
     15757     15761     15763     15757     15761     15764     15757     15761     15765
     15763     15761     15764     15763     15761     15765     15764     15761     15765
     15761     15765     15767     15761     15765     15768     15761     15765     15769
     15767     15765     15768     15767     15765     15769     15768     15765     15769
     15765     15769     15771     15765     15769     15772     15765     15769     15773
     15771     15769     15772     15771     15769     15773     15772     15769     15773
     15769     15773     15775     15769     15773     15776     15769     15773     15777
     15775     15773     15776     15775     15773     15777     15776     15773     15777
     15707     15778     15780     15707     15778     15781     15707     15778     15782
     15780     15778     15781     15780     15778     15782     15781     15778     15782
     15778     15782     15784     15778     15782     15785     15778     15782     15786
     15784     15782     15785     15784     15782     15786     15785     15782     15786
     15782     15786     15788     15782     15786     15789     15782     15786     15790
     15788     15786     15789     15788     15786     15790     15789     15786     15790
     15786     15790     15792     15786     15790     15793     15786     15790     15794
     15792     15790     15793     15792     15790     15794     15793     15790     15794
     15790     15794     15796     15790     15794     15797     15790     15794     15798
     15796     15794     15797     15796     15794     15798     15797     15794     15798
     15794     15798     15800     15794     15798     15801     15794     15798     15802
     15800     15798     15801     15800     15798     15802     15801     15798     15802
     15798     15802     15804     15798     15802     15805     15798     15802     15806
     15804     15802     15805     15804     15802     15806     15805     15802     15806
     15802     15806     15808     15802     15806     15809     15802     15806     15810
     15808     15806     15809     15808     15806     15810     15809     15806     15810
     15806     15810     15812     15806     15810     15813     15806     15810     15814
     15812     15810     15813     15812     15810     15814     15813     15810     15814
     15810     15814     15816     15810     15814     15817     15810     15814     15818
     15816     15814     15817     15816     15814     15818     15817     15814     15818
     15814     15818     15820     15814     15818     15821     15814     15818     15822
     15820     15818     15821     15820     15818     15822     15821     15818     15822
     15818     15822     15824     15818     15822     15825     15818     15822     15826
     15824     15822     15825     15824     15822     15826     15825     15822     15826
     15822     15826     15828     15822     15826     15829     15822     15826     15830
     15828     15826     15829     15828     15826     15830     15829     15826     15830
     15826     15830     15832     15826     15830     15833     15826     15830     15834
     15832     15830     15833     15832     15830     15834     15833     15830     15834
     15837     15835     15838     15837     15835     15839     15837     15835     15840
     15838     15835     15839     15838     15835     15840     15839     15835     15840
     15835     15840     15842     15835     15840     15843     15835     15840     15844
     15842     15840     15843     15842     15840     15844     15843     15840     15844
     15840     15844     15846     15840     15844     15847     15840     15844     15856
     15846     15844     15847     15846     15844     15856     15847     15844     15856
     15850     15848     15852     15850     15848     15854     15850     15848     15856
     15852     15848     15854     15852     15848     15856     15854     15848     15856
     15848     15854     15858     15844     15856     15848     15854     15858     15860
     15854     15858     15861     15854     15858     15862     15860     15858     15861
     15860     15858     15862     15861     15858     15862     15858     15862     15864
     15858     15862     15865     15858     15862     15879     15864     15862     15865
     15864     15862     15879     15865     15862     15879     15862     15865     15867
     15865     15867     15869     15865     15867     15871     15869     15867     15871
     15867     15871     15873     15867     15871     15874     15867     15871     15897
     15873     15871     15874     15873     15871     15897     15874     15871     15897
     15862     15879     15881     15862     15879     15882     15862     15879     15883
     15881     15879     15882     15881     15879     15883     15882     15879     15883
     15879     15883     15885     15883     15885     15887     15883     15885     15889
     15887     15885     15889     15885     15889     15891     15885     15889     15892
     15885     15889     15960     15891     15889     15892     15891     15889     15960
     15892     15889     15960     15871     15897     15899     15871     15897     15900
     15871     15897     15901     15899     15897     15900     15899     15897     15901
     15900     15897     15901     15897     15901     15903     15897     15901     15904
     15897     15901     15905     15903     15901     15904     15903     15901     15905
     15904     15901     15905     15901     15905     15907     15901     15905     15908
     15901     15905     15909     15907     15905     15908     15907     15905     15909
     15908     15905     15909     15905     15909     15911     15905     15909     15912
     15905     15909     15913     15911     15909     15912     15911     15909     15913
     15912     15909     15913     15909     15913     15915     15909     15913     15916
     15909     15913     15917     15915     15913     15916     15915     15913     15917
     15916     15913     15917     15913     15917     15919     15913     15917     15920
     15913     15917     15921     15919     15917     15920     15919     15917     15921
     15920     15917     15921     15917     15921     15923     15917     15921     15924
     15923     15921     15924     15921     15924     15926     15921     15924     15927
     15926     15924     15927     15924     15927     15929     15924     15927     15930
     15924     15927     15931     15929     15927     15930     15929     15927     15931
     15930     15927     15931     15927     15931     15933     15927     15931     15934
     15927     15931     15935     15933     15931     15934     15933     15931     15935
     15934     15931     15935     15931     15935     15937     15931     15935     15938
     15931     15935     15939     15937     15935     15938     15937     15935     15939
     15938     15935     15939     15935     15939     15941     15935     15939     15942
     15935     15939     15943     15941     15939     15942     15941     15939     15943
     15942     15939     15943     15939     15943     15945     15939     15943     15946
     15939     15943     15947     15945     15943     15946     15945     15943     15947
     15946     15943     15947     15943     15947     15949     15943     15947     15950
     15943     15947     15951     15949     15947     15950     15949     15947     15951
     15950     15947     15951     15947     15951     15953     15947     15951     15954
     15947     15951     15955     15953     15951     15954     15953     15951     15955
     15954     15951     15955     15951     15955     15957     15951     15955     15958
     15951     15955     15959     15957     15955     15958     15957     15955     15959
     15958     15955     15959     15889     15960     15962     15889     15960     15963
     15889     15960     15964     15962     15960     15963     15962     15960     15964
     15963     15960     15964     15960     15964     15966     15960     15964     15967
     15960     15964     15968     15966     15964     15967     15966     15964     15968
     15967     15964     15968     15964     15968     15970     15964     15968     15971
     15964     15968     15972     15970     15968     15971     15970     15968     15972
     15971     15968     15972     15968     15972     15974     15968     15972     15975
     15968     15972     15976     15974     15972     15975     15974     15972     15976
     15975     15972     15976     15972     15976     15978     15972     15976     15979
     15972     15976     15980     15978     15976     15979     15978     15976     15980
     15979     15976     15980     15976     15980     15982     15976     15980     15983
     15976     15980     15984     15982     15980     15983     15982     15980     15984
     15983     15980     15984     15980     15984     15986     15980     15984     15987
     15980     15984     15988     15986     15984     15987     15986     15984     15988
     15987     15984     15988     15984     15988     15990     15984     15988     15991
     15984     15988     15992     15990     15988     15991     15990     15988     15992
     15991     15988     15992     15988     15992     15994     15988     15992     15995
     15988     15992     15996     15994     15992     15995     15994     15992     15996
     15995     15992     15996     15992     15996     15998     15992     15996     15999
     15992     15996     16000     15998     15996     15999     15998     15996     16000
     15999     15996     16000     15996     16000     16002     15996     16000     16003
     15996     16000     16004     16002     16000     16003     16002     16000     16004
     16003     16000     16004     16000     16004     16006     16000     16004     16007
     16000     16004     16008     16006     16004     16007     16006     16004     16008
     16007     16004     16008     16004     16008     16010     16004     16008     16011
     16004     16008     16012     16010     16008     16011     16010     16008     16012
     16011     16008     16012     16008     16012     16014     16008     16012     16015
     16008     16012     16016     16014     16012     16015     16014     16012     16016
     16015     16012     16016     16019     16017     16020     16019     16017     16021
     16019     16017     16022     16020     16017     16021     16020     16017     16022
     16021     16017     16022     16017     16022     16024     16017     16022     16025
     16017     16022     16026     16024     16022     16025     16024     16022     16026
     16025     16022     16026     16022     16026     16028     16022     16026     16029
     16022     16026     16038     16028     16026     16029     16028     16026     16038
     16029     16026     16038     16032     16030     16034     16032     16030     16036
     16032     16030     16038     16034     16030     16036     16034     16030     16038
     16036     16030     16038     16030     16036     16040     16026     16038     16030
     16036     16040     16042     16036     16040     16043     16036     16040     16044
     16042     16040     16043     16042     16040     16044     16043     16040     16044
     16040     16044     16046     16040     16044     16047     16040     16044     16061
     16046     16044     16047     16046     16044     16061     16047     16044     16061
     16044     16047     16049     16047     16049     16051     16047     16049     16053
     16051     16049     16053     16049     16053     16055     16049     16053     16056
     16049     16053     16079     16055     16053     16056     16055     16053     16079
     16056     16053     16079     16044     16061     16063     16044     16061     16064
     16044     16061     16065     16063     16061     16064     16063     16061     16065
     16064     16061     16065     16061     16065     16067     16065     16067     16069
     16065     16067     16071     16069     16067     16071     16067     16071     16073
     16067     16071     16074     16067     16071     16142     16073     16071     16074
     16073     16071     16142     16074     16071     16142     16053     16079     16081
     16053     16079     16082     16053     16079     16083     16081     16079     16082
     16081     16079     16083     16082     16079     16083     16079     16083     16085
     16079     16083     16086     16079     16083     16087     16085     16083     16086
     16085     16083     16087     16086     16083     16087     16083     16087     16089
     16083     16087     16090     16083     16087     16091     16089     16087     16090
     16089     16087     16091     16090     16087     16091     16087     16091     16093
     16087     16091     16094     16087     16091     16095     16093     16091     16094
     16093     16091     16095     16094     16091     16095     16091     16095     16097
     16091     16095     16098     16091     16095     16099     16097     16095     16098
     16097     16095     16099     16098     16095     16099     16095     16099     16101
     16095     16099     16102     16095     16099     16103     16101     16099     16102
     16101     16099     16103     16102     16099     16103     16099     16103     16105
     16099     16103     16106     16105     16103     16106     16103     16106     16108
     16103     16106     16109     16108     16106     16109     16106     16109     16111
     16106     16109     16112     16106     16109     16113     16111     16109     16112
     16111     16109     16113     16112     16109     16113     16109     16113     16115
     16109     16113     16116     16109     16113     16117     16115     16113     16116
     16115     16113     16117     16116     16113     16117     16113     16117     16119
     16113     16117     16120     16113     16117     16121     16119     16117     16120
     16119     16117     16121     16120     16117     16121     16117     16121     16123
     16117     16121     16124     16117     16121     16125     16123     16121     16124
     16123     16121     16125     16124     16121     16125     16121     16125     16127
     16121     16125     16128     16121     16125     16129     16127     16125     16128
     16127     16125     16129     16128     16125     16129     16125     16129     16131
     16125     16129     16132     16125     16129     16133     16131     16129     16132
     16131     16129     16133     16132     16129     16133     16129     16133     16135
     16129     16133     16136     16129     16133     16137     16135     16133     16136
     16135     16133     16137     16136     16133     16137     16133     16137     16139
     16133     16137     16140     16133     16137     16141     16139     16137     16140
     16139     16137     16141     16140     16137     16141     16071     16142     16144
     16071     16142     16145     16071     16142     16146     16144     16142     16145
     16144     16142     16146     16145     16142     16146     16142     16146     16148
     16142     16146     16149     16142     16146     16150     16148     16146     16149
     16148     16146     16150     16149     16146     16150     16146     16150     16152
     16146     16150     16153     16146     16150     16154     16152     16150     16153
     16152     16150     16154     16153     16150     16154     16150     16154     16156
     16150     16154     16157     16150     16154     16158     16156     16154     16157
     16156     16154     16158     16157     16154     16158     16154     16158     16160
     16154     16158     16161     16154     16158     16162     16160     16158     16161
     16160     16158     16162     16161     16158     16162     16158     16162     16164
     16158     16162     16165     16158     16162     16166     16164     16162     16165
     16164     16162     16166     16165     16162     16166     16162     16166     16168
     16162     16166     16169     16162     16166     16170     16168     16166     16169
     16168     16166     16170     16169     16166     16170     16166     16170     16172
     16166     16170     16173     16166     16170     16174     16172     16170     16173
     16172     16170     16174     16173     16170     16174     16170     16174     16176
     16170     16174     16177     16170     16174     16178     16176     16174     16177
     16176     16174     16178     16177     16174     16178     16174     16178     16180
     16174     16178     16181     16174     16178     16182     16180     16178     16181
     16180     16178     16182     16181     16178     16182     16178     16182     16184
     16178     16182     16185     16178     16182     16186     16184     16182     16185
     16184     16182     16186     16185     16182     16186     16182     16186     16188
     16182     16186     16189     16182     16186     16190     16188     16186     16189
     16188     16186     16190     16189     16186     16190     16186     16190     16192
     16186     16190     16193     16186     16190     16194     16192     16190     16193
     16192     16190     16194     16193     16190     16194     16190     16194     16196
     16190     16194     16197     16190     16194     16198     16196     16194     16197
     16196     16194     16198     16197     16194     16198     16201     16199     16202
     16201     16199     16203     16201     16199     16204     16202     16199     16203
     16202     16199     16204     16203     16199     16204     16199     16204     16206
     16199     16204     16207     16199     16204     16208     16206     16204     16207
     16206     16204     16208     16207     16204     16208     16204     16208     16210
     16204     16208     16211     16204     16208     16220     16210     16208     16211
     16210     16208     16220     16211     16208     16220     16214     16212     16216
     16214     16212     16218     16214     16212     16220     16216     16212     16218
     16216     16212     16220     16218     16212     16220     16212     16218     16222
     16208     16220     16212     16218     16222     16224     16218     16222     16225
     16218     16222     16226     16224     16222     16225     16224     16222     16226
     16225     16222     16226     16222     16226     16228     16222     16226     16229
     16222     16226     16243     16228     16226     16229     16228     16226     16243
     16229     16226     16243     16226     16229     16231     16229     16231     16233
     16229     16231     16235     16233     16231     16235     16231     16235     16237
     16231     16235     16238     16231     16235     16261     16237     16235     16238
     16237     16235     16261     16238     16235     16261     16226     16243     16245
     16226     16243     16246     16226     16243     16247     16245     16243     16246
     16245     16243     16247     16246     16243     16247     16243     16247     16249
     16247     16249     16251     16247     16249     16253     16251     16249     16253
     16249     16253     16255     16249     16253     16256     16249     16253     16324
     16255     16253     16256     16255     16253     16324     16256     16253     16324
     16235     16261     16263     16235     16261     16264     16235     16261     16265
     16263     16261     16264     16263     16261     16265     16264     16261     16265
     16261     16265     16267     16261     16265     16268     16261     16265     16269
     16267     16265     16268     16267     16265     16269     16268     16265     16269
     16265     16269     16271     16265     16269     16272     16265     16269     16273
     16271     16269     16272     16271     16269     16273     16272     16269     16273
     16269     16273     16275     16269     16273     16276     16269     16273     16277
     16275     16273     16276     16275     16273     16277     16276     16273     16277
     16273     16277     16279     16273     16277     16280     16273     16277     16281
     16279     16277     16280     16279     16277     16281     16280     16277     16281
     16277     16281     16283     16277     16281     16284     16277     16281     16285
     16283     16281     16284     16283     16281     16285     16284     16281     16285
     16281     16285     16287     16281     16285     16288     16287     16285     16288
     16285     16288     16290     16285     16288     16291     16290     16288     16291
     16288     16291     16293     16288     16291     16294     16288     16291     16295
     16293     16291     16294     16293     16291     16295     16294     16291     16295
     16291     16295     16297     16291     16295     16298     16291     16295     16299
     16297     16295     16298     16297     16295     16299     16298     16295     16299
     16295     16299     16301     16295     16299     16302     16295     16299     16303
     16301     16299     16302     16301     16299     16303     16302     16299     16303
     16299     16303     16305     16299     16303     16306     16299     16303     16307
     16305     16303     16306     16305     16303     16307     16306     16303     16307
     16303     16307     16309     16303     16307     16310     16303     16307     16311
     16309     16307     16310     16309     16307     16311     16310     16307     16311
     16307     16311     16313     16307     16311     16314     16307     16311     16315
     16313     16311     16314     16313     16311     16315     16314     16311     16315
     16311     16315     16317     16311     16315     16318     16311     16315     16319
     16317     16315     16318     16317     16315     16319     16318     16315     16319
     16315     16319     16321     16315     16319     16322     16315     16319     16323
     16321     16319     16322     16321     16319     16323     16322     16319     16323
     16253     16324     16326     16253     16324     16327     16253     16324     16328
     16326     16324     16327     16326     16324     16328     16327     16324     16328
     16324     16328     16330     16324     16328     16331     16324     16328     16332
     16330     16328     16331     16330     16328     16332     16331     16328     16332
     16328     16332     16334     16328     16332     16335     16328     16332     16336
     16334     16332     16335     16334     16332     16336     16335     16332     16336
     16332     16336     16338     16332     16336     16339     16332     16336     16340
     16338     16336     16339     16338     16336     16340     16339     16336     16340
     16336     16340     16342     16336     16340     16343     16336     16340     16344
     16342     16340     16343     16342     16340     16344     16343     16340     16344
     16340     16344     16346     16340     16344     16347     16340     16344     16348
     16346     16344     16347     16346     16344     16348     16347     16344     16348
     16344     16348     16350     16344     16348     16351     16344     16348     16352
     16350     16348     16351     16350     16348     16352     16351     16348     16352
     16348     16352     16354     16348     16352     16355     16348     16352     16356
     16354     16352     16355     16354     16352     16356     16355     16352     16356
     16352     16356     16358     16352     16356     16359     16352     16356     16360
     16358     16356     16359     16358     16356     16360     16359     16356     16360
     16356     16360     16362     16356     16360     16363     16356     16360     16364
     16362     16360     16363     16362     16360     16364     16363     16360     16364
     16360     16364     16366     16360     16364     16367     16360     16364     16368
     16366     16364     16367     16366     16364     16368     16367     16364     16368
     16364     16368     16370     16364     16368     16371     16364     16368     16372
     16370     16368     16371     16370     16368     16372     16371     16368     16372
     16368     16372     16374     16368     16372     16375     16368     16372     16376
     16374     16372     16375     16374     16372     16376     16375     16372     16376
     16372     16376     16378     16372     16376     16379     16372     16376     16380
     16378     16376     16379     16378     16376     16380     16379     16376     16380
     16383     16381     16384     16383     16381     16385     16383     16381     16386
     16384     16381     16385     16384     16381     16386     16385     16381     16386
     16381     16386     16388     16381     16386     16389     16381     16386     16390
     16388     16386     16389     16388     16386     16390     16389     16386     16390
     16386     16390     16392     16386     16390     16393     16386     16390     16402
     16392     16390     16393     16392     16390     16402     16393     16390     16402
     16396     16394     16398     16396     16394     16400     16396     16394     16402
     16398     16394     16400     16398     16394     16402     16400     16394     16402
     16394     16400     16404     16390     16402     16394     16400     16404     16406
     16400     16404     16407     16400     16404     16408     16406     16404     16407
     16406     16404     16408     16407     16404     16408     16404     16408     16410
     16404     16408     16411     16404     16408     16425     16410     16408     16411
     16410     16408     16425     16411     16408     16425     16408     16411     16413
     16411     16413     16415     16411     16413     16417     16415     16413     16417
     16413     16417     16419     16413     16417     16420     16413     16417     16443
     16419     16417     16420     16419     16417     16443     16420     16417     16443
     16408     16425     16427     16408     16425     16428     16408     16425     16429
     16427     16425     16428     16427     16425     16429     16428     16425     16429
     16425     16429     16431     16429     16431     16433     16429     16431     16435
     16433     16431     16435     16431     16435     16437     16431     16435     16438
     16431     16435     16506     16437     16435     16438     16437     16435     16506
     16438     16435     16506     16417     16443     16445     16417     16443     16446
     16417     16443     16447     16445     16443     16446     16445     16443     16447
     16446     16443     16447     16443     16447     16449     16443     16447     16450
     16443     16447     16451     16449     16447     16450     16449     16447     16451
     16450     16447     16451     16447     16451     16453     16447     16451     16454
     16447     16451     16455     16453     16451     16454     16453     16451     16455
     16454     16451     16455     16451     16455     16457     16451     16455     16458
     16451     16455     16459     16457     16455     16458     16457     16455     16459
     16458     16455     16459     16455     16459     16461     16455     16459     16462
     16455     16459     16463     16461     16459     16462     16461     16459     16463
     16462     16459     16463     16459     16463     16465     16459     16463     16466
     16459     16463     16467     16465     16463     16466     16465     16463     16467
     16466     16463     16467     16463     16467     16469     16463     16467     16470
     16469     16467     16470     16467     16470     16472     16467     16470     16473
     16472     16470     16473     16470     16473     16475     16470     16473     16476
     16470     16473     16477     16475     16473     16476     16475     16473     16477
     16476     16473     16477     16473     16477     16479     16473     16477     16480
     16473     16477     16481     16479     16477     16480     16479     16477     16481
     16480     16477     16481     16477     16481     16483     16477     16481     16484
     16477     16481     16485     16483     16481     16484     16483     16481     16485
     16484     16481     16485     16481     16485     16487     16481     16485     16488
     16481     16485     16489     16487     16485     16488     16487     16485     16489
     16488     16485     16489     16485     16489     16491     16485     16489     16492
     16485     16489     16493     16491     16489     16492     16491     16489     16493
     16492     16489     16493     16489     16493     16495     16489     16493     16496
     16489     16493     16497     16495     16493     16496     16495     16493     16497
     16496     16493     16497     16493     16497     16499     16493     16497     16500
     16493     16497     16501     16499     16497     16500     16499     16497     16501
     16500     16497     16501     16497     16501     16503     16497     16501     16504
     16497     16501     16505     16503     16501     16504     16503     16501     16505
     16504     16501     16505     16435     16506     16508     16435     16506     16509
     16435     16506     16510     16508     16506     16509     16508     16506     16510
     16509     16506     16510     16506     16510     16512     16506     16510     16513
     16506     16510     16514     16512     16510     16513     16512     16510     16514
     16513     16510     16514     16510     16514     16516     16510     16514     16517
     16510     16514     16518     16516     16514     16517     16516     16514     16518
     16517     16514     16518     16514     16518     16520     16514     16518     16521
     16514     16518     16522     16520     16518     16521     16520     16518     16522
     16521     16518     16522     16518     16522     16524     16518     16522     16525
     16518     16522     16526     16524     16522     16525     16524     16522     16526
     16525     16522     16526     16522     16526     16528     16522     16526     16529
     16522     16526     16530     16528     16526     16529     16528     16526     16530
     16529     16526     16530     16526     16530     16532     16526     16530     16533
     16526     16530     16534     16532     16530     16533     16532     16530     16534
     16533     16530     16534     16530     16534     16536     16530     16534     16537
     16530     16534     16538     16536     16534     16537     16536     16534     16538
     16537     16534     16538     16534     16538     16540     16534     16538     16541
     16534     16538     16542     16540     16538     16541     16540     16538     16542
     16541     16538     16542     16538     16542     16544     16538     16542     16545
     16538     16542     16546     16544     16542     16545     16544     16542     16546
     16545     16542     16546     16542     16546     16548     16542     16546     16549
     16542     16546     16550     16548     16546     16549     16548     16546     16550
     16549     16546     16550     16546     16550     16552     16546     16550     16553
     16546     16550     16554     16552     16550     16553     16552     16550     16554
     16553     16550     16554     16550     16554     16556     16550     16554     16557
     16550     16554     16558     16556     16554     16557     16556     16554     16558
     16557     16554     16558     16554     16558     16560     16554     16558     16561
     16554     16558     16562     16560     16558     16561     16560     16558     16562
     16561     16558     16562     16565     16563     16566     16565     16563     16567
     16565     16563     16568     16566     16563     16567     16566     16563     16568
     16567     16563     16568     16563     16568     16570     16563     16568     16571
     16563     16568     16572     16570     16568     16571     16570     16568     16572
     16571     16568     16572     16568     16572     16574     16568     16572     16575
     16568     16572     16584     16574     16572     16575     16574     16572     16584
     16575     16572     16584     16578     16576     16580     16578     16576     16582
     16578     16576     16584     16580     16576     16582     16580     16576     16584
     16582     16576     16584     16576     16582     16586     16572     16584     16576
     16582     16586     16588     16582     16586     16589     16582     16586     16590
     16588     16586     16589     16588     16586     16590     16589     16586     16590
     16586     16590     16592     16586     16590     16593     16586     16590     16607
     16592     16590     16593     16592     16590     16607     16593     16590     16607
     16590     16593     16595     16593     16595     16597     16593     16595     16599
     16597     16595     16599     16595     16599     16601     16595     16599     16602
     16595     16599     16625     16601     16599     16602     16601     16599     16625
     16602     16599     16625     16590     16607     16609     16590     16607     16610
     16590     16607     16611     16609     16607     16610     16609     16607     16611
     16610     16607     16611     16607     16611     16613     16611     16613     16615
     16611     16613     16617     16615     16613     16617     16613     16617     16619
     16613     16617     16620     16613     16617     16688     16619     16617     16620
     16619     16617     16688     16620     16617     16688     16599     16625     16627
     16599     16625     16628     16599     16625     16629     16627     16625     16628
     16627     16625     16629     16628     16625     16629     16625     16629     16631
     16625     16629     16632     16625     16629     16633     16631     16629     16632
     16631     16629     16633     16632     16629     16633     16629     16633     16635
     16629     16633     16636     16629     16633     16637     16635     16633     16636
     16635     16633     16637     16636     16633     16637     16633     16637     16639
     16633     16637     16640     16633     16637     16641     16639     16637     16640
     16639     16637     16641     16640     16637     16641     16637     16641     16643
     16637     16641     16644     16637     16641     16645     16643     16641     16644
     16643     16641     16645     16644     16641     16645     16641     16645     16647
     16641     16645     16648     16641     16645     16649     16647     16645     16648
     16647     16645     16649     16648     16645     16649     16645     16649     16651
     16645     16649     16652     16651     16649     16652     16649     16652     16654
     16649     16652     16655     16654     16652     16655     16652     16655     16657
     16652     16655     16658     16652     16655     16659     16657     16655     16658
     16657     16655     16659     16658     16655     16659     16655     16659     16661
     16655     16659     16662     16655     16659     16663     16661     16659     16662
     16661     16659     16663     16662     16659     16663     16659     16663     16665
     16659     16663     16666     16659     16663     16667     16665     16663     16666
     16665     16663     16667     16666     16663     16667     16663     16667     16669
     16663     16667     16670     16663     16667     16671     16669     16667     16670
     16669     16667     16671     16670     16667     16671     16667     16671     16673
     16667     16671     16674     16667     16671     16675     16673     16671     16674
     16673     16671     16675     16674     16671     16675     16671     16675     16677
     16671     16675     16678     16671     16675     16679     16677     16675     16678
     16677     16675     16679     16678     16675     16679     16675     16679     16681
     16675     16679     16682     16675     16679     16683     16681     16679     16682
     16681     16679     16683     16682     16679     16683     16679     16683     16685
     16679     16683     16686     16679     16683     16687     16685     16683     16686
     16685     16683     16687     16686     16683     16687     16617     16688     16690
     16617     16688     16691     16617     16688     16692     16690     16688     16691
     16690     16688     16692     16691     16688     16692     16688     16692     16694
     16688     16692     16695     16688     16692     16696     16694     16692     16695
     16694     16692     16696     16695     16692     16696     16692     16696     16698
     16692     16696     16699     16692     16696     16700     16698     16696     16699
     16698     16696     16700     16699     16696     16700     16696     16700     16702
     16696     16700     16703     16696     16700     16704     16702     16700     16703
     16702     16700     16704     16703     16700     16704     16700     16704     16706
     16700     16704     16707     16700     16704     16708     16706     16704     16707
     16706     16704     16708     16707     16704     16708     16704     16708     16710
     16704     16708     16711     16704     16708     16712     16710     16708     16711
     16710     16708     16712     16711     16708     16712     16708     16712     16714
     16708     16712     16715     16708     16712     16716     16714     16712     16715
     16714     16712     16716     16715     16712     16716     16712     16716     16718
     16712     16716     16719     16712     16716     16720     16718     16716     16719
     16718     16716     16720     16719     16716     16720     16716     16720     16722
     16716     16720     16723     16716     16720     16724     16722     16720     16723
     16722     16720     16724     16723     16720     16724     16720     16724     16726
     16720     16724     16727     16720     16724     16728     16726     16724     16727
     16726     16724     16728     16727     16724     16728     16724     16728     16730
     16724     16728     16731     16724     16728     16732     16730     16728     16731
     16730     16728     16732     16731     16728     16732     16728     16732     16734
     16728     16732     16735     16728     16732     16736     16734     16732     16735
     16734     16732     16736     16735     16732     16736     16732     16736     16738
     16732     16736     16739     16732     16736     16740     16738     16736     16739
     16738     16736     16740     16739     16736     16740     16736     16740     16742
     16736     16740     16743     16736     16740     16744     16742     16740     16743
     16742     16740     16744     16743     16740     16744     16747     16745     16748
     16747     16745     16749     16747     16745     16750     16748     16745     16749
     16748     16745     16750     16749     16745     16750     16745     16750     16752
     16745     16750     16753     16745     16750     16754     16752     16750     16753
     16752     16750     16754     16753     16750     16754     16750     16754     16756
     16750     16754     16757     16750     16754     16766     16756     16754     16757
     16756     16754     16766     16757     16754     16766     16760     16758     16762
     16760     16758     16764     16760     16758     16766     16762     16758     16764
     16762     16758     16766     16764     16758     16766     16758     16764     16768
     16754     16766     16758     16764     16768     16770     16764     16768     16771
     16764     16768     16772     16770     16768     16771     16770     16768     16772
     16771     16768     16772     16768     16772     16774     16768     16772     16775
     16768     16772     16789     16774     16772     16775     16774     16772     16789
     16775     16772     16789     16772     16775     16777     16775     16777     16779
     16775     16777     16781     16779     16777     16781     16777     16781     16783
     16777     16781     16784     16777     16781     16807     16783     16781     16784
     16783     16781     16807     16784     16781     16807     16772     16789     16791
     16772     16789     16792     16772     16789     16793     16791     16789     16792
     16791     16789     16793     16792     16789     16793     16789     16793     16795
     16793     16795     16797     16793     16795     16799     16797     16795     16799
     16795     16799     16801     16795     16799     16802     16795     16799     16870
     16801     16799     16802     16801     16799     16870     16802     16799     16870
     16781     16807     16809     16781     16807     16810     16781     16807     16811
     16809     16807     16810     16809     16807     16811     16810     16807     16811
     16807     16811     16813     16807     16811     16814     16807     16811     16815
     16813     16811     16814     16813     16811     16815     16814     16811     16815
     16811     16815     16817     16811     16815     16818     16811     16815     16819
     16817     16815     16818     16817     16815     16819     16818     16815     16819
     16815     16819     16821     16815     16819     16822     16815     16819     16823
     16821     16819     16822     16821     16819     16823     16822     16819     16823
     16819     16823     16825     16819     16823     16826     16819     16823     16827
     16825     16823     16826     16825     16823     16827     16826     16823     16827
     16823     16827     16829     16823     16827     16830     16823     16827     16831
     16829     16827     16830     16829     16827     16831     16830     16827     16831
     16827     16831     16833     16827     16831     16834     16833     16831     16834
     16831     16834     16836     16831     16834     16837     16836     16834     16837
     16834     16837     16839     16834     16837     16840     16834     16837     16841
     16839     16837     16840     16839     16837     16841     16840     16837     16841
     16837     16841     16843     16837     16841     16844     16837     16841     16845
     16843     16841     16844     16843     16841     16845     16844     16841     16845
     16841     16845     16847     16841     16845     16848     16841     16845     16849
     16847     16845     16848     16847     16845     16849     16848     16845     16849
     16845     16849     16851     16845     16849     16852     16845     16849     16853
     16851     16849     16852     16851     16849     16853     16852     16849     16853
     16849     16853     16855     16849     16853     16856     16849     16853     16857
     16855     16853     16856     16855     16853     16857     16856     16853     16857
     16853     16857     16859     16853     16857     16860     16853     16857     16861
     16859     16857     16860     16859     16857     16861     16860     16857     16861
     16857     16861     16863     16857     16861     16864     16857     16861     16865
     16863     16861     16864     16863     16861     16865     16864     16861     16865
     16861     16865     16867     16861     16865     16868     16861     16865     16869
     16867     16865     16868     16867     16865     16869     16868     16865     16869
     16799     16870     16872     16799     16870     16873     16799     16870     16874
     16872     16870     16873     16872     16870     16874     16873     16870     16874
     16870     16874     16876     16870     16874     16877     16870     16874     16878
     16876     16874     16877     16876     16874     16878     16877     16874     16878
     16874     16878     16880     16874     16878     16881     16874     16878     16882
     16880     16878     16881     16880     16878     16882     16881     16878     16882
     16878     16882     16884     16878     16882     16885     16878     16882     16886
     16884     16882     16885     16884     16882     16886     16885     16882     16886
     16882     16886     16888     16882     16886     16889     16882     16886     16890
     16888     16886     16889     16888     16886     16890     16889     16886     16890
     16886     16890     16892     16886     16890     16893     16886     16890     16894
     16892     16890     16893     16892     16890     16894     16893     16890     16894
     16890     16894     16896     16890     16894     16897     16890     16894     16898
     16896     16894     16897     16896     16894     16898     16897     16894     16898
     16894     16898     16900     16894     16898     16901     16894     16898     16902
     16900     16898     16901     16900     16898     16902     16901     16898     16902
     16898     16902     16904     16898     16902     16905     16898     16902     16906
     16904     16902     16905     16904     16902     16906     16905     16902     16906
     16902     16906     16908     16902     16906     16909     16902     16906     16910
     16908     16906     16909     16908     16906     16910     16909     16906     16910
     16906     16910     16912     16906     16910     16913     16906     16910     16914
     16912     16910     16913     16912     16910     16914     16913     16910     16914
     16910     16914     16916     16910     16914     16917     16910     16914     16918
     16916     16914     16917     16916     16914     16918     16917     16914     16918
     16914     16918     16920     16914     16918     16921     16914     16918     16922
     16920     16918     16921     16920     16918     16922     16921     16918     16922
     16918     16922     16924     16918     16922     16925     16918     16922     16926
     16924     16922     16925     16924     16922     16926     16925     16922     16926
     16929     16927     16930     16929     16927     16931     16929     16927     16932
     16930     16927     16931     16930     16927     16932     16931     16927     16932
     16927     16932     16934     16927     16932     16935     16927     16932     16936
     16934     16932     16935     16934     16932     16936     16935     16932     16936
     16932     16936     16938     16932     16936     16939     16932     16936     16948
     16938     16936     16939     16938     16936     16948     16939     16936     16948
     16942     16940     16944     16942     16940     16946     16942     16940     16948
     16944     16940     16946     16944     16940     16948     16946     16940     16948
     16940     16946     16950     16936     16948     16940     16946     16950     16952
     16946     16950     16953     16946     16950     16954     16952     16950     16953
     16952     16950     16954     16953     16950     16954     16950     16954     16956
     16950     16954     16957     16950     16954     16971     16956     16954     16957
     16956     16954     16971     16957     16954     16971     16954     16957     16959
     16957     16959     16961     16957     16959     16963     16961     16959     16963
     16959     16963     16965     16959     16963     16966     16959     16963     16989
     16965     16963     16966     16965     16963     16989     16966     16963     16989
     16954     16971     16973     16954     16971     16974     16954     16971     16975
     16973     16971     16974     16973     16971     16975     16974     16971     16975
     16971     16975     16977     16975     16977     16979     16975     16977     16981
     16979     16977     16981     16977     16981     16983     16977     16981     16984
     16977     16981     17052     16983     16981     16984     16983     16981     17052
     16984     16981     17052     16963     16989     16991     16963     16989     16992
     16963     16989     16993     16991     16989     16992     16991     16989     16993
     16992     16989     16993     16989     16993     16995     16989     16993     16996
     16989     16993     16997     16995     16993     16996     16995     16993     16997
     16996     16993     16997     16993     16997     16999     16993     16997     17000
     16993     16997     17001     16999     16997     17000     16999     16997     17001
     17000     16997     17001     16997     17001     17003     16997     17001     17004
     16997     17001     17005     17003     17001     17004     17003     17001     17005
     17004     17001     17005     17001     17005     17007     17001     17005     17008
     17001     17005     17009     17007     17005     17008     17007     17005     17009
     17008     17005     17009     17005     17009     17011     17005     17009     17012
     17005     17009     17013     17011     17009     17012     17011     17009     17013
     17012     17009     17013     17009     17013     17015     17009     17013     17016
     17015     17013     17016     17013     17016     17018     17013     17016     17019
     17018     17016     17019     17016     17019     17021     17016     17019     17022
     17016     17019     17023     17021     17019     17022     17021     17019     17023
     17022     17019     17023     17019     17023     17025     17019     17023     17026
     17019     17023     17027     17025     17023     17026     17025     17023     17027
     17026     17023     17027     17023     17027     17029     17023     17027     17030
     17023     17027     17031     17029     17027     17030     17029     17027     17031
     17030     17027     17031     17027     17031     17033     17027     17031     17034
     17027     17031     17035     17033     17031     17034     17033     17031     17035
     17034     17031     17035     17031     17035     17037     17031     17035     17038
     17031     17035     17039     17037     17035     17038     17037     17035     17039
     17038     17035     17039     17035     17039     17041     17035     17039     17042
     17035     17039     17043     17041     17039     17042     17041     17039     17043
     17042     17039     17043     17039     17043     17045     17039     17043     17046
     17039     17043     17047     17045     17043     17046     17045     17043     17047
     17046     17043     17047     17043     17047     17049     17043     17047     17050
     17043     17047     17051     17049     17047     17050     17049     17047     17051
     17050     17047     17051     16981     17052     17054     16981     17052     17055
     16981     17052     17056     17054     17052     17055     17054     17052     17056
     17055     17052     17056     17052     17056     17058     17052     17056     17059
     17052     17056     17060     17058     17056     17059     17058     17056     17060
     17059     17056     17060     17056     17060     17062     17056     17060     17063
     17056     17060     17064     17062     17060     17063     17062     17060     17064
     17063     17060     17064     17060     17064     17066     17060     17064     17067
     17060     17064     17068     17066     17064     17067     17066     17064     17068
     17067     17064     17068     17064     17068     17070     17064     17068     17071
     17064     17068     17072     17070     17068     17071     17070     17068     17072
     17071     17068     17072     17068     17072     17074     17068     17072     17075
     17068     17072     17076     17074     17072     17075     17074     17072     17076
     17075     17072     17076     17072     17076     17078     17072     17076     17079
     17072     17076     17080     17078     17076     17079     17078     17076     17080
     17079     17076     17080     17076     17080     17082     17076     17080     17083
     17076     17080     17084     17082     17080     17083     17082     17080     17084
     17083     17080     17084     17080     17084     17086     17080     17084     17087
     17080     17084     17088     17086     17084     17087     17086     17084     17088
     17087     17084     17088     17084     17088     17090     17084     17088     17091
     17084     17088     17092     17090     17088     17091     17090     17088     17092
     17091     17088     17092     17088     17092     17094     17088     17092     17095
     17088     17092     17096     17094     17092     17095     17094     17092     17096
     17095     17092     17096     17092     17096     17098     17092     17096     17099
     17092     17096     17100     17098     17096     17099     17098     17096     17100
     17099     17096     17100     17096     17100     17102     17096     17100     17103
     17096     17100     17104     17102     17100     17103     17102     17100     17104
     17103     17100     17104     17100     17104     17106     17100     17104     17107
     17100     17104     17108     17106     17104     17107     17106     17104     17108
     17107     17104     17108     17111     17109     17112     17111     17109     17113
     17111     17109     17114     17112     17109     17113     17112     17109     17114
     17113     17109     17114     17109     17114     17116     17109     17114     17117
     17109     17114     17118     17116     17114     17117     17116     17114     17118
     17117     17114     17118     17114     17118     17120     17114     17118     17121
     17114     17118     17130     17120     17118     17121     17120     17118     17130
     17121     17118     17130     17124     17122     17126     17124     17122     17128
     17124     17122     17130     17126     17122     17128     17126     17122     17130
     17128     17122     17130     17122     17128     17132     17118     17130     17122
     17128     17132     17134     17128     17132     17135     17128     17132     17136
     17134     17132     17135     17134     17132     17136     17135     17132     17136
     17132     17136     17138     17132     17136     17139     17132     17136     17153
     17138     17136     17139     17138     17136     17153     17139     17136     17153
     17136     17139     17141     17139     17141     17143     17139     17141     17145
     17143     17141     17145     17141     17145     17147     17141     17145     17148
     17141     17145     17171     17147     17145     17148     17147     17145     17171
     17148     17145     17171     17136     17153     17155     17136     17153     17156
     17136     17153     17157     17155     17153     17156     17155     17153     17157
     17156     17153     17157     17153     17157     17159     17157     17159     17161
     17157     17159     17163     17161     17159     17163     17159     17163     17165
     17159     17163     17166     17159     17163     17234     17165     17163     17166
     17165     17163     17234     17166     17163     17234     17145     17171     17173
     17145     17171     17174     17145     17171     17175     17173     17171     17174
     17173     17171     17175     17174     17171     17175     17171     17175     17177
     17171     17175     17178     17171     17175     17179     17177     17175     17178
     17177     17175     17179     17178     17175     17179     17175     17179     17181
     17175     17179     17182     17175     17179     17183     17181     17179     17182
     17181     17179     17183     17182     17179     17183     17179     17183     17185
     17179     17183     17186     17179     17183     17187     17185     17183     17186
     17185     17183     17187     17186     17183     17187     17183     17187     17189
     17183     17187     17190     17183     17187     17191     17189     17187     17190
     17189     17187     17191     17190     17187     17191     17187     17191     17193
     17187     17191     17194     17187     17191     17195     17193     17191     17194
     17193     17191     17195     17194     17191     17195     17191     17195     17197
     17191     17195     17198     17197     17195     17198     17195     17198     17200
     17195     17198     17201     17200     17198     17201     17198     17201     17203
     17198     17201     17204     17198     17201     17205     17203     17201     17204
     17203     17201     17205     17204     17201     17205     17201     17205     17207
     17201     17205     17208     17201     17205     17209     17207     17205     17208
     17207     17205     17209     17208     17205     17209     17205     17209     17211
     17205     17209     17212     17205     17209     17213     17211     17209     17212
     17211     17209     17213     17212     17209     17213     17209     17213     17215
     17209     17213     17216     17209     17213     17217     17215     17213     17216
     17215     17213     17217     17216     17213     17217     17213     17217     17219
     17213     17217     17220     17213     17217     17221     17219     17217     17220
     17219     17217     17221     17220     17217     17221     17217     17221     17223
     17217     17221     17224     17217     17221     17225     17223     17221     17224
     17223     17221     17225     17224     17221     17225     17221     17225     17227
     17221     17225     17228     17221     17225     17229     17227     17225     17228
     17227     17225     17229     17228     17225     17229     17225     17229     17231
     17225     17229     17232     17225     17229     17233     17231     17229     17232
     17231     17229     17233     17232     17229     17233     17163     17234     17236
     17163     17234     17237     17163     17234     17238     17236     17234     17237
     17236     17234     17238     17237     17234     17238     17234     17238     17240
     17234     17238     17241     17234     17238     17242     17240     17238     17241
     17240     17238     17242     17241     17238     17242     17238     17242     17244
     17238     17242     17245     17238     17242     17246     17244     17242     17245
     17244     17242     17246     17245     17242     17246     17242     17246     17248
     17242     17246     17249     17242     17246     17250     17248     17246     17249
     17248     17246     17250     17249     17246     17250     17246     17250     17252
     17246     17250     17253     17246     17250     17254     17252     17250     17253
     17252     17250     17254     17253     17250     17254     17250     17254     17256
     17250     17254     17257     17250     17254     17258     17256     17254     17257
     17256     17254     17258     17257     17254     17258     17254     17258     17260
     17254     17258     17261     17254     17258     17262     17260     17258     17261
     17260     17258     17262     17261     17258     17262     17258     17262     17264
     17258     17262     17265     17258     17262     17266     17264     17262     17265
     17264     17262     17266     17265     17262     17266     17262     17266     17268
     17262     17266     17269     17262     17266     17270     17268     17266     17269
     17268     17266     17270     17269     17266     17270     17266     17270     17272
     17266     17270     17273     17266     17270     17274     17272     17270     17273
     17272     17270     17274     17273     17270     17274     17270     17274     17276
     17270     17274     17277     17270     17274     17278     17276     17274     17277
     17276     17274     17278     17277     17274     17278     17274     17278     17280
     17274     17278     17281     17274     17278     17282     17280     17278     17281
     17280     17278     17282     17281     17278     17282     17278     17282     17284
     17278     17282     17285     17278     17282     17286     17284     17282     17285
     17284     17282     17286     17285     17282     17286     17282     17286     17288
     17282     17286     17289     17282     17286     17290     17288     17286     17289
     17288     17286     17290     17289     17286     17290     17293     17291     17294
     17293     17291     17295     17293     17291     17296     17294     17291     17295
     17294     17291     17296     17295     17291     17296     17291     17296     17298
     17291     17296     17299     17291     17296     17300     17298     17296     17299
     17298     17296     17300     17299     17296     17300     17296     17300     17302
     17296     17300     17303     17296     17300     17312     17302     17300     17303
     17302     17300     17312     17303     17300     17312     17306     17304     17308
     17306     17304     17310     17306     17304     17312     17308     17304     17310
     17308     17304     17312     17310     17304     17312     17304     17310     17314
     17300     17312     17304     17310     17314     17316     17310     17314     17317
     17310     17314     17318     17316     17314     17317     17316     17314     17318
     17317     17314     17318     17314     17318     17320     17314     17318     17321
     17314     17318     17335     17320     17318     17321     17320     17318     17335
     17321     17318     17335     17318     17321     17323     17321     17323     17325
     17321     17323     17327     17325     17323     17327     17323     17327     17329
     17323     17327     17330     17323     17327     17353     17329     17327     17330
     17329     17327     17353     17330     17327     17353     17318     17335     17337
     17318     17335     17338     17318     17335     17339     17337     17335     17338
     17337     17335     17339     17338     17335     17339     17335     17339     17341
     17339     17341     17343     17339     17341     17345     17343     17341     17345
     17341     17345     17347     17341     17345     17348     17341     17345     17416
     17347     17345     17348     17347     17345     17416     17348     17345     17416
     17327     17353     17355     17327     17353     17356     17327     17353     17357
     17355     17353     17356     17355     17353     17357     17356     17353     17357
     17353     17357     17359     17353     17357     17360     17353     17357     17361
     17359     17357     17360     17359     17357     17361     17360     17357     17361
     17357     17361     17363     17357     17361     17364     17357     17361     17365
     17363     17361     17364     17363     17361     17365     17364     17361     17365
     17361     17365     17367     17361     17365     17368     17361     17365     17369
     17367     17365     17368     17367     17365     17369     17368     17365     17369
     17365     17369     17371     17365     17369     17372     17365     17369     17373
     17371     17369     17372     17371     17369     17373     17372     17369     17373
     17369     17373     17375     17369     17373     17376     17369     17373     17377
     17375     17373     17376     17375     17373     17377     17376     17373     17377
     17373     17377     17379     17373     17377     17380     17379     17377     17380
     17377     17380     17382     17377     17380     17383     17382     17380     17383
     17380     17383     17385     17380     17383     17386     17380     17383     17387
     17385     17383     17386     17385     17383     17387     17386     17383     17387
     17383     17387     17389     17383     17387     17390     17383     17387     17391
     17389     17387     17390     17389     17387     17391     17390     17387     17391
     17387     17391     17393     17387     17391     17394     17387     17391     17395
     17393     17391     17394     17393     17391     17395     17394     17391     17395
     17391     17395     17397     17391     17395     17398     17391     17395     17399
     17397     17395     17398     17397     17395     17399     17398     17395     17399
     17395     17399     17401     17395     17399     17402     17395     17399     17403
     17401     17399     17402     17401     17399     17403     17402     17399     17403
     17399     17403     17405     17399     17403     17406     17399     17403     17407
     17405     17403     17406     17405     17403     17407     17406     17403     17407
     17403     17407     17409     17403     17407     17410     17403     17407     17411
     17409     17407     17410     17409     17407     17411     17410     17407     17411
     17407     17411     17413     17407     17411     17414     17407     17411     17415
     17413     17411     17414     17413     17411     17415     17414     17411     17415
     17345     17416     17418     17345     17416     17419     17345     17416     17420
     17418     17416     17419     17418     17416     17420     17419     17416     17420
     17416     17420     17422     17416     17420     17423     17416     17420     17424
     17422     17420     17423     17422     17420     17424     17423     17420     17424
     17420     17424     17426     17420     17424     17427     17420     17424     17428
     17426     17424     17427     17426     17424     17428     17427     17424     17428
     17424     17428     17430     17424     17428     17431     17424     17428     17432
     17430     17428     17431     17430     17428     17432     17431     17428     17432
     17428     17432     17434     17428     17432     17435     17428     17432     17436
     17434     17432     17435     17434     17432     17436     17435     17432     17436
     17432     17436     17438     17432     17436     17439     17432     17436     17440
     17438     17436     17439     17438     17436     17440     17439     17436     17440
     17436     17440     17442     17436     17440     17443     17436     17440     17444
     17442     17440     17443     17442     17440     17444     17443     17440     17444
     17440     17444     17446     17440     17444     17447     17440     17444     17448
     17446     17444     17447     17446     17444     17448     17447     17444     17448
     17444     17448     17450     17444     17448     17451     17444     17448     17452
     17450     17448     17451     17450     17448     17452     17451     17448     17452
     17448     17452     17454     17448     17452     17455     17448     17452     17456
     17454     17452     17455     17454     17452     17456     17455     17452     17456
     17452     17456     17458     17452     17456     17459     17452     17456     17460
     17458     17456     17459     17458     17456     17460     17459     17456     17460
     17456     17460     17462     17456     17460     17463     17456     17460     17464
     17462     17460     17463     17462     17460     17464     17463     17460     17464
     17460     17464     17466     17460     17464     17467     17460     17464     17468
     17466     17464     17467     17466     17464     17468     17467     17464     17468
     17464     17468     17470     17464     17468     17471     17464     17468     17472
     17470     17468     17471     17470     17468     17472     17471     17468     17472
     17475     17473     17476     17475     17473     17477     17475     17473     17478
     17476     17473     17477     17476     17473     17478     17477     17473     17478
     17473     17478     17480     17473     17478     17481     17473     17478     17482
     17480     17478     17481     17480     17478     17482     17481     17478     17482
     17478     17482     17484     17478     17482     17485     17478     17482     17494
     17484     17482     17485     17484     17482     17494     17485     17482     17494
     17488     17486     17490     17488     17486     17492     17488     17486     17494
     17490     17486     17492     17490     17486     17494     17492     17486     17494
     17486     17492     17496     17482     17494     17486     17492     17496     17498
     17492     17496     17499     17492     17496     17500     17498     17496     17499
     17498     17496     17500     17499     17496     17500     17496     17500     17502
     17496     17500     17503     17496     17500     17517     17502     17500     17503
     17502     17500     17517     17503     17500     17517     17500     17503     17505
     17503     17505     17507     17503     17505     17509     17507     17505     17509
     17505     17509     17511     17505     17509     17512     17505     17509     17535
     17511     17509     17512     17511     17509     17535     17512     17509     17535
     17500     17517     17519     17500     17517     17520     17500     17517     17521
     17519     17517     17520     17519     17517     17521     17520     17517     17521
     17517     17521     17523     17521     17523     17525     17521     17523     17527
     17525     17523     17527     17523     17527     17529     17523     17527     17530
     17523     17527     17598     17529     17527     17530     17529     17527     17598
     17530     17527     17598     17509     17535     17537     17509     17535     17538
     17509     17535     17539     17537     17535     17538     17537     17535     17539
     17538     17535     17539     17535     17539     17541     17535     17539     17542
     17535     17539     17543     17541     17539     17542     17541     17539     17543
     17542     17539     17543     17539     17543     17545     17539     17543     17546
     17539     17543     17547     17545     17543     17546     17545     17543     17547
     17546     17543     17547     17543     17547     17549     17543     17547     17550
     17543     17547     17551     17549     17547     17550     17549     17547     17551
     17550     17547     17551     17547     17551     17553     17547     17551     17554
     17547     17551     17555     17553     17551     17554     17553     17551     17555
     17554     17551     17555     17551     17555     17557     17551     17555     17558
     17551     17555     17559     17557     17555     17558     17557     17555     17559
     17558     17555     17559     17555     17559     17561     17555     17559     17562
     17561     17559     17562     17559     17562     17564     17559     17562     17565
     17564     17562     17565     17562     17565     17567     17562     17565     17568
     17562     17565     17569     17567     17565     17568     17567     17565     17569
     17568     17565     17569     17565     17569     17571     17565     17569     17572
     17565     17569     17573     17571     17569     17572     17571     17569     17573
     17572     17569     17573     17569     17573     17575     17569     17573     17576
     17569     17573     17577     17575     17573     17576     17575     17573     17577
     17576     17573     17577     17573     17577     17579     17573     17577     17580
     17573     17577     17581     17579     17577     17580     17579     17577     17581
     17580     17577     17581     17577     17581     17583     17577     17581     17584
     17577     17581     17585     17583     17581     17584     17583     17581     17585
     17584     17581     17585     17581     17585     17587     17581     17585     17588
     17581     17585     17589     17587     17585     17588     17587     17585     17589
     17588     17585     17589     17585     17589     17591     17585     17589     17592
     17585     17589     17593     17591     17589     17592     17591     17589     17593
     17592     17589     17593     17589     17593     17595     17589     17593     17596
     17589     17593     17597     17595     17593     17596     17595     17593     17597
     17596     17593     17597     17527     17598     17600     17527     17598     17601
     17527     17598     17602     17600     17598     17601     17600     17598     17602
     17601     17598     17602     17598     17602     17604     17598     17602     17605
     17598     17602     17606     17604     17602     17605     17604     17602     17606
     17605     17602     17606     17602     17606     17608     17602     17606     17609
     17602     17606     17610     17608     17606     17609     17608     17606     17610
     17609     17606     17610     17606     17610     17612     17606     17610     17613
     17606     17610     17614     17612     17610     17613     17612     17610     17614
     17613     17610     17614     17610     17614     17616     17610     17614     17617
     17610     17614     17618     17616     17614     17617     17616     17614     17618
     17617     17614     17618     17614     17618     17620     17614     17618     17621
     17614     17618     17622     17620     17618     17621     17620     17618     17622
     17621     17618     17622     17618     17622     17624     17618     17622     17625
     17618     17622     17626     17624     17622     17625     17624     17622     17626
     17625     17622     17626     17622     17626     17628     17622     17626     17629
     17622     17626     17630     17628     17626     17629     17628     17626     17630
     17629     17626     17630     17626     17630     17632     17626     17630     17633
     17626     17630     17634     17632     17630     17633     17632     17630     17634
     17633     17630     17634     17630     17634     17636     17630     17634     17637
     17630     17634     17638     17636     17634     17637     17636     17634     17638
     17637     17634     17638     17634     17638     17640     17634     17638     17641
     17634     17638     17642     17640     17638     17641     17640     17638     17642
     17641     17638     17642     17638     17642     17644     17638     17642     17645
     17638     17642     17646     17644     17642     17645     17644     17642     17646
     17645     17642     17646     17642     17646     17648     17642     17646     17649
     17642     17646     17650     17648     17646     17649     17648     17646     17650
     17649     17646     17650     17646     17650     17652     17646     17650     17653
     17646     17650     17654     17652     17650     17653     17652     17650     17654
     17653     17650     17654     17657     17655     17658     17657     17655     17659
     17657     17655     17660     17658     17655     17659     17658     17655     17660
     17659     17655     17660     17655     17660     17662     17655     17660     17663
     17655     17660     17664     17662     17660     17663     17662     17660     17664
     17663     17660     17664     17660     17664     17666     17660     17664     17667
     17660     17664     17676     17666     17664     17667     17666     17664     17676
     17667     17664     17676     17670     17668     17672     17670     17668     17674
     17670     17668     17676     17672     17668     17674     17672     17668     17676
     17674     17668     17676     17668     17674     17678     17664     17676     17668
     17674     17678     17680     17674     17678     17681     17674     17678     17682
     17680     17678     17681     17680     17678     17682     17681     17678     17682
     17678     17682     17684     17678     17682     17685     17678     17682     17699
     17684     17682     17685     17684     17682     17699     17685     17682     17699
     17682     17685     17687     17685     17687     17689     17685     17687     17691
     17689     17687     17691     17687     17691     17693     17687     17691     17694
     17687     17691     17717     17693     17691     17694     17693     17691     17717
     17694     17691     17717     17682     17699     17701     17682     17699     17702
     17682     17699     17703     17701     17699     17702     17701     17699     17703
     17702     17699     17703     17699     17703     17705     17703     17705     17707
     17703     17705     17709     17707     17705     17709     17705     17709     17711
     17705     17709     17712     17705     17709     17780     17711     17709     17712
     17711     17709     17780     17712     17709     17780     17691     17717     17719
     17691     17717     17720     17691     17717     17721     17719     17717     17720
     17719     17717     17721     17720     17717     17721     17717     17721     17723
     17717     17721     17724     17717     17721     17725     17723     17721     17724
     17723     17721     17725     17724     17721     17725     17721     17725     17727
     17721     17725     17728     17721     17725     17729     17727     17725     17728
     17727     17725     17729     17728     17725     17729     17725     17729     17731
     17725     17729     17732     17725     17729     17733     17731     17729     17732
     17731     17729     17733     17732     17729     17733     17729     17733     17735
     17729     17733     17736     17729     17733     17737     17735     17733     17736
     17735     17733     17737     17736     17733     17737     17733     17737     17739
     17733     17737     17740     17733     17737     17741     17739     17737     17740
     17739     17737     17741     17740     17737     17741     17737     17741     17743
     17737     17741     17744     17743     17741     17744     17741     17744     17746
     17741     17744     17747     17746     17744     17747     17744     17747     17749
     17744     17747     17750     17744     17747     17751     17749     17747     17750
     17749     17747     17751     17750     17747     17751     17747     17751     17753
     17747     17751     17754     17747     17751     17755     17753     17751     17754
     17753     17751     17755     17754     17751     17755     17751     17755     17757
     17751     17755     17758     17751     17755     17759     17757     17755     17758
     17757     17755     17759     17758     17755     17759     17755     17759     17761
     17755     17759     17762     17755     17759     17763     17761     17759     17762
     17761     17759     17763     17762     17759     17763     17759     17763     17765
     17759     17763     17766     17759     17763     17767     17765     17763     17766
     17765     17763     17767     17766     17763     17767     17763     17767     17769
     17763     17767     17770     17763     17767     17771     17769     17767     17770
     17769     17767     17771     17770     17767     17771     17767     17771     17773
     17767     17771     17774     17767     17771     17775     17773     17771     17774
     17773     17771     17775     17774     17771     17775     17771     17775     17777
     17771     17775     17778     17771     17775     17779     17777     17775     17778
     17777     17775     17779     17778     17775     17779     17709     17780     17782
     17709     17780     17783     17709     17780     17784     17782     17780     17783
     17782     17780     17784     17783     17780     17784     17780     17784     17786
     17780     17784     17787     17780     17784     17788     17786     17784     17787
     17786     17784     17788     17787     17784     17788     17784     17788     17790
     17784     17788     17791     17784     17788     17792     17790     17788     17791
     17790     17788     17792     17791     17788     17792     17788     17792     17794
     17788     17792     17795     17788     17792     17796     17794     17792     17795
     17794     17792     17796     17795     17792     17796     17792     17796     17798
     17792     17796     17799     17792     17796     17800     17798     17796     17799
     17798     17796     17800     17799     17796     17800     17796     17800     17802
     17796     17800     17803     17796     17800     17804     17802     17800     17803
     17802     17800     17804     17803     17800     17804     17800     17804     17806
     17800     17804     17807     17800     17804     17808     17806     17804     17807
     17806     17804     17808     17807     17804     17808     17804     17808     17810
     17804     17808     17811     17804     17808     17812     17810     17808     17811
     17810     17808     17812     17811     17808     17812     17808     17812     17814
     17808     17812     17815     17808     17812     17816     17814     17812     17815
     17814     17812     17816     17815     17812     17816     17812     17816     17818
     17812     17816     17819     17812     17816     17820     17818     17816     17819
     17818     17816     17820     17819     17816     17820     17816     17820     17822
     17816     17820     17823     17816     17820     17824     17822     17820     17823
     17822     17820     17824     17823     17820     17824     17820     17824     17826
     17820     17824     17827     17820     17824     17828     17826     17824     17827
     17826     17824     17828     17827     17824     17828     17824     17828     17830
     17824     17828     17831     17824     17828     17832     17830     17828     17831
     17830     17828     17832     17831     17828     17832     17828     17832     17834
     17828     17832     17835     17828     17832     17836     17834     17832     17835
     17834     17832     17836     17835     17832     17836     17839     17837     17840
     17839     17837     17841     17839     17837     17842     17840     17837     17841
     17840     17837     17842     17841     17837     17842     17837     17842     17844
     17837     17842     17845     17837     17842     17846     17844     17842     17845
     17844     17842     17846     17845     17842     17846     17842     17846     17848
     17842     17846     17849     17842     17846     17858     17848     17846     17849
     17848     17846     17858     17849     17846     17858     17852     17850     17854
     17852     17850     17856     17852     17850     17858     17854     17850     17856
     17854     17850     17858     17856     17850     17858     17850     17856     17860
     17846     17858     17850     17856     17860     17862     17856     17860     17863
     17856     17860     17864     17862     17860     17863     17862     17860     17864
     17863     17860     17864     17860     17864     17866     17860     17864     17867
     17860     17864     17881     17866     17864     17867     17866     17864     17881
     17867     17864     17881     17864     17867     17869     17867     17869     17871
     17867     17869     17873     17871     17869     17873     17869     17873     17875
     17869     17873     17876     17869     17873     17899     17875     17873     17876
     17875     17873     17899     17876     17873     17899     17864     17881     17883
     17864     17881     17884     17864     17881     17885     17883     17881     17884
     17883     17881     17885     17884     17881     17885     17881     17885     17887
     17885     17887     17889     17885     17887     17891     17889     17887     17891
     17887     17891     17893     17887     17891     17894     17887     17891     17962
     17893     17891     17894     17893     17891     17962     17894     17891     17962
     17873     17899     17901     17873     17899     17902     17873     17899     17903
     17901     17899     17902     17901     17899     17903     17902     17899     17903
     17899     17903     17905     17899     17903     17906     17899     17903     17907
     17905     17903     17906     17905     17903     17907     17906     17903     17907
     17903     17907     17909     17903     17907     17910     17903     17907     17911
     17909     17907     17910     17909     17907     17911     17910     17907     17911
     17907     17911     17913     17907     17911     17914     17907     17911     17915
     17913     17911     17914     17913     17911     17915     17914     17911     17915
     17911     17915     17917     17911     17915     17918     17911     17915     17919
     17917     17915     17918     17917     17915     17919     17918     17915     17919
     17915     17919     17921     17915     17919     17922     17915     17919     17923
     17921     17919     17922     17921     17919     17923     17922     17919     17923
     17919     17923     17925     17919     17923     17926     17925     17923     17926
     17923     17926     17928     17923     17926     17929     17928     17926     17929
     17926     17929     17931     17926     17929     17932     17926     17929     17933
     17931     17929     17932     17931     17929     17933     17932     17929     17933
     17929     17933     17935     17929     17933     17936     17929     17933     17937
     17935     17933     17936     17935     17933     17937     17936     17933     17937
     17933     17937     17939     17933     17937     17940     17933     17937     17941
     17939     17937     17940     17939     17937     17941     17940     17937     17941
     17937     17941     17943     17937     17941     17944     17937     17941     17945
     17943     17941     17944     17943     17941     17945     17944     17941     17945
     17941     17945     17947     17941     17945     17948     17941     17945     17949
     17947     17945     17948     17947     17945     17949     17948     17945     17949
     17945     17949     17951     17945     17949     17952     17945     17949     17953
     17951     17949     17952     17951     17949     17953     17952     17949     17953
     17949     17953     17955     17949     17953     17956     17949     17953     17957
     17955     17953     17956     17955     17953     17957     17956     17953     17957
     17953     17957     17959     17953     17957     17960     17953     17957     17961
     17959     17957     17960     17959     17957     17961     17960     17957     17961
     17891     17962     17964     17891     17962     17965     17891     17962     17966
     17964     17962     17965     17964     17962     17966     17965     17962     17966
     17962     17966     17968     17962     17966     17969     17962     17966     17970
     17968     17966     17969     17968     17966     17970     17969     17966     17970
     17966     17970     17972     17966     17970     17973     17966     17970     17974
     17972     17970     17973     17972     17970     17974     17973     17970     17974
     17970     17974     17976     17970     17974     17977     17970     17974     17978
     17976     17974     17977     17976     17974     17978     17977     17974     17978
     17974     17978     17980     17974     17978     17981     17974     17978     17982
     17980     17978     17981     17980     17978     17982     17981     17978     17982
     17978     17982     17984     17978     17982     17985     17978     17982     17986
     17984     17982     17985     17984     17982     17986     17985     17982     17986
     17982     17986     17988     17982     17986     17989     17982     17986     17990
     17988     17986     17989     17988     17986     17990     17989     17986     17990
     17986     17990     17992     17986     17990     17993     17986     17990     17994
     17992     17990     17993     17992     17990     17994     17993     17990     17994
     17990     17994     17996     17990     17994     17997     17990     17994     17998
     17996     17994     17997     17996     17994     17998     17997     17994     17998
     17994     17998     18000     17994     17998     18001     17994     17998     18002
     18000     17998     18001     18000     17998     18002     18001     17998     18002
     17998     18002     18004     17998     18002     18005     17998     18002     18006
     18004     18002     18005     18004     18002     18006     18005     18002     18006
     18002     18006     18008     18002     18006     18009     18002     18006     18010
     18008     18006     18009     18008     18006     18010     18009     18006     18010
     18006     18010     18012     18006     18010     18013     18006     18010     18014
     18012     18010     18013     18012     18010     18014     18013     18010     18014
     18010     18014     18016     18010     18014     18017     18010     18014     18018
     18016     18014     18017     18016     18014     18018     18017     18014     18018
     18021     18019     18022     18021     18019     18023     18021     18019     18024
     18022     18019     18023     18022     18019     18024     18023     18019     18024
     18019     18024     18026     18019     18024     18027     18019     18024     18028
     18026     18024     18027     18026     18024     18028     18027     18024     18028
     18024     18028     18030     18024     18028     18031     18024     18028     18040
     18030     18028     18031     18030     18028     18040     18031     18028     18040
     18034     18032     18036     18034     18032     18038     18034     18032     18040
     18036     18032     18038     18036     18032     18040     18038     18032     18040
     18032     18038     18042     18028     18040     18032     18038     18042     18044
     18038     18042     18045     18038     18042     18046     18044     18042     18045
     18044     18042     18046     18045     18042     18046     18042     18046     18048
     18042     18046     18049     18042     18046     18063     18048     18046     18049
     18048     18046     18063     18049     18046     18063     18046     18049     18051
     18049     18051     18053     18049     18051     18055     18053     18051     18055
     18051     18055     18057     18051     18055     18058     18051     18055     18081
     18057     18055     18058     18057     18055     18081     18058     18055     18081
     18046     18063     18065     18046     18063     18066     18046     18063     18067
     18065     18063     18066     18065     18063     18067     18066     18063     18067
     18063     18067     18069     18067     18069     18071     18067     18069     18073
     18071     18069     18073     18069     18073     18075     18069     18073     18076
     18069     18073     18144     18075     18073     18076     18075     18073     18144
     18076     18073     18144     18055     18081     18083     18055     18081     18084
     18055     18081     18085     18083     18081     18084     18083     18081     18085
     18084     18081     18085     18081     18085     18087     18081     18085     18088
     18081     18085     18089     18087     18085     18088     18087     18085     18089
     18088     18085     18089     18085     18089     18091     18085     18089     18092
     18085     18089     18093     18091     18089     18092     18091     18089     18093
     18092     18089     18093     18089     18093     18095     18089     18093     18096
     18089     18093     18097     18095     18093     18096     18095     18093     18097
     18096     18093     18097     18093     18097     18099     18093     18097     18100
     18093     18097     18101     18099     18097     18100     18099     18097     18101
     18100     18097     18101     18097     18101     18103     18097     18101     18104
     18097     18101     18105     18103     18101     18104     18103     18101     18105
     18104     18101     18105     18101     18105     18107     18101     18105     18108
     18107     18105     18108     18105     18108     18110     18105     18108     18111
     18110     18108     18111     18108     18111     18113     18108     18111     18114
     18108     18111     18115     18113     18111     18114     18113     18111     18115
     18114     18111     18115     18111     18115     18117     18111     18115     18118
     18111     18115     18119     18117     18115     18118     18117     18115     18119
     18118     18115     18119     18115     18119     18121     18115     18119     18122
     18115     18119     18123     18121     18119     18122     18121     18119     18123
     18122     18119     18123     18119     18123     18125     18119     18123     18126
     18119     18123     18127     18125     18123     18126     18125     18123     18127
     18126     18123     18127     18123     18127     18129     18123     18127     18130
     18123     18127     18131     18129     18127     18130     18129     18127     18131
     18130     18127     18131     18127     18131     18133     18127     18131     18134
     18127     18131     18135     18133     18131     18134     18133     18131     18135
     18134     18131     18135     18131     18135     18137     18131     18135     18138
     18131     18135     18139     18137     18135     18138     18137     18135     18139
     18138     18135     18139     18135     18139     18141     18135     18139     18142
     18135     18139     18143     18141     18139     18142     18141     18139     18143
     18142     18139     18143     18073     18144     18146     18073     18144     18147
     18073     18144     18148     18146     18144     18147     18146     18144     18148
     18147     18144     18148     18144     18148     18150     18144     18148     18151
     18144     18148     18152     18150     18148     18151     18150     18148     18152
     18151     18148     18152     18148     18152     18154     18148     18152     18155
     18148     18152     18156     18154     18152     18155     18154     18152     18156
     18155     18152     18156     18152     18156     18158     18152     18156     18159
     18152     18156     18160     18158     18156     18159     18158     18156     18160
     18159     18156     18160     18156     18160     18162     18156     18160     18163
     18156     18160     18164     18162     18160     18163     18162     18160     18164
     18163     18160     18164     18160     18164     18166     18160     18164     18167
     18160     18164     18168     18166     18164     18167     18166     18164     18168
     18167     18164     18168     18164     18168     18170     18164     18168     18171
     18164     18168     18172     18170     18168     18171     18170     18168     18172
     18171     18168     18172     18168     18172     18174     18168     18172     18175
     18168     18172     18176     18174     18172     18175     18174     18172     18176
     18175     18172     18176     18172     18176     18178     18172     18176     18179
     18172     18176     18180     18178     18176     18179     18178     18176     18180
     18179     18176     18180     18176     18180     18182     18176     18180     18183
     18176     18180     18184     18182     18180     18183     18182     18180     18184
     18183     18180     18184     18180     18184     18186     18180     18184     18187
     18180     18184     18188     18186     18184     18187     18186     18184     18188
     18187     18184     18188     18184     18188     18190     18184     18188     18191
     18184     18188     18192     18190     18188     18191     18190     18188     18192
     18191     18188     18192     18188     18192     18194     18188     18192     18195
     18188     18192     18196     18194     18192     18195     18194     18192     18196
     18195     18192     18196     18192     18196     18198     18192     18196     18199
     18192     18196     18200     18198     18196     18199     18198     18196     18200
     18199     18196     18200     18203     18201     18204     18203     18201     18205
     18203     18201     18206     18204     18201     18205     18204     18201     18206
     18205     18201     18206     18201     18206     18208     18201     18206     18209
     18201     18206     18210     18208     18206     18209     18208     18206     18210
     18209     18206     18210     18206     18210     18212     18206     18210     18213
     18206     18210     18222     18212     18210     18213     18212     18210     18222
     18213     18210     18222     18216     18214     18218     18216     18214     18220
     18216     18214     18222     18218     18214     18220     18218     18214     18222
     18220     18214     18222     18214     18220     18224     18210     18222     18214
     18220     18224     18226     18220     18224     18227     18220     18224     18228
     18226     18224     18227     18226     18224     18228     18227     18224     18228
     18224     18228     18230     18224     18228     18231     18224     18228     18245
     18230     18228     18231     18230     18228     18245     18231     18228     18245
     18228     18231     18233     18231     18233     18235     18231     18233     18237
     18235     18233     18237     18233     18237     18239     18233     18237     18240
     18233     18237     18263     18239     18237     18240     18239     18237     18263
     18240     18237     18263     18228     18245     18247     18228     18245     18248
     18228     18245     18249     18247     18245     18248     18247     18245     18249
     18248     18245     18249     18245     18249     18251     18249     18251     18253
     18249     18251     18255     18253     18251     18255     18251     18255     18257
     18251     18255     18258     18251     18255     18326     18257     18255     18258
     18257     18255     18326     18258     18255     18326     18237     18263     18265
     18237     18263     18266     18237     18263     18267     18265     18263     18266
     18265     18263     18267     18266     18263     18267     18263     18267     18269
     18263     18267     18270     18263     18267     18271     18269     18267     18270
     18269     18267     18271     18270     18267     18271     18267     18271     18273
     18267     18271     18274     18267     18271     18275     18273     18271     18274
     18273     18271     18275     18274     18271     18275     18271     18275     18277
     18271     18275     18278     18271     18275     18279     18277     18275     18278
     18277     18275     18279     18278     18275     18279     18275     18279     18281
     18275     18279     18282     18275     18279     18283     18281     18279     18282
     18281     18279     18283     18282     18279     18283     18279     18283     18285
     18279     18283     18286     18279     18283     18287     18285     18283     18286
     18285     18283     18287     18286     18283     18287     18283     18287     18289
     18283     18287     18290     18289     18287     18290     18287     18290     18292
     18287     18290     18293     18292     18290     18293     18290     18293     18295
     18290     18293     18296     18290     18293     18297     18295     18293     18296
     18295     18293     18297     18296     18293     18297     18293     18297     18299
     18293     18297     18300     18293     18297     18301     18299     18297     18300
     18299     18297     18301     18300     18297     18301     18297     18301     18303
     18297     18301     18304     18297     18301     18305     18303     18301     18304
     18303     18301     18305     18304     18301     18305     18301     18305     18307
     18301     18305     18308     18301     18305     18309     18307     18305     18308
     18307     18305     18309     18308     18305     18309     18305     18309     18311
     18305     18309     18312     18305     18309     18313     18311     18309     18312
     18311     18309     18313     18312     18309     18313     18309     18313     18315
     18309     18313     18316     18309     18313     18317     18315     18313     18316
     18315     18313     18317     18316     18313     18317     18313     18317     18319
     18313     18317     18320     18313     18317     18321     18319     18317     18320
     18319     18317     18321     18320     18317     18321     18317     18321     18323
     18317     18321     18324     18317     18321     18325     18323     18321     18324
     18323     18321     18325     18324     18321     18325     18255     18326     18328
     18255     18326     18329     18255     18326     18330     18328     18326     18329
     18328     18326     18330     18329     18326     18330     18326     18330     18332
     18326     18330     18333     18326     18330     18334     18332     18330     18333
     18332     18330     18334     18333     18330     18334     18330     18334     18336
     18330     18334     18337     18330     18334     18338     18336     18334     18337
     18336     18334     18338     18337     18334     18338     18334     18338     18340
     18334     18338     18341     18334     18338     18342     18340     18338     18341
     18340     18338     18342     18341     18338     18342     18338     18342     18344
     18338     18342     18345     18338     18342     18346     18344     18342     18345
     18344     18342     18346     18345     18342     18346     18342     18346     18348
     18342     18346     18349     18342     18346     18350     18348     18346     18349
     18348     18346     18350     18349     18346     18350     18346     18350     18352
     18346     18350     18353     18346     18350     18354     18352     18350     18353
     18352     18350     18354     18353     18350     18354     18350     18354     18356
     18350     18354     18357     18350     18354     18358     18356     18354     18357
     18356     18354     18358     18357     18354     18358     18354     18358     18360
     18354     18358     18361     18354     18358     18362     18360     18358     18361
     18360     18358     18362     18361     18358     18362     18358     18362     18364
     18358     18362     18365     18358     18362     18366     18364     18362     18365
     18364     18362     18366     18365     18362     18366     18362     18366     18368
     18362     18366     18369     18362     18366     18370     18368     18366     18369
     18368     18366     18370     18369     18366     18370     18366     18370     18372
     18366     18370     18373     18366     18370     18374     18372     18370     18373
     18372     18370     18374     18373     18370     18374     18370     18374     18376
     18370     18374     18377     18370     18374     18378     18376     18374     18377
     18376     18374     18378     18377     18374     18378     18374     18378     18380
     18374     18378     18381     18374     18378     18382     18380     18378     18381
     18380     18378     18382     18381     18378     18382     18385     18383     18386
     18385     18383     18387     18385     18383     18388     18386     18383     18387
     18386     18383     18388     18387     18383     18388     18383     18388     18390
     18383     18388     18391     18383     18388     18392     18390     18388     18391
     18390     18388     18392     18391     18388     18392     18388     18392     18394
     18388     18392     18395     18388     18392     18404     18394     18392     18395
     18394     18392     18404     18395     18392     18404     18398     18396     18400
     18398     18396     18402     18398     18396     18404     18400     18396     18402
     18400     18396     18404     18402     18396     18404     18396     18402     18406
     18392     18404     18396     18402     18406     18408     18402     18406     18409
     18402     18406     18410     18408     18406     18409     18408     18406     18410
     18409     18406     18410     18406     18410     18412     18406     18410     18413
     18406     18410     18427     18412     18410     18413     18412     18410     18427
     18413     18410     18427     18410     18413     18415     18413     18415     18417
     18413     18415     18419     18417     18415     18419     18415     18419     18421
     18415     18419     18422     18415     18419     18445     18421     18419     18422
     18421     18419     18445     18422     18419     18445     18410     18427     18429
     18410     18427     18430     18410     18427     18431     18429     18427     18430
     18429     18427     18431     18430     18427     18431     18427     18431     18433
     18431     18433     18435     18431     18433     18437     18435     18433     18437
     18433     18437     18439     18433     18437     18440     18433     18437     18508
     18439     18437     18440     18439     18437     18508     18440     18437     18508
     18419     18445     18447     18419     18445     18448     18419     18445     18449
     18447     18445     18448     18447     18445     18449     18448     18445     18449
     18445     18449     18451     18445     18449     18452     18445     18449     18453
     18451     18449     18452     18451     18449     18453     18452     18449     18453
     18449     18453     18455     18449     18453     18456     18449     18453     18457
     18455     18453     18456     18455     18453     18457     18456     18453     18457
     18453     18457     18459     18453     18457     18460     18453     18457     18461
     18459     18457     18460     18459     18457     18461     18460     18457     18461
     18457     18461     18463     18457     18461     18464     18457     18461     18465
     18463     18461     18464     18463     18461     18465     18464     18461     18465
     18461     18465     18467     18461     18465     18468     18461     18465     18469
     18467     18465     18468     18467     18465     18469     18468     18465     18469
     18465     18469     18471     18465     18469     18472     18471     18469     18472
     18469     18472     18474     18469     18472     18475     18474     18472     18475
     18472     18475     18477     18472     18475     18478     18472     18475     18479
     18477     18475     18478     18477     18475     18479     18478     18475     18479
     18475     18479     18481     18475     18479     18482     18475     18479     18483
     18481     18479     18482     18481     18479     18483     18482     18479     18483
     18479     18483     18485     18479     18483     18486     18479     18483     18487
     18485     18483     18486     18485     18483     18487     18486     18483     18487
     18483     18487     18489     18483     18487     18490     18483     18487     18491
     18489     18487     18490     18489     18487     18491     18490     18487     18491
     18487     18491     18493     18487     18491     18494     18487     18491     18495
     18493     18491     18494     18493     18491     18495     18494     18491     18495
     18491     18495     18497     18491     18495     18498     18491     18495     18499
     18497     18495     18498     18497     18495     18499     18498     18495     18499
     18495     18499     18501     18495     18499     18502     18495     18499     18503
     18501     18499     18502     18501     18499     18503     18502     18499     18503
     18499     18503     18505     18499     18503     18506     18499     18503     18507
     18505     18503     18506     18505     18503     18507     18506     18503     18507
     18437     18508     18510     18437     18508     18511     18437     18508     18512
     18510     18508     18511     18510     18508     18512     18511     18508     18512
     18508     18512     18514     18508     18512     18515     18508     18512     18516
     18514     18512     18515     18514     18512     18516     18515     18512     18516
     18512     18516     18518     18512     18516     18519     18512     18516     18520
     18518     18516     18519     18518     18516     18520     18519     18516     18520
     18516     18520     18522     18516     18520     18523     18516     18520     18524
     18522     18520     18523     18522     18520     18524     18523     18520     18524
     18520     18524     18526     18520     18524     18527     18520     18524     18528
     18526     18524     18527     18526     18524     18528     18527     18524     18528
     18524     18528     18530     18524     18528     18531     18524     18528     18532
     18530     18528     18531     18530     18528     18532     18531     18528     18532
     18528     18532     18534     18528     18532     18535     18528     18532     18536
     18534     18532     18535     18534     18532     18536     18535     18532     18536
     18532     18536     18538     18532     18536     18539     18532     18536     18540
     18538     18536     18539     18538     18536     18540     18539     18536     18540
     18536     18540     18542     18536     18540     18543     18536     18540     18544
     18542     18540     18543     18542     18540     18544     18543     18540     18544
     18540     18544     18546     18540     18544     18547     18540     18544     18548
     18546     18544     18547     18546     18544     18548     18547     18544     18548
     18544     18548     18550     18544     18548     18551     18544     18548     18552
     18550     18548     18551     18550     18548     18552     18551     18548     18552
     18548     18552     18554     18548     18552     18555     18548     18552     18556
     18554     18552     18555     18554     18552     18556     18555     18552     18556
     18552     18556     18558     18552     18556     18559     18552     18556     18560
     18558     18556     18559     18558     18556     18560     18559     18556     18560
     18556     18560     18562     18556     18560     18563     18556     18560     18564
     18562     18560     18563     18562     18560     18564     18563     18560     18564
     18567     18565     18568     18567     18565     18569     18567     18565     18570
     18568     18565     18569     18568     18565     18570     18569     18565     18570
     18565     18570     18572     18565     18570     18573     18565     18570     18574
     18572     18570     18573     18572     18570     18574     18573     18570     18574
     18570     18574     18576     18570     18574     18577     18570     18574     18586
     18576     18574     18577     18576     18574     18586     18577     18574     18586
     18580     18578     18582     18580     18578     18584     18580     18578     18586
     18582     18578     18584     18582     18578     18586     18584     18578     18586
     18578     18584     18588     18574     18586     18578     18584     18588     18590
     18584     18588     18591     18584     18588     18592     18590     18588     18591
     18590     18588     18592     18591     18588     18592     18588     18592     18594
     18588     18592     18595     18588     18592     18609     18594     18592     18595
     18594     18592     18609     18595     18592     18609     18592     18595     18597
     18595     18597     18599     18595     18597     18601     18599     18597     18601
     18597     18601     18603     18597     18601     18604     18597     18601     18627
     18603     18601     18604     18603     18601     18627     18604     18601     18627
     18592     18609     18611     18592     18609     18612     18592     18609     18613
     18611     18609     18612     18611     18609     18613     18612     18609     18613
     18609     18613     18615     18613     18615     18617     18613     18615     18619
     18617     18615     18619     18615     18619     18621     18615     18619     18622
     18615     18619     18690     18621     18619     18622     18621     18619     18690
     18622     18619     18690     18601     18627     18629     18601     18627     18630
     18601     18627     18631     18629     18627     18630     18629     18627     18631
     18630     18627     18631     18627     18631     18633     18627     18631     18634
     18627     18631     18635     18633     18631     18634     18633     18631     18635
     18634     18631     18635     18631     18635     18637     18631     18635     18638
     18631     18635     18639     18637     18635     18638     18637     18635     18639
     18638     18635     18639     18635     18639     18641     18635     18639     18642
     18635     18639     18643     18641     18639     18642     18641     18639     18643
     18642     18639     18643     18639     18643     18645     18639     18643     18646
     18639     18643     18647     18645     18643     18646     18645     18643     18647
     18646     18643     18647     18643     18647     18649     18643     18647     18650
     18643     18647     18651     18649     18647     18650     18649     18647     18651
     18650     18647     18651     18647     18651     18653     18647     18651     18654
     18653     18651     18654     18651     18654     18656     18651     18654     18657
     18656     18654     18657     18654     18657     18659     18654     18657     18660
     18654     18657     18661     18659     18657     18660     18659     18657     18661
     18660     18657     18661     18657     18661     18663     18657     18661     18664
     18657     18661     18665     18663     18661     18664     18663     18661     18665
     18664     18661     18665     18661     18665     18667     18661     18665     18668
     18661     18665     18669     18667     18665     18668     18667     18665     18669
     18668     18665     18669     18665     18669     18671     18665     18669     18672
     18665     18669     18673     18671     18669     18672     18671     18669     18673
     18672     18669     18673     18669     18673     18675     18669     18673     18676
     18669     18673     18677     18675     18673     18676     18675     18673     18677
     18676     18673     18677     18673     18677     18679     18673     18677     18680
     18673     18677     18681     18679     18677     18680     18679     18677     18681
     18680     18677     18681     18677     18681     18683     18677     18681     18684
     18677     18681     18685     18683     18681     18684     18683     18681     18685
     18684     18681     18685     18681     18685     18687     18681     18685     18688
     18681     18685     18689     18687     18685     18688     18687     18685     18689
     18688     18685     18689     18619     18690     18692     18619     18690     18693
     18619     18690     18694     18692     18690     18693     18692     18690     18694
     18693     18690     18694     18690     18694     18696     18690     18694     18697
     18690     18694     18698     18696     18694     18697     18696     18694     18698
     18697     18694     18698     18694     18698     18700     18694     18698     18701
     18694     18698     18702     18700     18698     18701     18700     18698     18702
     18701     18698     18702     18698     18702     18704     18698     18702     18705
     18698     18702     18706     18704     18702     18705     18704     18702     18706
     18705     18702     18706     18702     18706     18708     18702     18706     18709
     18702     18706     18710     18708     18706     18709     18708     18706     18710
     18709     18706     18710     18706     18710     18712     18706     18710     18713
     18706     18710     18714     18712     18710     18713     18712     18710     18714
     18713     18710     18714     18710     18714     18716     18710     18714     18717
     18710     18714     18718     18716     18714     18717     18716     18714     18718
     18717     18714     18718     18714     18718     18720     18714     18718     18721
     18714     18718     18722     18720     18718     18721     18720     18718     18722
     18721     18718     18722     18718     18722     18724     18718     18722     18725
     18718     18722     18726     18724     18722     18725     18724     18722     18726
     18725     18722     18726     18722     18726     18728     18722     18726     18729
     18722     18726     18730     18728     18726     18729     18728     18726     18730
     18729     18726     18730     18726     18730     18732     18726     18730     18733
     18726     18730     18734     18732     18730     18733     18732     18730     18734
     18733     18730     18734     18730     18734     18736     18730     18734     18737
     18730     18734     18738     18736     18734     18737     18736     18734     18738
     18737     18734     18738     18734     18738     18740     18734     18738     18741
     18734     18738     18742     18740     18738     18741     18740     18738     18742
     18741     18738     18742     18738     18742     18744     18738     18742     18745
     18738     18742     18746     18744     18742     18745     18744     18742     18746
     18745     18742     18746     18749     18747     18750     18749     18747     18751
     18749     18747     18752     18750     18747     18751     18750     18747     18752
     18751     18747     18752     18747     18752     18754     18747     18752     18755
     18747     18752     18756     18754     18752     18755     18754     18752     18756
     18755     18752     18756     18752     18756     18758     18752     18756     18759
     18752     18756     18768     18758     18756     18759     18758     18756     18768
     18759     18756     18768     18762     18760     18764     18762     18760     18766
     18762     18760     18768     18764     18760     18766     18764     18760     18768
     18766     18760     18768     18760     18766     18770     18756     18768     18760
     18766     18770     18772     18766     18770     18773     18766     18770     18774
     18772     18770     18773     18772     18770     18774     18773     18770     18774
     18770     18774     18776     18770     18774     18777     18770     18774     18791
     18776     18774     18777     18776     18774     18791     18777     18774     18791
     18774     18777     18779     18777     18779     18781     18777     18779     18783
     18781     18779     18783     18779     18783     18785     18779     18783     18786
     18779     18783     18809     18785     18783     18786     18785     18783     18809
     18786     18783     18809     18774     18791     18793     18774     18791     18794
     18774     18791     18795     18793     18791     18794     18793     18791     18795
     18794     18791     18795     18791     18795     18797     18795     18797     18799
     18795     18797     18801     18799     18797     18801     18797     18801     18803
     18797     18801     18804     18797     18801     18872     18803     18801     18804
     18803     18801     18872     18804     18801     18872     18783     18809     18811
     18783     18809     18812     18783     18809     18813     18811     18809     18812
     18811     18809     18813     18812     18809     18813     18809     18813     18815
     18809     18813     18816     18809     18813     18817     18815     18813     18816
     18815     18813     18817     18816     18813     18817     18813     18817     18819
     18813     18817     18820     18813     18817     18821     18819     18817     18820
     18819     18817     18821     18820     18817     18821     18817     18821     18823
     18817     18821     18824     18817     18821     18825     18823     18821     18824
     18823     18821     18825     18824     18821     18825     18821     18825     18827
     18821     18825     18828     18821     18825     18829     18827     18825     18828
     18827     18825     18829     18828     18825     18829     18825     18829     18831
     18825     18829     18832     18825     18829     18833     18831     18829     18832
     18831     18829     18833     18832     18829     18833     18829     18833     18835
     18829     18833     18836     18835     18833     18836     18833     18836     18838
     18833     18836     18839     18838     18836     18839     18836     18839     18841
     18836     18839     18842     18836     18839     18843     18841     18839     18842
     18841     18839     18843     18842     18839     18843     18839     18843     18845
     18839     18843     18846     18839     18843     18847     18845     18843     18846
     18845     18843     18847     18846     18843     18847     18843     18847     18849
     18843     18847     18850     18843     18847     18851     18849     18847     18850
     18849     18847     18851     18850     18847     18851     18847     18851     18853
     18847     18851     18854     18847     18851     18855     18853     18851     18854
     18853     18851     18855     18854     18851     18855     18851     18855     18857
     18851     18855     18858     18851     18855     18859     18857     18855     18858
     18857     18855     18859     18858     18855     18859     18855     18859     18861
     18855     18859     18862     18855     18859     18863     18861     18859     18862
     18861     18859     18863     18862     18859     18863     18859     18863     18865
     18859     18863     18866     18859     18863     18867     18865     18863     18866
     18865     18863     18867     18866     18863     18867     18863     18867     18869
     18863     18867     18870     18863     18867     18871     18869     18867     18870
     18869     18867     18871     18870     18867     18871     18801     18872     18874
     18801     18872     18875     18801     18872     18876     18874     18872     18875
     18874     18872     18876     18875     18872     18876     18872     18876     18878
     18872     18876     18879     18872     18876     18880     18878     18876     18879
     18878     18876     18880     18879     18876     18880     18876     18880     18882
     18876     18880     18883     18876     18880     18884     18882     18880     18883
     18882     18880     18884     18883     18880     18884     18880     18884     18886
     18880     18884     18887     18880     18884     18888     18886     18884     18887
     18886     18884     18888     18887     18884     18888     18884     18888     18890
     18884     18888     18891     18884     18888     18892     18890     18888     18891
     18890     18888     18892     18891     18888     18892     18888     18892     18894
     18888     18892     18895     18888     18892     18896     18894     18892     18895
     18894     18892     18896     18895     18892     18896     18892     18896     18898
     18892     18896     18899     18892     18896     18900     18898     18896     18899
     18898     18896     18900     18899     18896     18900     18896     18900     18902
     18896     18900     18903     18896     18900     18904     18902     18900     18903
     18902     18900     18904     18903     18900     18904     18900     18904     18906
     18900     18904     18907     18900     18904     18908     18906     18904     18907
     18906     18904     18908     18907     18904     18908     18904     18908     18910
     18904     18908     18911     18904     18908     18912     18910     18908     18911
     18910     18908     18912     18911     18908     18912     18908     18912     18914
     18908     18912     18915     18908     18912     18916     18914     18912     18915
     18914     18912     18916     18915     18912     18916     18912     18916     18918
     18912     18916     18919     18912     18916     18920     18918     18916     18919
     18918     18916     18920     18919     18916     18920     18916     18920     18922
     18916     18920     18923     18916     18920     18924     18922     18920     18923
     18922     18920     18924     18923     18920     18924     18920     18924     18926
     18920     18924     18927     18920     18924     18928     18926     18924     18927
     18926     18924     18928     18927     18924     18928     18931     18929     18932
     18931     18929     18933     18931     18929     18934     18932     18929     18933
     18932     18929     18934     18933     18929     18934     18929     18934     18936
     18929     18934     18937     18929     18934     18938     18936     18934     18937
     18936     18934     18938     18937     18934     18938     18934     18938     18940
     18934     18938     18941     18934     18938     18950     18940     18938     18941
     18940     18938     18950     18941     18938     18950     18944     18942     18946
     18944     18942     18948     18944     18942     18950     18946     18942     18948
     18946     18942     18950     18948     18942     18950     18942     18948     18952
     18938     18950     18942     18948     18952     18954     18948     18952     18955
     18948     18952     18956     18954     18952     18955     18954     18952     18956
     18955     18952     18956     18952     18956     18958     18952     18956     18959
     18952     18956     18973     18958     18956     18959     18958     18956     18973
     18959     18956     18973     18956     18959     18961     18959     18961     18963
     18959     18961     18965     18963     18961     18965     18961     18965     18967
     18961     18965     18968     18961     18965     18991     18967     18965     18968
     18967     18965     18991     18968     18965     18991     18956     18973     18975
     18956     18973     18976     18956     18973     18977     18975     18973     18976
     18975     18973     18977     18976     18973     18977     18973     18977     18979
     18977     18979     18981     18977     18979     18983     18981     18979     18983
     18979     18983     18985     18979     18983     18986     18979     18983     19054
     18985     18983     18986     18985     18983     19054     18986     18983     19054
     18965     18991     18993     18965     18991     18994     18965     18991     18995
     18993     18991     18994     18993     18991     18995     18994     18991     18995
     18991     18995     18997     18991     18995     18998     18991     18995     18999
     18997     18995     18998     18997     18995     18999     18998     18995     18999
     18995     18999     19001     18995     18999     19002     18995     18999     19003
     19001     18999     19002     19001     18999     19003     19002     18999     19003
     18999     19003     19005     18999     19003     19006     18999     19003     19007
     19005     19003     19006     19005     19003     19007     19006     19003     19007
     19003     19007     19009     19003     19007     19010     19003     19007     19011
     19009     19007     19010     19009     19007     19011     19010     19007     19011
     19007     19011     19013     19007     19011     19014     19007     19011     19015
     19013     19011     19014     19013     19011     19015     19014     19011     19015
     19011     19015     19017     19011     19015     19018     19017     19015     19018
     19015     19018     19020     19015     19018     19021     19020     19018     19021
     19018     19021     19023     19018     19021     19024     19018     19021     19025
     19023     19021     19024     19023     19021     19025     19024     19021     19025
     19021     19025     19027     19021     19025     19028     19021     19025     19029
     19027     19025     19028     19027     19025     19029     19028     19025     19029
     19025     19029     19031     19025     19029     19032     19025     19029     19033
     19031     19029     19032     19031     19029     19033     19032     19029     19033
     19029     19033     19035     19029     19033     19036     19029     19033     19037
     19035     19033     19036     19035     19033     19037     19036     19033     19037
     19033     19037     19039     19033     19037     19040     19033     19037     19041
     19039     19037     19040     19039     19037     19041     19040     19037     19041
     19037     19041     19043     19037     19041     19044     19037     19041     19045
     19043     19041     19044     19043     19041     19045     19044     19041     19045
     19041     19045     19047     19041     19045     19048     19041     19045     19049
     19047     19045     19048     19047     19045     19049     19048     19045     19049
     19045     19049     19051     19045     19049     19052     19045     19049     19053
     19051     19049     19052     19051     19049     19053     19052     19049     19053
     18983     19054     19056     18983     19054     19057     18983     19054     19058
     19056     19054     19057     19056     19054     19058     19057     19054     19058
     19054     19058     19060     19054     19058     19061     19054     19058     19062
     19060     19058     19061     19060     19058     19062     19061     19058     19062
     19058     19062     19064     19058     19062     19065     19058     19062     19066
     19064     19062     19065     19064     19062     19066     19065     19062     19066
     19062     19066     19068     19062     19066     19069     19062     19066     19070
     19068     19066     19069     19068     19066     19070     19069     19066     19070
     19066     19070     19072     19066     19070     19073     19066     19070     19074
     19072     19070     19073     19072     19070     19074     19073     19070     19074
     19070     19074     19076     19070     19074     19077     19070     19074     19078
     19076     19074     19077     19076     19074     19078     19077     19074     19078
     19074     19078     19080     19074     19078     19081     19074     19078     19082
     19080     19078     19081     19080     19078     19082     19081     19078     19082
     19078     19082     19084     19078     19082     19085     19078     19082     19086
     19084     19082     19085     19084     19082     19086     19085     19082     19086
     19082     19086     19088     19082     19086     19089     19082     19086     19090
     19088     19086     19089     19088     19086     19090     19089     19086     19090
     19086     19090     19092     19086     19090     19093     19086     19090     19094
     19092     19090     19093     19092     19090     19094     19093     19090     19094
     19090     19094     19096     19090     19094     19097     19090     19094     19098
     19096     19094     19097     19096     19094     19098     19097     19094     19098
     19094     19098     19100     19094     19098     19101     19094     19098     19102
     19100     19098     19101     19100     19098     19102     19101     19098     19102
     19098     19102     19104     19098     19102     19105     19098     19102     19106
     19104     19102     19105     19104     19102     19106     19105     19102     19106
     19102     19106     19108     19102     19106     19109     19102     19106     19110
     19108     19106     19109     19108     19106     19110     19109     19106     19110
     19113     19111     19114     19113     19111     19115     19113     19111     19116
     19114     19111     19115     19114     19111     19116     19115     19111     19116
     19111     19116     19118     19111     19116     19119     19111     19116     19120
     19118     19116     19119     19118     19116     19120     19119     19116     19120
     19116     19120     19122     19116     19120     19123     19116     19120     19132
     19122     19120     19123     19122     19120     19132     19123     19120     19132
     19126     19124     19128     19126     19124     19130     19126     19124     19132
     19128     19124     19130     19128     19124     19132     19130     19124     19132
     19124     19130     19134     19120     19132     19124     19130     19134     19136
     19130     19134     19137     19130     19134     19138     19136     19134     19137
     19136     19134     19138     19137     19134     19138     19134     19138     19140
     19134     19138     19141     19134     19138     19155     19140     19138     19141
     19140     19138     19155     19141     19138     19155     19138     19141     19143
     19141     19143     19145     19141     19143     19147     19145     19143     19147
     19143     19147     19149     19143     19147     19150     19143     19147     19173
     19149     19147     19150     19149     19147     19173     19150     19147     19173
     19138     19155     19157     19138     19155     19158     19138     19155     19159
     19157     19155     19158     19157     19155     19159     19158     19155     19159
     19155     19159     19161     19159     19161     19163     19159     19161     19165
     19163     19161     19165     19161     19165     19167     19161     19165     19168
     19161     19165     19236     19167     19165     19168     19167     19165     19236
     19168     19165     19236     19147     19173     19175     19147     19173     19176
     19147     19173     19177     19175     19173     19176     19175     19173     19177
     19176     19173     19177     19173     19177     19179     19173     19177     19180
     19173     19177     19181     19179     19177     19180     19179     19177     19181
     19180     19177     19181     19177     19181     19183     19177     19181     19184
     19177     19181     19185     19183     19181     19184     19183     19181     19185
     19184     19181     19185     19181     19185     19187     19181     19185     19188
     19181     19185     19189     19187     19185     19188     19187     19185     19189
     19188     19185     19189     19185     19189     19191     19185     19189     19192
     19185     19189     19193     19191     19189     19192     19191     19189     19193
     19192     19189     19193     19189     19193     19195     19189     19193     19196
     19189     19193     19197     19195     19193     19196     19195     19193     19197
     19196     19193     19197     19193     19197     19199     19193     19197     19200
     19199     19197     19200     19197     19200     19202     19197     19200     19203
     19202     19200     19203     19200     19203     19205     19200     19203     19206
     19200     19203     19207     19205     19203     19206     19205     19203     19207
     19206     19203     19207     19203     19207     19209     19203     19207     19210
     19203     19207     19211     19209     19207     19210     19209     19207     19211
     19210     19207     19211     19207     19211     19213     19207     19211     19214
     19207     19211     19215     19213     19211     19214     19213     19211     19215
     19214     19211     19215     19211     19215     19217     19211     19215     19218
     19211     19215     19219     19217     19215     19218     19217     19215     19219
     19218     19215     19219     19215     19219     19221     19215     19219     19222
     19215     19219     19223     19221     19219     19222     19221     19219     19223
     19222     19219     19223     19219     19223     19225     19219     19223     19226
     19219     19223     19227     19225     19223     19226     19225     19223     19227
     19226     19223     19227     19223     19227     19229     19223     19227     19230
     19223     19227     19231     19229     19227     19230     19229     19227     19231
     19230     19227     19231     19227     19231     19233     19227     19231     19234
     19227     19231     19235     19233     19231     19234     19233     19231     19235
     19234     19231     19235     19165     19236     19238     19165     19236     19239
     19165     19236     19240     19238     19236     19239     19238     19236     19240
     19239     19236     19240     19236     19240     19242     19236     19240     19243
     19236     19240     19244     19242     19240     19243     19242     19240     19244
     19243     19240     19244     19240     19244     19246     19240     19244     19247
     19240     19244     19248     19246     19244     19247     19246     19244     19248
     19247     19244     19248     19244     19248     19250     19244     19248     19251
     19244     19248     19252     19250     19248     19251     19250     19248     19252
     19251     19248     19252     19248     19252     19254     19248     19252     19255
     19248     19252     19256     19254     19252     19255     19254     19252     19256
     19255     19252     19256     19252     19256     19258     19252     19256     19259
     19252     19256     19260     19258     19256     19259     19258     19256     19260
     19259     19256     19260     19256     19260     19262     19256     19260     19263
     19256     19260     19264     19262     19260     19263     19262     19260     19264
     19263     19260     19264     19260     19264     19266     19260     19264     19267
     19260     19264     19268     19266     19264     19267     19266     19264     19268
     19267     19264     19268     19264     19268     19270     19264     19268     19271
     19264     19268     19272     19270     19268     19271     19270     19268     19272
     19271     19268     19272     19268     19272     19274     19268     19272     19275
     19268     19272     19276     19274     19272     19275     19274     19272     19276
     19275     19272     19276     19272     19276     19278     19272     19276     19279
     19272     19276     19280     19278     19276     19279     19278     19276     19280
     19279     19276     19280     19276     19280     19282     19276     19280     19283
     19276     19280     19284     19282     19280     19283     19282     19280     19284
     19283     19280     19284     19280     19284     19286     19280     19284     19287
     19280     19284     19288     19286     19284     19287     19286     19284     19288
     19287     19284     19288     19284     19288     19290     19284     19288     19291
     19284     19288     19292     19290     19288     19291     19290     19288     19292
     19291     19288     19292     19295     19293     19296     19295     19293     19297
     19295     19293     19298     19296     19293     19297     19296     19293     19298
     19297     19293     19298     19293     19298     19300     19293     19298     19301
     19293     19298     19302     19300     19298     19301     19300     19298     19302
     19301     19298     19302     19298     19302     19304     19298     19302     19305
     19298     19302     19314     19304     19302     19305     19304     19302     19314
     19305     19302     19314     19308     19306     19310     19308     19306     19312
     19308     19306     19314     19310     19306     19312     19310     19306     19314
     19312     19306     19314     19306     19312     19316     19302     19314     19306
     19312     19316     19318     19312     19316     19319     19312     19316     19320
     19318     19316     19319     19318     19316     19320     19319     19316     19320
     19316     19320     19322     19316     19320     19323     19316     19320     19337
     19322     19320     19323     19322     19320     19337     19323     19320     19337
     19320     19323     19325     19323     19325     19327     19323     19325     19329
     19327     19325     19329     19325     19329     19331     19325     19329     19332
     19325     19329     19355     19331     19329     19332     19331     19329     19355
     19332     19329     19355     19320     19337     19339     19320     19337     19340
     19320     19337     19341     19339     19337     19340     19339     19337     19341
     19340     19337     19341     19337     19341     19343     19341     19343     19345
     19341     19343     19347     19345     19343     19347     19343     19347     19349
     19343     19347     19350     19343     19347     19418     19349     19347     19350
     19349     19347     19418     19350     19347     19418     19329     19355     19357
     19329     19355     19358     19329     19355     19359     19357     19355     19358
     19357     19355     19359     19358     19355     19359     19355     19359     19361
     19355     19359     19362     19355     19359     19363     19361     19359     19362
     19361     19359     19363     19362     19359     19363     19359     19363     19365
     19359     19363     19366     19359     19363     19367     19365     19363     19366
     19365     19363     19367     19366     19363     19367     19363     19367     19369
     19363     19367     19370     19363     19367     19371     19369     19367     19370
     19369     19367     19371     19370     19367     19371     19367     19371     19373
     19367     19371     19374     19367     19371     19375     19373     19371     19374
     19373     19371     19375     19374     19371     19375     19371     19375     19377
     19371     19375     19378     19371     19375     19379     19377     19375     19378
     19377     19375     19379     19378     19375     19379     19375     19379     19381
     19375     19379     19382     19381     19379     19382     19379     19382     19384
     19379     19382     19385     19384     19382     19385     19382     19385     19387
     19382     19385     19388     19382     19385     19389     19387     19385     19388
     19387     19385     19389     19388     19385     19389     19385     19389     19391
     19385     19389     19392     19385     19389     19393     19391     19389     19392
     19391     19389     19393     19392     19389     19393     19389     19393     19395
     19389     19393     19396     19389     19393     19397     19395     19393     19396
     19395     19393     19397     19396     19393     19397     19393     19397     19399
     19393     19397     19400     19393     19397     19401     19399     19397     19400
     19399     19397     19401     19400     19397     19401     19397     19401     19403
     19397     19401     19404     19397     19401     19405     19403     19401     19404
     19403     19401     19405     19404     19401     19405     19401     19405     19407
     19401     19405     19408     19401     19405     19409     19407     19405     19408
     19407     19405     19409     19408     19405     19409     19405     19409     19411
     19405     19409     19412     19405     19409     19413     19411     19409     19412
     19411     19409     19413     19412     19409     19413     19409     19413     19415
     19409     19413     19416     19409     19413     19417     19415     19413     19416
     19415     19413     19417     19416     19413     19417     19347     19418     19420
     19347     19418     19421     19347     19418     19422     19420     19418     19421
     19420     19418     19422     19421     19418     19422     19418     19422     19424
     19418     19422     19425     19418     19422     19426     19424     19422     19425
     19424     19422     19426     19425     19422     19426     19422     19426     19428
     19422     19426     19429     19422     19426     19430     19428     19426     19429
     19428     19426     19430     19429     19426     19430     19426     19430     19432
     19426     19430     19433     19426     19430     19434     19432     19430     19433
     19432     19430     19434     19433     19430     19434     19430     19434     19436
     19430     19434     19437     19430     19434     19438     19436     19434     19437
     19436     19434     19438     19437     19434     19438     19434     19438     19440
     19434     19438     19441     19434     19438     19442     19440     19438     19441
     19440     19438     19442     19441     19438     19442     19438     19442     19444
     19438     19442     19445     19438     19442     19446     19444     19442     19445
     19444     19442     19446     19445     19442     19446     19442     19446     19448
     19442     19446     19449     19442     19446     19450     19448     19446     19449
     19448     19446     19450     19449     19446     19450     19446     19450     19452
     19446     19450     19453     19446     19450     19454     19452     19450     19453
     19452     19450     19454     19453     19450     19454     19450     19454     19456
     19450     19454     19457     19450     19454     19458     19456     19454     19457
     19456     19454     19458     19457     19454     19458     19454     19458     19460
     19454     19458     19461     19454     19458     19462     19460     19458     19461
     19460     19458     19462     19461     19458     19462     19458     19462     19464
     19458     19462     19465     19458     19462     19466     19464     19462     19465
     19464     19462     19466     19465     19462     19466     19462     19466     19468
     19462     19466     19469     19462     19466     19470     19468     19466     19469
     19468     19466     19470     19469     19466     19470     19466     19470     19472
     19466     19470     19473     19466     19470     19474     19472     19470     19473
     19472     19470     19474     19473     19470     19474     19477     19475     19478
     19477     19475     19479     19477     19475     19480     19478     19475     19479
     19478     19475     19480     19479     19475     19480     19475     19480     19482
     19475     19480     19483     19475     19480     19484     19482     19480     19483
     19482     19480     19484     19483     19480     19484     19480     19484     19486
     19480     19484     19487     19480     19484     19496     19486     19484     19487
     19486     19484     19496     19487     19484     19496     19490     19488     19492
     19490     19488     19494     19490     19488     19496     19492     19488     19494
     19492     19488     19496     19494     19488     19496     19488     19494     19498
     19484     19496     19488     19494     19498     19500     19494     19498     19501
     19494     19498     19502     19500     19498     19501     19500     19498     19502
     19501     19498     19502     19498     19502     19504     19498     19502     19505
     19498     19502     19519     19504     19502     19505     19504     19502     19519
     19505     19502     19519     19502     19505     19507     19505     19507     19509
     19505     19507     19511     19509     19507     19511     19507     19511     19513
     19507     19511     19514     19507     19511     19537     19513     19511     19514
     19513     19511     19537     19514     19511     19537     19502     19519     19521
     19502     19519     19522     19502     19519     19523     19521     19519     19522
     19521     19519     19523     19522     19519     19523     19519     19523     19525
     19523     19525     19527     19523     19525     19529     19527     19525     19529
     19525     19529     19531     19525     19529     19532     19525     19529     19600
     19531     19529     19532     19531     19529     19600     19532     19529     19600
     19511     19537     19539     19511     19537     19540     19511     19537     19541
     19539     19537     19540     19539     19537     19541     19540     19537     19541
     19537     19541     19543     19537     19541     19544     19537     19541     19545
     19543     19541     19544     19543     19541     19545     19544     19541     19545
     19541     19545     19547     19541     19545     19548     19541     19545     19549
     19547     19545     19548     19547     19545     19549     19548     19545     19549
     19545     19549     19551     19545     19549     19552     19545     19549     19553
     19551     19549     19552     19551     19549     19553     19552     19549     19553
     19549     19553     19555     19549     19553     19556     19549     19553     19557
     19555     19553     19556     19555     19553     19557     19556     19553     19557
     19553     19557     19559     19553     19557     19560     19553     19557     19561
     19559     19557     19560     19559     19557     19561     19560     19557     19561
     19557     19561     19563     19557     19561     19564     19563     19561     19564
     19561     19564     19566     19561     19564     19567     19566     19564     19567
     19564     19567     19569     19564     19567     19570     19564     19567     19571
     19569     19567     19570     19569     19567     19571     19570     19567     19571
     19567     19571     19573     19567     19571     19574     19567     19571     19575
     19573     19571     19574     19573     19571     19575     19574     19571     19575
     19571     19575     19577     19571     19575     19578     19571     19575     19579
     19577     19575     19578     19577     19575     19579     19578     19575     19579
     19575     19579     19581     19575     19579     19582     19575     19579     19583
     19581     19579     19582     19581     19579     19583     19582     19579     19583
     19579     19583     19585     19579     19583     19586     19579     19583     19587
     19585     19583     19586     19585     19583     19587     19586     19583     19587
     19583     19587     19589     19583     19587     19590     19583     19587     19591
     19589     19587     19590     19589     19587     19591     19590     19587     19591
     19587     19591     19593     19587     19591     19594     19587     19591     19595
     19593     19591     19594     19593     19591     19595     19594     19591     19595
     19591     19595     19597     19591     19595     19598     19591     19595     19599
     19597     19595     19598     19597     19595     19599     19598     19595     19599
     19529     19600     19602     19529     19600     19603     19529     19600     19604
     19602     19600     19603     19602     19600     19604     19603     19600     19604
     19600     19604     19606     19600     19604     19607     19600     19604     19608
     19606     19604     19607     19606     19604     19608     19607     19604     19608
     19604     19608     19610     19604     19608     19611     19604     19608     19612
     19610     19608     19611     19610     19608     19612     19611     19608     19612
     19608     19612     19614     19608     19612     19615     19608     19612     19616
     19614     19612     19615     19614     19612     19616     19615     19612     19616
     19612     19616     19618     19612     19616     19619     19612     19616     19620
     19618     19616     19619     19618     19616     19620     19619     19616     19620
     19616     19620     19622     19616     19620     19623     19616     19620     19624
     19622     19620     19623     19622     19620     19624     19623     19620     19624
     19620     19624     19626     19620     19624     19627     19620     19624     19628
     19626     19624     19627     19626     19624     19628     19627     19624     19628
     19624     19628     19630     19624     19628     19631     19624     19628     19632
     19630     19628     19631     19630     19628     19632     19631     19628     19632
     19628     19632     19634     19628     19632     19635     19628     19632     19636
     19634     19632     19635     19634     19632     19636     19635     19632     19636
     19632     19636     19638     19632     19636     19639     19632     19636     19640
     19638     19636     19639     19638     19636     19640     19639     19636     19640
     19636     19640     19642     19636     19640     19643     19636     19640     19644
     19642     19640     19643     19642     19640     19644     19643     19640     19644
     19640     19644     19646     19640     19644     19647     19640     19644     19648
     19646     19644     19647     19646     19644     19648     19647     19644     19648
     19644     19648     19650     19644     19648     19651     19644     19648     19652
     19650     19648     19651     19650     19648     19652     19651     19648     19652
     19648     19652     19654     19648     19652     19655     19648     19652     19656
     19654     19652     19655     19654     19652     19656     19655     19652     19656
     19659     19657     19660     19659     19657     19661     19659     19657     19662
     19660     19657     19661     19660     19657     19662     19661     19657     19662
     19657     19662     19664     19657     19662     19665     19657     19662     19666
     19664     19662     19665     19664     19662     19666     19665     19662     19666
     19662     19666     19668     19662     19666     19669     19662     19666     19678
     19668     19666     19669     19668     19666     19678     19669     19666     19678
     19672     19670     19674     19672     19670     19676     19672     19670     19678
     19674     19670     19676     19674     19670     19678     19676     19670     19678
     19670     19676     19680     19666     19678     19670     19676     19680     19682
     19676     19680     19683     19676     19680     19684     19682     19680     19683
     19682     19680     19684     19683     19680     19684     19680     19684     19686
     19680     19684     19687     19680     19684     19701     19686     19684     19687
     19686     19684     19701     19687     19684     19701     19684     19687     19689
     19687     19689     19691     19687     19689     19693     19691     19689     19693
     19689     19693     19695     19689     19693     19696     19689     19693     19719
     19695     19693     19696     19695     19693     19719     19696     19693     19719
     19684     19701     19703     19684     19701     19704     19684     19701     19705
     19703     19701     19704     19703     19701     19705     19704     19701     19705
     19701     19705     19707     19705     19707     19709     19705     19707     19711
     19709     19707     19711     19707     19711     19713     19707     19711     19714
     19707     19711     19782     19713     19711     19714     19713     19711     19782
     19714     19711     19782     19693     19719     19721     19693     19719     19722
     19693     19719     19723     19721     19719     19722     19721     19719     19723
     19722     19719     19723     19719     19723     19725     19719     19723     19726
     19719     19723     19727     19725     19723     19726     19725     19723     19727
     19726     19723     19727     19723     19727     19729     19723     19727     19730
     19723     19727     19731     19729     19727     19730     19729     19727     19731
     19730     19727     19731     19727     19731     19733     19727     19731     19734
     19727     19731     19735     19733     19731     19734     19733     19731     19735
     19734     19731     19735     19731     19735     19737     19731     19735     19738
     19731     19735     19739     19737     19735     19738     19737     19735     19739
     19738     19735     19739     19735     19739     19741     19735     19739     19742
     19735     19739     19743     19741     19739     19742     19741     19739     19743
     19742     19739     19743     19739     19743     19745     19739     19743     19746
     19745     19743     19746     19743     19746     19748     19743     19746     19749
     19748     19746     19749     19746     19749     19751     19746     19749     19752
     19746     19749     19753     19751     19749     19752     19751     19749     19753
     19752     19749     19753     19749     19753     19755     19749     19753     19756
     19749     19753     19757     19755     19753     19756     19755     19753     19757
     19756     19753     19757     19753     19757     19759     19753     19757     19760
     19753     19757     19761     19759     19757     19760     19759     19757     19761
     19760     19757     19761     19757     19761     19763     19757     19761     19764
     19757     19761     19765     19763     19761     19764     19763     19761     19765
     19764     19761     19765     19761     19765     19767     19761     19765     19768
     19761     19765     19769     19767     19765     19768     19767     19765     19769
     19768     19765     19769     19765     19769     19771     19765     19769     19772
     19765     19769     19773     19771     19769     19772     19771     19769     19773
     19772     19769     19773     19769     19773     19775     19769     19773     19776
     19769     19773     19777     19775     19773     19776     19775     19773     19777
     19776     19773     19777     19773     19777     19779     19773     19777     19780
     19773     19777     19781     19779     19777     19780     19779     19777     19781
     19780     19777     19781     19711     19782     19784     19711     19782     19785
     19711     19782     19786     19784     19782     19785     19784     19782     19786
     19785     19782     19786     19782     19786     19788     19782     19786     19789
     19782     19786     19790     19788     19786     19789     19788     19786     19790
     19789     19786     19790     19786     19790     19792     19786     19790     19793
     19786     19790     19794     19792     19790     19793     19792     19790     19794
     19793     19790     19794     19790     19794     19796     19790     19794     19797
     19790     19794     19798     19796     19794     19797     19796     19794     19798
     19797     19794     19798     19794     19798     19800     19794     19798     19801
     19794     19798     19802     19800     19798     19801     19800     19798     19802
     19801     19798     19802     19798     19802     19804     19798     19802     19805
     19798     19802     19806     19804     19802     19805     19804     19802     19806
     19805     19802     19806     19802     19806     19808     19802     19806     19809
     19802     19806     19810     19808     19806     19809     19808     19806     19810
     19809     19806     19810     19806     19810     19812     19806     19810     19813
     19806     19810     19814     19812     19810     19813     19812     19810     19814
     19813     19810     19814     19810     19814     19816     19810     19814     19817
     19810     19814     19818     19816     19814     19817     19816     19814     19818
     19817     19814     19818     19814     19818     19820     19814     19818     19821
     19814     19818     19822     19820     19818     19821     19820     19818     19822
     19821     19818     19822     19818     19822     19824     19818     19822     19825
     19818     19822     19826     19824     19822     19825     19824     19822     19826
     19825     19822     19826     19822     19826     19828     19822     19826     19829
     19822     19826     19830     19828     19826     19829     19828     19826     19830
     19829     19826     19830     19826     19830     19832     19826     19830     19833
     19826     19830     19834     19832     19830     19833     19832     19830     19834
     19833     19830     19834     19830     19834     19836     19830     19834     19837
     19830     19834     19838     19836     19834     19837     19836     19834     19838
     19837     19834     19838     19841     19839     19842     19841     19839     19843
     19841     19839     19844     19842     19839     19843     19842     19839     19844
     19843     19839     19844     19839     19844     19846     19839     19844     19847
     19839     19844     19848     19846     19844     19847     19846     19844     19848
     19847     19844     19848     19844     19848     19850     19844     19848     19851
     19844     19848     19860     19850     19848     19851     19850     19848     19860
     19851     19848     19860     19854     19852     19856     19854     19852     19858
     19854     19852     19860     19856     19852     19858     19856     19852     19860
     19858     19852     19860     19852     19858     19862     19848     19860     19852
     19858     19862     19864     19858     19862     19865     19858     19862     19866
     19864     19862     19865     19864     19862     19866     19865     19862     19866
     19862     19866     19868     19862     19866     19869     19862     19866     19883
     19868     19866     19869     19868     19866     19883     19869     19866     19883
     19866     19869     19871     19869     19871     19873     19869     19871     19875
     19873     19871     19875     19871     19875     19877     19871     19875     19878
     19871     19875     19901     19877     19875     19878     19877     19875     19901
     19878     19875     19901     19866     19883     19885     19866     19883     19886
     19866     19883     19887     19885     19883     19886     19885     19883     19887
     19886     19883     19887     19883     19887     19889     19887     19889     19891
     19887     19889     19893     19891     19889     19893     19889     19893     19895
     19889     19893     19896     19889     19893     19964     19895     19893     19896
     19895     19893     19964     19896     19893     19964     19875     19901     19903
     19875     19901     19904     19875     19901     19905     19903     19901     19904
     19903     19901     19905     19904     19901     19905     19901     19905     19907
     19901     19905     19908     19901     19905     19909     19907     19905     19908
     19907     19905     19909     19908     19905     19909     19905     19909     19911
     19905     19909     19912     19905     19909     19913     19911     19909     19912
     19911     19909     19913     19912     19909     19913     19909     19913     19915
     19909     19913     19916     19909     19913     19917     19915     19913     19916
     19915     19913     19917     19916     19913     19917     19913     19917     19919
     19913     19917     19920     19913     19917     19921     19919     19917     19920
     19919     19917     19921     19920     19917     19921     19917     19921     19923
     19917     19921     19924     19917     19921     19925     19923     19921     19924
     19923     19921     19925     19924     19921     19925     19921     19925     19927
     19921     19925     19928     19927     19925     19928     19925     19928     19930
     19925     19928     19931     19930     19928     19931     19928     19931     19933
     19928     19931     19934     19928     19931     19935     19933     19931     19934
     19933     19931     19935     19934     19931     19935     19931     19935     19937
     19931     19935     19938     19931     19935     19939     19937     19935     19938
     19937     19935     19939     19938     19935     19939     19935     19939     19941
     19935     19939     19942     19935     19939     19943     19941     19939     19942
     19941     19939     19943     19942     19939     19943     19939     19943     19945
     19939     19943     19946     19939     19943     19947     19945     19943     19946
     19945     19943     19947     19946     19943     19947     19943     19947     19949
     19943     19947     19950     19943     19947     19951     19949     19947     19950
     19949     19947     19951     19950     19947     19951     19947     19951     19953
     19947     19951     19954     19947     19951     19955     19953     19951     19954
     19953     19951     19955     19954     19951     19955     19951     19955     19957
     19951     19955     19958     19951     19955     19959     19957     19955     19958
     19957     19955     19959     19958     19955     19959     19955     19959     19961
     19955     19959     19962     19955     19959     19963     19961     19959     19962
     19961     19959     19963     19962     19959     19963     19893     19964     19966
     19893     19964     19967     19893     19964     19968     19966     19964     19967
     19966     19964     19968     19967     19964     19968     19964     19968     19970
     19964     19968     19971     19964     19968     19972     19970     19968     19971
     19970     19968     19972     19971     19968     19972     19968     19972     19974
     19968     19972     19975     19968     19972     19976     19974     19972     19975
     19974     19972     19976     19975     19972     19976     19972     19976     19978
     19972     19976     19979     19972     19976     19980     19978     19976     19979
     19978     19976     19980     19979     19976     19980     19976     19980     19982
     19976     19980     19983     19976     19980     19984     19982     19980     19983
     19982     19980     19984     19983     19980     19984     19980     19984     19986
     19980     19984     19987     19980     19984     19988     19986     19984     19987
     19986     19984     19988     19987     19984     19988     19984     19988     19990
     19984     19988     19991     19984     19988     19992     19990     19988     19991
     19990     19988     19992     19991     19988     19992     19988     19992     19994
     19988     19992     19995     19988     19992     19996     19994     19992     19995
     19994     19992     19996     19995     19992     19996     19992     19996     19998
     19992     19996     19999     19992     19996     20000     19998     19996     19999
     19998     19996     20000     19999     19996     20000     19996     20000     20002
     19996     20000     20003     19996     20000     20004     20002     20000     20003
     20002     20000     20004     20003     20000     20004     20000     20004     20006
     20000     20004     20007     20000     20004     20008     20006     20004     20007
     20006     20004     20008     20007     20004     20008     20004     20008     20010
     20004     20008     20011     20004     20008     20012     20010     20008     20011
     20010     20008     20012     20011     20008     20012     20008     20012     20014
     20008     20012     20015     20008     20012     20016     20014     20012     20015
     20014     20012     20016     20015     20012     20016     20012     20016     20018
     20012     20016     20019     20012     20016     20020     20018     20016     20019
     20018     20016     20020     20019     20016     20020     20023     20021     20024
     20023     20021     20025     20023     20021     20026     20024     20021     20025
     20024     20021     20026     20025     20021     20026     20021     20026     20028
     20021     20026     20029     20021     20026     20030     20028     20026     20029
     20028     20026     20030     20029     20026     20030     20026     20030     20032
     20026     20030     20033     20026     20030     20042     20032     20030     20033
     20032     20030     20042     20033     20030     20042     20036     20034     20038
     20036     20034     20040     20036     20034     20042     20038     20034     20040
     20038     20034     20042     20040     20034     20042     20034     20040     20044
     20030     20042     20034     20040     20044     20046     20040     20044     20047
     20040     20044     20048     20046     20044     20047     20046     20044     20048
     20047     20044     20048     20044     20048     20050     20044     20048     20051
     20044     20048     20065     20050     20048     20051     20050     20048     20065
     20051     20048     20065     20048     20051     20053     20051     20053     20055
     20051     20053     20057     20055     20053     20057     20053     20057     20059
     20053     20057     20060     20053     20057     20083     20059     20057     20060
     20059     20057     20083     20060     20057     20083     20048     20065     20067
     20048     20065     20068     20048     20065     20069     20067     20065     20068
     20067     20065     20069     20068     20065     20069     20065     20069     20071
     20069     20071     20073     20069     20071     20075     20073     20071     20075
     20071     20075     20077     20071     20075     20078     20071     20075     20146
     20077     20075     20078     20077     20075     20146     20078     20075     20146
     20057     20083     20085     20057     20083     20086     20057     20083     20087
     20085     20083     20086     20085     20083     20087     20086     20083     20087
     20083     20087     20089     20083     20087     20090     20083     20087     20091
     20089     20087     20090     20089     20087     20091     20090     20087     20091
     20087     20091     20093     20087     20091     20094     20087     20091     20095
     20093     20091     20094     20093     20091     20095     20094     20091     20095
     20091     20095     20097     20091     20095     20098     20091     20095     20099
     20097     20095     20098     20097     20095     20099     20098     20095     20099
     20095     20099     20101     20095     20099     20102     20095     20099     20103
     20101     20099     20102     20101     20099     20103     20102     20099     20103
     20099     20103     20105     20099     20103     20106     20099     20103     20107
     20105     20103     20106     20105     20103     20107     20106     20103     20107
     20103     20107     20109     20103     20107     20110     20109     20107     20110
     20107     20110     20112     20107     20110     20113     20112     20110     20113
     20110     20113     20115     20110     20113     20116     20110     20113     20117
     20115     20113     20116     20115     20113     20117     20116     20113     20117
     20113     20117     20119     20113     20117     20120     20113     20117     20121
     20119     20117     20120     20119     20117     20121     20120     20117     20121
     20117     20121     20123     20117     20121     20124     20117     20121     20125
     20123     20121     20124     20123     20121     20125     20124     20121     20125
     20121     20125     20127     20121     20125     20128     20121     20125     20129
     20127     20125     20128     20127     20125     20129     20128     20125     20129
     20125     20129     20131     20125     20129     20132     20125     20129     20133
     20131     20129     20132     20131     20129     20133     20132     20129     20133
     20129     20133     20135     20129     20133     20136     20129     20133     20137
     20135     20133     20136     20135     20133     20137     20136     20133     20137
     20133     20137     20139     20133     20137     20140     20133     20137     20141
     20139     20137     20140     20139     20137     20141     20140     20137     20141
     20137     20141     20143     20137     20141     20144     20137     20141     20145
     20143     20141     20144     20143     20141     20145     20144     20141     20145
     20075     20146     20148     20075     20146     20149     20075     20146     20150
     20148     20146     20149     20148     20146     20150     20149     20146     20150
     20146     20150     20152     20146     20150     20153     20146     20150     20154
     20152     20150     20153     20152     20150     20154     20153     20150     20154
     20150     20154     20156     20150     20154     20157     20150     20154     20158
     20156     20154     20157     20156     20154     20158     20157     20154     20158
     20154     20158     20160     20154     20158     20161     20154     20158     20162
     20160     20158     20161     20160     20158     20162     20161     20158     20162
     20158     20162     20164     20158     20162     20165     20158     20162     20166
     20164     20162     20165     20164     20162     20166     20165     20162     20166
     20162     20166     20168     20162     20166     20169     20162     20166     20170
     20168     20166     20169     20168     20166     20170     20169     20166     20170
     20166     20170     20172     20166     20170     20173     20166     20170     20174
     20172     20170     20173     20172     20170     20174     20173     20170     20174
     20170     20174     20176     20170     20174     20177     20170     20174     20178
     20176     20174     20177     20176     20174     20178     20177     20174     20178
     20174     20178     20180     20174     20178     20181     20174     20178     20182
     20180     20178     20181     20180     20178     20182     20181     20178     20182
     20178     20182     20184     20178     20182     20185     20178     20182     20186
     20184     20182     20185     20184     20182     20186     20185     20182     20186
     20182     20186     20188     20182     20186     20189     20182     20186     20190
     20188     20186     20189     20188     20186     20190     20189     20186     20190
     20186     20190     20192     20186     20190     20193     20186     20190     20194
     20192     20190     20193     20192     20190     20194     20193     20190     20194
     20190     20194     20196     20190     20194     20197     20190     20194     20198
     20196     20194     20197     20196     20194     20198     20197     20194     20198
     20194     20198     20200     20194     20198     20201     20194     20198     20202
     20200     20198     20201     20200     20198     20202     20201     20198     20202
     20205     20203     20206     20205     20203     20207     20205     20203     20208
     20206     20203     20207     20206     20203     20208     20207     20203     20208
     20203     20208     20210     20203     20208     20211     20203     20208     20212
     20210     20208     20211     20210     20208     20212     20211     20208     20212
     20208     20212     20214     20208     20212     20215     20208     20212     20224
     20214     20212     20215     20214     20212     20224     20215     20212     20224
     20218     20216     20220     20218     20216     20222     20218     20216     20224
     20220     20216     20222     20220     20216     20224     20222     20216     20224
     20216     20222     20226     20212     20224     20216     20222     20226     20228
     20222     20226     20229     20222     20226     20230     20228     20226     20229
     20228     20226     20230     20229     20226     20230     20226     20230     20232
     20226     20230     20233     20226     20230     20247     20232     20230     20233
     20232     20230     20247     20233     20230     20247     20230     20233     20235
     20233     20235     20237     20233     20235     20239     20237     20235     20239
     20235     20239     20241     20235     20239     20242     20235     20239     20265
     20241     20239     20242     20241     20239     20265     20242     20239     20265
     20230     20247     20249     20230     20247     20250     20230     20247     20251
     20249     20247     20250     20249     20247     20251     20250     20247     20251
     20247     20251     20253     20251     20253     20255     20251     20253     20257
     20255     20253     20257     20253     20257     20259     20253     20257     20260
     20253     20257     20328     20259     20257     20260     20259     20257     20328
     20260     20257     20328     20239     20265     20267     20239     20265     20268
     20239     20265     20269     20267     20265     20268     20267     20265     20269
     20268     20265     20269     20265     20269     20271     20265     20269     20272
     20265     20269     20273     20271     20269     20272     20271     20269     20273
     20272     20269     20273     20269     20273     20275     20269     20273     20276
     20269     20273     20277     20275     20273     20276     20275     20273     20277
     20276     20273     20277     20273     20277     20279     20273     20277     20280
     20273     20277     20281     20279     20277     20280     20279     20277     20281
     20280     20277     20281     20277     20281     20283     20277     20281     20284
     20277     20281     20285     20283     20281     20284     20283     20281     20285
     20284     20281     20285     20281     20285     20287     20281     20285     20288
     20281     20285     20289     20287     20285     20288     20287     20285     20289
     20288     20285     20289     20285     20289     20291     20285     20289     20292
     20291     20289     20292     20289     20292     20294     20289     20292     20295
     20294     20292     20295     20292     20295     20297     20292     20295     20298
     20292     20295     20299     20297     20295     20298     20297     20295     20299
     20298     20295     20299     20295     20299     20301     20295     20299     20302
     20295     20299     20303     20301     20299     20302     20301     20299     20303
     20302     20299     20303     20299     20303     20305     20299     20303     20306
     20299     20303     20307     20305     20303     20306     20305     20303     20307
     20306     20303     20307     20303     20307     20309     20303     20307     20310
     20303     20307     20311     20309     20307     20310     20309     20307     20311
     20310     20307     20311     20307     20311     20313     20307     20311     20314
     20307     20311     20315     20313     20311     20314     20313     20311     20315
     20314     20311     20315     20311     20315     20317     20311     20315     20318
     20311     20315     20319     20317     20315     20318     20317     20315     20319
     20318     20315     20319     20315     20319     20321     20315     20319     20322
     20315     20319     20323     20321     20319     20322     20321     20319     20323
     20322     20319     20323     20319     20323     20325     20319     20323     20326
     20319     20323     20327     20325     20323     20326     20325     20323     20327
     20326     20323     20327     20257     20328     20330     20257     20328     20331
     20257     20328     20332     20330     20328     20331     20330     20328     20332
     20331     20328     20332     20328     20332     20334     20328     20332     20335
     20328     20332     20336     20334     20332     20335     20334     20332     20336
     20335     20332     20336     20332     20336     20338     20332     20336     20339
     20332     20336     20340     20338     20336     20339     20338     20336     20340
     20339     20336     20340     20336     20340     20342     20336     20340     20343
     20336     20340     20344     20342     20340     20343     20342     20340     20344
     20343     20340     20344     20340     20344     20346     20340     20344     20347
     20340     20344     20348     20346     20344     20347     20346     20344     20348
     20347     20344     20348     20344     20348     20350     20344     20348     20351
     20344     20348     20352     20350     20348     20351     20350     20348     20352
     20351     20348     20352     20348     20352     20354     20348     20352     20355
     20348     20352     20356     20354     20352     20355     20354     20352     20356
     20355     20352     20356     20352     20356     20358     20352     20356     20359
     20352     20356     20360     20358     20356     20359     20358     20356     20360
     20359     20356     20360     20356     20360     20362     20356     20360     20363
     20356     20360     20364     20362     20360     20363     20362     20360     20364
     20363     20360     20364     20360     20364     20366     20360     20364     20367
     20360     20364     20368     20366     20364     20367     20366     20364     20368
     20367     20364     20368     20364     20368     20370     20364     20368     20371
     20364     20368     20372     20370     20368     20371     20370     20368     20372
     20371     20368     20372     20368     20372     20374     20368     20372     20375
     20368     20372     20376     20374     20372     20375     20374     20372     20376
     20375     20372     20376     20372     20376     20378     20372     20376     20379
     20372     20376     20380     20378     20376     20379     20378     20376     20380
     20379     20376     20380     20376     20380     20382     20376     20380     20383
     20376     20380     20384     20382     20380     20383     20382     20380     20384
     20383     20380     20384     20387     20385     20388     20387     20385     20389
     20387     20385     20390     20388     20385     20389     20388     20385     20390
     20389     20385     20390     20385     20390     20392     20385     20390     20393
     20385     20390     20394     20392     20390     20393     20392     20390     20394
     20393     20390     20394     20390     20394     20396     20390     20394     20397
     20390     20394     20406     20396     20394     20397     20396     20394     20406
     20397     20394     20406     20400     20398     20402     20400     20398     20404
     20400     20398     20406     20402     20398     20404     20402     20398     20406
     20404     20398     20406     20398     20404     20408     20394     20406     20398
     20404     20408     20410     20404     20408     20411     20404     20408     20412
     20410     20408     20411     20410     20408     20412     20411     20408     20412
     20408     20412     20414     20408     20412     20415     20408     20412     20429
     20414     20412     20415     20414     20412     20429     20415     20412     20429
     20412     20415     20417     20415     20417     20419     20415     20417     20421
     20419     20417     20421     20417     20421     20423     20417     20421     20424
     20417     20421     20447     20423     20421     20424     20423     20421     20447
     20424     20421     20447     20412     20429     20431     20412     20429     20432
     20412     20429     20433     20431     20429     20432     20431     20429     20433
     20432     20429     20433     20429     20433     20435     20433     20435     20437
     20433     20435     20439     20437     20435     20439     20435     20439     20441
     20435     20439     20442     20435     20439     20510     20441     20439     20442
     20441     20439     20510     20442     20439     20510     20421     20447     20449
     20421     20447     20450     20421     20447     20451     20449     20447     20450
     20449     20447     20451     20450     20447     20451     20447     20451     20453
     20447     20451     20454     20447     20451     20455     20453     20451     20454
     20453     20451     20455     20454     20451     20455     20451     20455     20457
     20451     20455     20458     20451     20455     20459     20457     20455     20458
     20457     20455     20459     20458     20455     20459     20455     20459     20461
     20455     20459     20462     20455     20459     20463     20461     20459     20462
     20461     20459     20463     20462     20459     20463     20459     20463     20465
     20459     20463     20466     20459     20463     20467     20465     20463     20466
     20465     20463     20467     20466     20463     20467     20463     20467     20469
     20463     20467     20470     20463     20467     20471     20469     20467     20470
     20469     20467     20471     20470     20467     20471     20467     20471     20473
     20467     20471     20474     20473     20471     20474     20471     20474     20476
     20471     20474     20477     20476     20474     20477     20474     20477     20479
     20474     20477     20480     20474     20477     20481     20479     20477     20480
     20479     20477     20481     20480     20477     20481     20477     20481     20483
     20477     20481     20484     20477     20481     20485     20483     20481     20484
     20483     20481     20485     20484     20481     20485     20481     20485     20487
     20481     20485     20488     20481     20485     20489     20487     20485     20488
     20487     20485     20489     20488     20485     20489     20485     20489     20491
     20485     20489     20492     20485     20489     20493     20491     20489     20492
     20491     20489     20493     20492     20489     20493     20489     20493     20495
     20489     20493     20496     20489     20493     20497     20495     20493     20496
     20495     20493     20497     20496     20493     20497     20493     20497     20499
     20493     20497     20500     20493     20497     20501     20499     20497     20500
     20499     20497     20501     20500     20497     20501     20497     20501     20503
     20497     20501     20504     20497     20501     20505     20503     20501     20504
     20503     20501     20505     20504     20501     20505     20501     20505     20507
     20501     20505     20508     20501     20505     20509     20507     20505     20508
     20507     20505     20509     20508     20505     20509     20439     20510     20512
     20439     20510     20513     20439     20510     20514     20512     20510     20513
     20512     20510     20514     20513     20510     20514     20510     20514     20516
     20510     20514     20517     20510     20514     20518     20516     20514     20517
     20516     20514     20518     20517     20514     20518     20514     20518     20520
     20514     20518     20521     20514     20518     20522     20520     20518     20521
     20520     20518     20522     20521     20518     20522     20518     20522     20524
     20518     20522     20525     20518     20522     20526     20524     20522     20525
     20524     20522     20526     20525     20522     20526     20522     20526     20528
     20522     20526     20529     20522     20526     20530     20528     20526     20529
     20528     20526     20530     20529     20526     20530     20526     20530     20532
     20526     20530     20533     20526     20530     20534     20532     20530     20533
     20532     20530     20534     20533     20530     20534     20530     20534     20536
     20530     20534     20537     20530     20534     20538     20536     20534     20537
     20536     20534     20538     20537     20534     20538     20534     20538     20540
     20534     20538     20541     20534     20538     20542     20540     20538     20541
     20540     20538     20542     20541     20538     20542     20538     20542     20544
     20538     20542     20545     20538     20542     20546     20544     20542     20545
     20544     20542     20546     20545     20542     20546     20542     20546     20548
     20542     20546     20549     20542     20546     20550     20548     20546     20549
     20548     20546     20550     20549     20546     20550     20546     20550     20552
     20546     20550     20553     20546     20550     20554     20552     20550     20553
     20552     20550     20554     20553     20550     20554     20550     20554     20556
     20550     20554     20557     20550     20554     20558     20556     20554     20557
     20556     20554     20558     20557     20554     20558     20554     20558     20560
     20554     20558     20561     20554     20558     20562     20560     20558     20561
     20560     20558     20562     20561     20558     20562     20558     20562     20564
     20558     20562     20565     20558     20562     20566     20564     20562     20565
     20564     20562     20566     20565     20562     20566     20569     20567     20570
     20569     20567     20571     20569     20567     20572     20570     20567     20571
     20570     20567     20572     20571     20567     20572     20567     20572     20574
     20567     20572     20575     20567     20572     20576     20574     20572     20575
     20574     20572     20576     20575     20572     20576     20572     20576     20578
     20572     20576     20579     20572     20576     20588     20578     20576     20579
     20578     20576     20588     20579     20576     20588     20582     20580     20584
     20582     20580     20586     20582     20580     20588     20584     20580     20586
     20584     20580     20588     20586     20580     20588     20580     20586     20590
     20576     20588     20580     20586     20590     20592     20586     20590     20593
     20586     20590     20594     20592     20590     20593     20592     20590     20594
     20593     20590     20594     20590     20594     20596     20590     20594     20597
     20590     20594     20611     20596     20594     20597     20596     20594     20611
     20597     20594     20611     20594     20597     20599     20597     20599     20601
     20597     20599     20603     20601     20599     20603     20599     20603     20605
     20599     20603     20606     20599     20603     20629     20605     20603     20606
     20605     20603     20629     20606     20603     20629     20594     20611     20613
     20594     20611     20614     20594     20611     20615     20613     20611     20614
     20613     20611     20615     20614     20611     20615     20611     20615     20617
     20615     20617     20619     20615     20617     20621     20619     20617     20621
     20617     20621     20623     20617     20621     20624     20617     20621     20692
     20623     20621     20624     20623     20621     20692     20624     20621     20692
     20603     20629     20631     20603     20629     20632     20603     20629     20633
     20631     20629     20632     20631     20629     20633     20632     20629     20633
     20629     20633     20635     20629     20633     20636     20629     20633     20637
     20635     20633     20636     20635     20633     20637     20636     20633     20637
     20633     20637     20639     20633     20637     20640     20633     20637     20641
     20639     20637     20640     20639     20637     20641     20640     20637     20641
     20637     20641     20643     20637     20641     20644     20637     20641     20645
     20643     20641     20644     20643     20641     20645     20644     20641     20645
     20641     20645     20647     20641     20645     20648     20641     20645     20649
     20647     20645     20648     20647     20645     20649     20648     20645     20649
     20645     20649     20651     20645     20649     20652     20645     20649     20653
     20651     20649     20652     20651     20649     20653     20652     20649     20653
     20649     20653     20655     20649     20653     20656     20655     20653     20656
     20653     20656     20658     20653     20656     20659     20658     20656     20659
     20656     20659     20661     20656     20659     20662     20656     20659     20663
     20661     20659     20662     20661     20659     20663     20662     20659     20663
     20659     20663     20665     20659     20663     20666     20659     20663     20667
     20665     20663     20666     20665     20663     20667     20666     20663     20667
     20663     20667     20669     20663     20667     20670     20663     20667     20671
     20669     20667     20670     20669     20667     20671     20670     20667     20671
     20667     20671     20673     20667     20671     20674     20667     20671     20675
     20673     20671     20674     20673     20671     20675     20674     20671     20675
     20671     20675     20677     20671     20675     20678     20671     20675     20679
     20677     20675     20678     20677     20675     20679     20678     20675     20679
     20675     20679     20681     20675     20679     20682     20675     20679     20683
     20681     20679     20682     20681     20679     20683     20682     20679     20683
     20679     20683     20685     20679     20683     20686     20679     20683     20687
     20685     20683     20686     20685     20683     20687     20686     20683     20687
     20683     20687     20689     20683     20687     20690     20683     20687     20691
     20689     20687     20690     20689     20687     20691     20690     20687     20691
     20621     20692     20694     20621     20692     20695     20621     20692     20696
     20694     20692     20695     20694     20692     20696     20695     20692     20696
     20692     20696     20698     20692     20696     20699     20692     20696     20700
     20698     20696     20699     20698     20696     20700     20699     20696     20700
     20696     20700     20702     20696     20700     20703     20696     20700     20704
     20702     20700     20703     20702     20700     20704     20703     20700     20704
     20700     20704     20706     20700     20704     20707     20700     20704     20708
     20706     20704     20707     20706     20704     20708     20707     20704     20708
     20704     20708     20710     20704     20708     20711     20704     20708     20712
     20710     20708     20711     20710     20708     20712     20711     20708     20712
     20708     20712     20714     20708     20712     20715     20708     20712     20716
     20714     20712     20715     20714     20712     20716     20715     20712     20716
     20712     20716     20718     20712     20716     20719     20712     20716     20720
     20718     20716     20719     20718     20716     20720     20719     20716     20720
     20716     20720     20722     20716     20720     20723     20716     20720     20724
     20722     20720     20723     20722     20720     20724     20723     20720     20724
     20720     20724     20726     20720     20724     20727     20720     20724     20728
     20726     20724     20727     20726     20724     20728     20727     20724     20728
     20724     20728     20730     20724     20728     20731     20724     20728     20732
     20730     20728     20731     20730     20728     20732     20731     20728     20732
     20728     20732     20734     20728     20732     20735     20728     20732     20736
     20734     20732     20735     20734     20732     20736     20735     20732     20736
     20732     20736     20738     20732     20736     20739     20732     20736     20740
     20738     20736     20739     20738     20736     20740     20739     20736     20740
     20736     20740     20742     20736     20740     20743     20736     20740     20744
     20742     20740     20743     20742     20740     20744     20743     20740     20744
     20740     20744     20746     20740     20744     20747     20740     20744     20748
     20746     20744     20747     20746     20744     20748     20747     20744     20748
     20751     20749     20752     20751     20749     20753     20751     20749     20754
     20752     20749     20753     20752     20749     20754     20753     20749     20754
     20749     20754     20756     20749     20754     20757     20749     20754     20758
     20756     20754     20757     20756     20754     20758     20757     20754     20758
     20754     20758     20760     20754     20758     20761     20754     20758     20770
     20760     20758     20761     20760     20758     20770     20761     20758     20770
     20764     20762     20766     20764     20762     20768     20764     20762     20770
     20766     20762     20768     20766     20762     20770     20768     20762     20770
     20762     20768     20772     20758     20770     20762     20768     20772     20774
     20768     20772     20775     20768     20772     20776     20774     20772     20775
     20774     20772     20776     20775     20772     20776     20772     20776     20778
     20772     20776     20779     20772     20776     20793     20778     20776     20779
     20778     20776     20793     20779     20776     20793     20776     20779     20781
     20779     20781     20783     20779     20781     20785     20783     20781     20785
     20781     20785     20787     20781     20785     20788     20781     20785     20811
     20787     20785     20788     20787     20785     20811     20788     20785     20811
     20776     20793     20795     20776     20793     20796     20776     20793     20797
     20795     20793     20796     20795     20793     20797     20796     20793     20797
     20793     20797     20799     20797     20799     20801     20797     20799     20803
     20801     20799     20803     20799     20803     20805     20799     20803     20806
     20799     20803     20874     20805     20803     20806     20805     20803     20874
     20806     20803     20874     20785     20811     20813     20785     20811     20814
     20785     20811     20815     20813     20811     20814     20813     20811     20815
     20814     20811     20815     20811     20815     20817     20811     20815     20818
     20811     20815     20819     20817     20815     20818     20817     20815     20819
     20818     20815     20819     20815     20819     20821     20815     20819     20822
     20815     20819     20823     20821     20819     20822     20821     20819     20823
     20822     20819     20823     20819     20823     20825     20819     20823     20826
     20819     20823     20827     20825     20823     20826     20825     20823     20827
     20826     20823     20827     20823     20827     20829     20823     20827     20830
     20823     20827     20831     20829     20827     20830     20829     20827     20831
     20830     20827     20831     20827     20831     20833     20827     20831     20834
     20827     20831     20835     20833     20831     20834     20833     20831     20835
     20834     20831     20835     20831     20835     20837     20831     20835     20838
     20837     20835     20838     20835     20838     20840     20835     20838     20841
     20840     20838     20841     20838     20841     20843     20838     20841     20844
     20838     20841     20845     20843     20841     20844     20843     20841     20845
     20844     20841     20845     20841     20845     20847     20841     20845     20848
     20841     20845     20849     20847     20845     20848     20847     20845     20849
     20848     20845     20849     20845     20849     20851     20845     20849     20852
     20845     20849     20853     20851     20849     20852     20851     20849     20853
     20852     20849     20853     20849     20853     20855     20849     20853     20856
     20849     20853     20857     20855     20853     20856     20855     20853     20857
     20856     20853     20857     20853     20857     20859     20853     20857     20860
     20853     20857     20861     20859     20857     20860     20859     20857     20861
     20860     20857     20861     20857     20861     20863     20857     20861     20864
     20857     20861     20865     20863     20861     20864     20863     20861     20865
     20864     20861     20865     20861     20865     20867     20861     20865     20868
     20861     20865     20869     20867     20865     20868     20867     20865     20869
     20868     20865     20869     20865     20869     20871     20865     20869     20872
     20865     20869     20873     20871     20869     20872     20871     20869     20873
     20872     20869     20873     20803     20874     20876     20803     20874     20877
     20803     20874     20878     20876     20874     20877     20876     20874     20878
     20877     20874     20878     20874     20878     20880     20874     20878     20881
     20874     20878     20882     20880     20878     20881     20880     20878     20882
     20881     20878     20882     20878     20882     20884     20878     20882     20885
     20878     20882     20886     20884     20882     20885     20884     20882     20886
     20885     20882     20886     20882     20886     20888     20882     20886     20889
     20882     20886     20890     20888     20886     20889     20888     20886     20890
     20889     20886     20890     20886     20890     20892     20886     20890     20893
     20886     20890     20894     20892     20890     20893     20892     20890     20894
     20893     20890     20894     20890     20894     20896     20890     20894     20897
     20890     20894     20898     20896     20894     20897     20896     20894     20898
     20897     20894     20898     20894     20898     20900     20894     20898     20901
     20894     20898     20902     20900     20898     20901     20900     20898     20902
     20901     20898     20902     20898     20902     20904     20898     20902     20905
     20898     20902     20906     20904     20902     20905     20904     20902     20906
     20905     20902     20906     20902     20906     20908     20902     20906     20909
     20902     20906     20910     20908     20906     20909     20908     20906     20910
     20909     20906     20910     20906     20910     20912     20906     20910     20913
     20906     20910     20914     20912     20910     20913     20912     20910     20914
     20913     20910     20914     20910     20914     20916     20910     20914     20917
     20910     20914     20918     20916     20914     20917     20916     20914     20918
     20917     20914     20918     20914     20918     20920     20914     20918     20921
     20914     20918     20922     20920     20918     20921     20920     20918     20922
     20921     20918     20922     20918     20922     20924     20918     20922     20925
     20918     20922     20926     20924     20922     20925     20924     20922     20926
     20925     20922     20926     20922     20926     20928     20922     20926     20929
     20922     20926     20930     20928     20926     20929     20928     20926     20930
     20929     20926     20930     20933     20931     20934     20933     20931     20935
     20933     20931     20936     20934     20931     20935     20934     20931     20936
     20935     20931     20936     20931     20936     20938     20931     20936     20939
     20931     20936     20940     20938     20936     20939     20938     20936     20940
     20939     20936     20940     20936     20940     20942     20936     20940     20943
     20936     20940     20952     20942     20940     20943     20942     20940     20952
     20943     20940     20952     20946     20944     20948     20946     20944     20950
     20946     20944     20952     20948     20944     20950     20948     20944     20952
     20950     20944     20952     20944     20950     20954     20940     20952     20944
     20950     20954     20956     20950     20954     20957     20950     20954     20958
     20956     20954     20957     20956     20954     20958     20957     20954     20958
     20954     20958     20960     20954     20958     20961     20954     20958     20975
     20960     20958     20961     20960     20958     20975     20961     20958     20975
     20958     20961     20963     20961     20963     20965     20961     20963     20967
     20965     20963     20967     20963     20967     20969     20963     20967     20970
     20963     20967     20993     20969     20967     20970     20969     20967     20993
     20970     20967     20993     20958     20975     20977     20958     20975     20978
     20958     20975     20979     20977     20975     20978     20977     20975     20979
     20978     20975     20979     20975     20979     20981     20979     20981     20983
     20979     20981     20985     20983     20981     20985     20981     20985     20987
     20981     20985     20988     20981     20985     21056     20987     20985     20988
     20987     20985     21056     20988     20985     21056     20967     20993     20995
     20967     20993     20996     20967     20993     20997     20995     20993     20996
     20995     20993     20997     20996     20993     20997     20993     20997     20999
     20993     20997     21000     20993     20997     21001     20999     20997     21000
     20999     20997     21001     21000     20997     21001     20997     21001     21003
     20997     21001     21004     20997     21001     21005     21003     21001     21004
     21003     21001     21005     21004     21001     21005     21001     21005     21007
     21001     21005     21008     21001     21005     21009     21007     21005     21008
     21007     21005     21009     21008     21005     21009     21005     21009     21011
     21005     21009     21012     21005     21009     21013     21011     21009     21012
     21011     21009     21013     21012     21009     21013     21009     21013     21015
     21009     21013     21016     21009     21013     21017     21015     21013     21016
     21015     21013     21017     21016     21013     21017     21013     21017     21019
     21013     21017     21020     21019     21017     21020     21017     21020     21022
     21017     21020     21023     21022     21020     21023     21020     21023     21025
     21020     21023     21026     21020     21023     21027     21025     21023     21026
     21025     21023     21027     21026     21023     21027     21023     21027     21029
     21023     21027     21030     21023     21027     21031     21029     21027     21030
     21029     21027     21031     21030     21027     21031     21027     21031     21033
     21027     21031     21034     21027     21031     21035     21033     21031     21034
     21033     21031     21035     21034     21031     21035     21031     21035     21037
     21031     21035     21038     21031     21035     21039     21037     21035     21038
     21037     21035     21039     21038     21035     21039     21035     21039     21041
     21035     21039     21042     21035     21039     21043     21041     21039     21042
     21041     21039     21043     21042     21039     21043     21039     21043     21045
     21039     21043     21046     21039     21043     21047     21045     21043     21046
     21045     21043     21047     21046     21043     21047     21043     21047     21049
     21043     21047     21050     21043     21047     21051     21049     21047     21050
     21049     21047     21051     21050     21047     21051     21047     21051     21053
     21047     21051     21054     21047     21051     21055     21053     21051     21054
     21053     21051     21055     21054     21051     21055     20985     21056     21058
     20985     21056     21059     20985     21056     21060     21058     21056     21059
     21058     21056     21060     21059     21056     21060     21056     21060     21062
     21056     21060     21063     21056     21060     21064     21062     21060     21063
     21062     21060     21064     21063     21060     21064     21060     21064     21066
     21060     21064     21067     21060     21064     21068     21066     21064     21067
     21066     21064     21068     21067     21064     21068     21064     21068     21070
     21064     21068     21071     21064     21068     21072     21070     21068     21071
     21070     21068     21072     21071     21068     21072     21068     21072     21074
     21068     21072     21075     21068     21072     21076     21074     21072     21075
     21074     21072     21076     21075     21072     21076     21072     21076     21078
     21072     21076     21079     21072     21076     21080     21078     21076     21079
     21078     21076     21080     21079     21076     21080     21076     21080     21082
     21076     21080     21083     21076     21080     21084     21082     21080     21083
     21082     21080     21084     21083     21080     21084     21080     21084     21086
     21080     21084     21087     21080     21084     21088     21086     21084     21087
     21086     21084     21088     21087     21084     21088     21084     21088     21090
     21084     21088     21091     21084     21088     21092     21090     21088     21091
     21090     21088     21092     21091     21088     21092     21088     21092     21094
     21088     21092     21095     21088     21092     21096     21094     21092     21095
     21094     21092     21096     21095     21092     21096     21092     21096     21098
     21092     21096     21099     21092     21096     21100     21098     21096     21099
     21098     21096     21100     21099     21096     21100     21096     21100     21102
     21096     21100     21103     21096     21100     21104     21102     21100     21103
     21102     21100     21104     21103     21100     21104     21100     21104     21106
     21100     21104     21107     21100     21104     21108     21106     21104     21107
     21106     21104     21108     21107     21104     21108     21104     21108     21110
     21104     21108     21111     21104     21108     21112     21110     21108     21111
     21110     21108     21112     21111     21108     21112     21115     21113     21116
     21115     21113     21117     21115     21113     21118     21116     21113     21117
     21116     21113     21118     21117     21113     21118     21113     21118     21120
     21113     21118     21121     21113     21118     21122     21120     21118     21121
     21120     21118     21122     21121     21118     21122     21118     21122     21124
     21118     21122     21125     21118     21122     21134     21124     21122     21125
     21124     21122     21134     21125     21122     21134     21128     21126     21130
     21128     21126     21132     21128     21126     21134     21130     21126     21132
     21130     21126     21134     21132     21126     21134     21126     21132     21136
     21122     21134     21126     21132     21136     21138     21132     21136     21139
     21132     21136     21140     21138     21136     21139     21138     21136     21140
     21139     21136     21140     21136     21140     21142     21136     21140     21143
     21136     21140     21157     21142     21140     21143     21142     21140     21157
     21143     21140     21157     21140     21143     21145     21143     21145     21147
     21143     21145     21149     21147     21145     21149     21145     21149     21151
     21145     21149     21152     21145     21149     21175     21151     21149     21152
     21151     21149     21175     21152     21149     21175     21140     21157     21159
     21140     21157     21160     21140     21157     21161     21159     21157     21160
     21159     21157     21161     21160     21157     21161     21157     21161     21163
     21161     21163     21165     21161     21163     21167     21165     21163     21167
     21163     21167     21169     21163     21167     21170     21163     21167     21238
     21169     21167     21170     21169     21167     21238     21170     21167     21238
     21149     21175     21177     21149     21175     21178     21149     21175     21179
     21177     21175     21178     21177     21175     21179     21178     21175     21179
     21175     21179     21181     21175     21179     21182     21175     21179     21183
     21181     21179     21182     21181     21179     21183     21182     21179     21183
     21179     21183     21185     21179     21183     21186     21179     21183     21187
     21185     21183     21186     21185     21183     21187     21186     21183     21187
     21183     21187     21189     21183     21187     21190     21183     21187     21191
     21189     21187     21190     21189     21187     21191     21190     21187     21191
     21187     21191     21193     21187     21191     21194     21187     21191     21195
     21193     21191     21194     21193     21191     21195     21194     21191     21195
     21191     21195     21197     21191     21195     21198     21191     21195     21199
     21197     21195     21198     21197     21195     21199     21198     21195     21199
     21195     21199     21201     21195     21199     21202     21201     21199     21202
     21199     21202     21204     21199     21202     21205     21204     21202     21205
     21202     21205     21207     21202     21205     21208     21202     21205     21209
     21207     21205     21208     21207     21205     21209     21208     21205     21209
     21205     21209     21211     21205     21209     21212     21205     21209     21213
     21211     21209     21212     21211     21209     21213     21212     21209     21213
     21209     21213     21215     21209     21213     21216     21209     21213     21217
     21215     21213     21216     21215     21213     21217     21216     21213     21217
     21213     21217     21219     21213     21217     21220     21213     21217     21221
     21219     21217     21220     21219     21217     21221     21220     21217     21221
     21217     21221     21223     21217     21221     21224     21217     21221     21225
     21223     21221     21224     21223     21221     21225     21224     21221     21225
     21221     21225     21227     21221     21225     21228     21221     21225     21229
     21227     21225     21228     21227     21225     21229     21228     21225     21229
     21225     21229     21231     21225     21229     21232     21225     21229     21233
     21231     21229     21232     21231     21229     21233     21232     21229     21233
     21229     21233     21235     21229     21233     21236     21229     21233     21237
     21235     21233     21236     21235     21233     21237     21236     21233     21237
     21167     21238     21240     21167     21238     21241     21167     21238     21242
     21240     21238     21241     21240     21238     21242     21241     21238     21242
     21238     21242     21244     21238     21242     21245     21238     21242     21246
     21244     21242     21245     21244     21242     21246     21245     21242     21246
     21242     21246     21248     21242     21246     21249     21242     21246     21250
     21248     21246     21249     21248     21246     21250     21249     21246     21250
     21246     21250     21252     21246     21250     21253     21246     21250     21254
     21252     21250     21253     21252     21250     21254     21253     21250     21254
     21250     21254     21256     21250     21254     21257     21250     21254     21258
     21256     21254     21257     21256     21254     21258     21257     21254     21258
     21254     21258     21260     21254     21258     21261     21254     21258     21262
     21260     21258     21261     21260     21258     21262     21261     21258     21262
     21258     21262     21264     21258     21262     21265     21258     21262     21266
     21264     21262     21265     21264     21262     21266     21265     21262     21266
     21262     21266     21268     21262     21266     21269     21262     21266     21270
     21268     21266     21269     21268     21266     21270     21269     21266     21270
     21266     21270     21272     21266     21270     21273     21266     21270     21274
     21272     21270     21273     21272     21270     21274     21273     21270     21274
     21270     21274     21276     21270     21274     21277     21270     21274     21278
     21276     21274     21277     21276     21274     21278     21277     21274     21278
     21274     21278     21280     21274     21278     21281     21274     21278     21282
     21280     21278     21281     21280     21278     21282     21281     21278     21282
     21278     21282     21284     21278     21282     21285     21278     21282     21286
     21284     21282     21285     21284     21282     21286     21285     21282     21286
     21282     21286     21288     21282     21286     21289     21282     21286     21290
     21288     21286     21289     21288     21286     21290     21289     21286     21290
     21286     21290     21292     21286     21290     21293     21286     21290     21294
     21292     21290     21293     21292     21290     21294     21293     21290     21294
     21297     21295     21298     21297     21295     21299     21297     21295     21300
     21298     21295     21299     21298     21295     21300     21299     21295     21300
     21295     21300     21302     21295     21300     21303     21295     21300     21304
     21302     21300     21303     21302     21300     21304     21303     21300     21304
     21300     21304     21306     21300     21304     21307     21300     21304     21316
     21306     21304     21307     21306     21304     21316     21307     21304     21316
     21310     21308     21312     21310     21308     21314     21310     21308     21316
     21312     21308     21314     21312     21308     21316     21314     21308     21316
     21308     21314     21318     21304     21316     21308     21314     21318     21320
     21314     21318     21321     21314     21318     21322     21320     21318     21321
     21320     21318     21322     21321     21318     21322     21318     21322     21324
     21318     21322     21325     21318     21322     21339     21324     21322     21325
     21324     21322     21339     21325     21322     21339     21322     21325     21327
     21325     21327     21329     21325     21327     21331     21329     21327     21331
     21327     21331     21333     21327     21331     21334     21327     21331     21357
     21333     21331     21334     21333     21331     21357     21334     21331     21357
     21322     21339     21341     21322     21339     21342     21322     21339     21343
     21341     21339     21342     21341     21339     21343     21342     21339     21343
     21339     21343     21345     21343     21345     21347     21343     21345     21349
     21347     21345     21349     21345     21349     21351     21345     21349     21352
     21345     21349     21420     21351     21349     21352     21351     21349     21420
     21352     21349     21420     21331     21357     21359     21331     21357     21360
     21331     21357     21361     21359     21357     21360     21359     21357     21361
     21360     21357     21361     21357     21361     21363     21357     21361     21364
     21357     21361     21365     21363     21361     21364     21363     21361     21365
     21364     21361     21365     21361     21365     21367     21361     21365     21368
     21361     21365     21369     21367     21365     21368     21367     21365     21369
     21368     21365     21369     21365     21369     21371     21365     21369     21372
     21365     21369     21373     21371     21369     21372     21371     21369     21373
     21372     21369     21373     21369     21373     21375     21369     21373     21376
     21369     21373     21377     21375     21373     21376     21375     21373     21377
     21376     21373     21377     21373     21377     21379     21373     21377     21380
     21373     21377     21381     21379     21377     21380     21379     21377     21381
     21380     21377     21381     21377     21381     21383     21377     21381     21384
     21383     21381     21384     21381     21384     21386     21381     21384     21387
     21386     21384     21387     21384     21387     21389     21384     21387     21390
     21384     21387     21391     21389     21387     21390     21389     21387     21391
     21390     21387     21391     21387     21391     21393     21387     21391     21394
     21387     21391     21395     21393     21391     21394     21393     21391     21395
     21394     21391     21395     21391     21395     21397     21391     21395     21398
     21391     21395     21399     21397     21395     21398     21397     21395     21399
     21398     21395     21399     21395     21399     21401     21395     21399     21402
     21395     21399     21403     21401     21399     21402     21401     21399     21403
     21402     21399     21403     21399     21403     21405     21399     21403     21406
     21399     21403     21407     21405     21403     21406     21405     21403     21407
     21406     21403     21407     21403     21407     21409     21403     21407     21410
     21403     21407     21411     21409     21407     21410     21409     21407     21411
     21410     21407     21411     21407     21411     21413     21407     21411     21414
     21407     21411     21415     21413     21411     21414     21413     21411     21415
     21414     21411     21415     21411     21415     21417     21411     21415     21418
     21411     21415     21419     21417     21415     21418     21417     21415     21419
     21418     21415     21419     21349     21420     21422     21349     21420     21423
     21349     21420     21424     21422     21420     21423     21422     21420     21424
     21423     21420     21424     21420     21424     21426     21420     21424     21427
     21420     21424     21428     21426     21424     21427     21426     21424     21428
     21427     21424     21428     21424     21428     21430     21424     21428     21431
     21424     21428     21432     21430     21428     21431     21430     21428     21432
     21431     21428     21432     21428     21432     21434     21428     21432     21435
     21428     21432     21436     21434     21432     21435     21434     21432     21436
     21435     21432     21436     21432     21436     21438     21432     21436     21439
     21432     21436     21440     21438     21436     21439     21438     21436     21440
     21439     21436     21440     21436     21440     21442     21436     21440     21443
     21436     21440     21444     21442     21440     21443     21442     21440     21444
     21443     21440     21444     21440     21444     21446     21440     21444     21447
     21440     21444     21448     21446     21444     21447     21446     21444     21448
     21447     21444     21448     21444     21448     21450     21444     21448     21451
     21444     21448     21452     21450     21448     21451     21450     21448     21452
     21451     21448     21452     21448     21452     21454     21448     21452     21455
     21448     21452     21456     21454     21452     21455     21454     21452     21456
     21455     21452     21456     21452     21456     21458     21452     21456     21459
     21452     21456     21460     21458     21456     21459     21458     21456     21460
     21459     21456     21460     21456     21460     21462     21456     21460     21463
     21456     21460     21464     21462     21460     21463     21462     21460     21464
     21463     21460     21464     21460     21464     21466     21460     21464     21467
     21460     21464     21468     21466     21464     21467     21466     21464     21468
     21467     21464     21468     21464     21468     21470     21464     21468     21471
     21464     21468     21472     21470     21468     21471     21470     21468     21472
     21471     21468     21472     21468     21472     21474     21468     21472     21475
     21468     21472     21476     21474     21472     21475     21474     21472     21476
     21475     21472     21476     21479     21477     21480     21479     21477     21481
     21479     21477     21482     21480     21477     21481     21480     21477     21482
     21481     21477     21482     21477     21482     21484     21477     21482     21485
     21477     21482     21486     21484     21482     21485     21484     21482     21486
     21485     21482     21486     21482     21486     21488     21482     21486     21489
     21482     21486     21498     21488     21486     21489     21488     21486     21498
     21489     21486     21498     21492     21490     21494     21492     21490     21496
     21492     21490     21498     21494     21490     21496     21494     21490     21498
     21496     21490     21498     21490     21496     21500     21486     21498     21490
     21496     21500     21502     21496     21500     21503     21496     21500     21504
     21502     21500     21503     21502     21500     21504     21503     21500     21504
     21500     21504     21506     21500     21504     21507     21500     21504     21521
     21506     21504     21507     21506     21504     21521     21507     21504     21521
     21504     21507     21509     21507     21509     21511     21507     21509     21513
     21511     21509     21513     21509     21513     21515     21509     21513     21516
     21509     21513     21539     21515     21513     21516     21515     21513     21539
     21516     21513     21539     21504     21521     21523     21504     21521     21524
     21504     21521     21525     21523     21521     21524     21523     21521     21525
     21524     21521     21525     21521     21525     21527     21525     21527     21529
     21525     21527     21531     21529     21527     21531     21527     21531     21533
     21527     21531     21534     21527     21531     21602     21533     21531     21534
     21533     21531     21602     21534     21531     21602     21513     21539     21541
     21513     21539     21542     21513     21539     21543     21541     21539     21542
     21541     21539     21543     21542     21539     21543     21539     21543     21545
     21539     21543     21546     21539     21543     21547     21545     21543     21546
     21545     21543     21547     21546     21543     21547     21543     21547     21549
     21543     21547     21550     21543     21547     21551     21549     21547     21550
     21549     21547     21551     21550     21547     21551     21547     21551     21553
     21547     21551     21554     21547     21551     21555     21553     21551     21554
     21553     21551     21555     21554     21551     21555     21551     21555     21557
     21551     21555     21558     21551     21555     21559     21557     21555     21558
     21557     21555     21559     21558     21555     21559     21555     21559     21561
     21555     21559     21562     21555     21559     21563     21561     21559     21562
     21561     21559     21563     21562     21559     21563     21559     21563     21565
     21559     21563     21566     21565     21563     21566     21563     21566     21568
     21563     21566     21569     21568     21566     21569     21566     21569     21571
     21566     21569     21572     21566     21569     21573     21571     21569     21572
     21571     21569     21573     21572     21569     21573     21569     21573     21575
     21569     21573     21576     21569     21573     21577     21575     21573     21576
     21575     21573     21577     21576     21573     21577     21573     21577     21579
     21573     21577     21580     21573     21577     21581     21579     21577     21580
     21579     21577     21581     21580     21577     21581     21577     21581     21583
     21577     21581     21584     21577     21581     21585     21583     21581     21584
     21583     21581     21585     21584     21581     21585     21581     21585     21587
     21581     21585     21588     21581     21585     21589     21587     21585     21588
     21587     21585     21589     21588     21585     21589     21585     21589     21591
     21585     21589     21592     21585     21589     21593     21591     21589     21592
     21591     21589     21593     21592     21589     21593     21589     21593     21595
     21589     21593     21596     21589     21593     21597     21595     21593     21596
     21595     21593     21597     21596     21593     21597     21593     21597     21599
     21593     21597     21600     21593     21597     21601     21599     21597     21600
     21599     21597     21601     21600     21597     21601     21531     21602     21604
     21531     21602     21605     21531     21602     21606     21604     21602     21605
     21604     21602     21606     21605     21602     21606     21602     21606     21608
     21602     21606     21609     21602     21606     21610     21608     21606     21609
     21608     21606     21610     21609     21606     21610     21606     21610     21612
     21606     21610     21613     21606     21610     21614     21612     21610     21613
     21612     21610     21614     21613     21610     21614     21610     21614     21616
     21610     21614     21617     21610     21614     21618     21616     21614     21617
     21616     21614     21618     21617     21614     21618     21614     21618     21620
     21614     21618     21621     21614     21618     21622     21620     21618     21621
     21620     21618     21622     21621     21618     21622     21618     21622     21624
     21618     21622     21625     21618     21622     21626     21624     21622     21625
     21624     21622     21626     21625     21622     21626     21622     21626     21628
     21622     21626     21629     21622     21626     21630     21628     21626     21629
     21628     21626     21630     21629     21626     21630     21626     21630     21632
     21626     21630     21633     21626     21630     21634     21632     21630     21633
     21632     21630     21634     21633     21630     21634     21630     21634     21636
     21630     21634     21637     21630     21634     21638     21636     21634     21637
     21636     21634     21638     21637     21634     21638     21634     21638     21640
     21634     21638     21641     21634     21638     21642     21640     21638     21641
     21640     21638     21642     21641     21638     21642     21638     21642     21644
     21638     21642     21645     21638     21642     21646     21644     21642     21645
     21644     21642     21646     21645     21642     21646     21642     21646     21648
     21642     21646     21649     21642     21646     21650     21648     21646     21649
     21648     21646     21650     21649     21646     21650     21646     21650     21652
     21646     21650     21653     21646     21650     21654     21652     21650     21653
     21652     21650     21654     21653     21650     21654     21650     21654     21656
     21650     21654     21657     21650     21654     21658     21656     21654     21657
     21656     21654     21658     21657     21654     21658     21661     21659     21662
     21661     21659     21663     21661     21659     21664     21662     21659     21663
     21662     21659     21664     21663     21659     21664     21659     21664     21666
     21659     21664     21667     21659     21664     21668     21666     21664     21667
     21666     21664     21668     21667     21664     21668     21664     21668     21670
     21664     21668     21671     21664     21668     21680     21670     21668     21671
     21670     21668     21680     21671     21668     21680     21674     21672     21676
     21674     21672     21678     21674     21672     21680     21676     21672     21678
     21676     21672     21680     21678     21672     21680     21672     21678     21682
     21668     21680     21672     21678     21682     21684     21678     21682     21685
     21678     21682     21686     21684     21682     21685     21684     21682     21686
     21685     21682     21686     21682     21686     21688     21682     21686     21689
     21682     21686     21703     21688     21686     21689     21688     21686     21703
     21689     21686     21703     21686     21689     21691     21689     21691     21693
     21689     21691     21695     21693     21691     21695     21691     21695     21697
     21691     21695     21698     21691     21695     21721     21697     21695     21698
     21697     21695     21721     21698     21695     21721     21686     21703     21705
     21686     21703     21706     21686     21703     21707     21705     21703     21706
     21705     21703     21707     21706     21703     21707     21703     21707     21709
     21707     21709     21711     21707     21709     21713     21711     21709     21713
     21709     21713     21715     21709     21713     21716     21709     21713     21784
     21715     21713     21716     21715     21713     21784     21716     21713     21784
     21695     21721     21723     21695     21721     21724     21695     21721     21725
     21723     21721     21724     21723     21721     21725     21724     21721     21725
     21721     21725     21727     21721     21725     21728     21721     21725     21729
     21727     21725     21728     21727     21725     21729     21728     21725     21729
     21725     21729     21731     21725     21729     21732     21725     21729     21733
     21731     21729     21732     21731     21729     21733     21732     21729     21733
     21729     21733     21735     21729     21733     21736     21729     21733     21737
     21735     21733     21736     21735     21733     21737     21736     21733     21737
     21733     21737     21739     21733     21737     21740     21733     21737     21741
     21739     21737     21740     21739     21737     21741     21740     21737     21741
     21737     21741     21743     21737     21741     21744     21737     21741     21745
     21743     21741     21744     21743     21741     21745     21744     21741     21745
     21741     21745     21747     21741     21745     21748     21747     21745     21748
     21745     21748     21750     21745     21748     21751     21750     21748     21751
     21748     21751     21753     21748     21751     21754     21748     21751     21755
     21753     21751     21754     21753     21751     21755     21754     21751     21755
     21751     21755     21757     21751     21755     21758     21751     21755     21759
     21757     21755     21758     21757     21755     21759     21758     21755     21759
     21755     21759     21761     21755     21759     21762     21755     21759     21763
     21761     21759     21762     21761     21759     21763     21762     21759     21763
     21759     21763     21765     21759     21763     21766     21759     21763     21767
     21765     21763     21766     21765     21763     21767     21766     21763     21767
     21763     21767     21769     21763     21767     21770     21763     21767     21771
     21769     21767     21770     21769     21767     21771     21770     21767     21771
     21767     21771     21773     21767     21771     21774     21767     21771     21775
     21773     21771     21774     21773     21771     21775     21774     21771     21775
     21771     21775     21777     21771     21775     21778     21771     21775     21779
     21777     21775     21778     21777     21775     21779     21778     21775     21779
     21775     21779     21781     21775     21779     21782     21775     21779     21783
     21781     21779     21782     21781     21779     21783     21782     21779     21783
     21713     21784     21786     21713     21784     21787     21713     21784     21788
     21786     21784     21787     21786     21784     21788     21787     21784     21788
     21784     21788     21790     21784     21788     21791     21784     21788     21792
     21790     21788     21791     21790     21788     21792     21791     21788     21792
     21788     21792     21794     21788     21792     21795     21788     21792     21796
     21794     21792     21795     21794     21792     21796     21795     21792     21796
     21792     21796     21798     21792     21796     21799     21792     21796     21800
     21798     21796     21799     21798     21796     21800     21799     21796     21800
     21796     21800     21802     21796     21800     21803     21796     21800     21804
     21802     21800     21803     21802     21800     21804     21803     21800     21804
     21800     21804     21806     21800     21804     21807     21800     21804     21808
     21806     21804     21807     21806     21804     21808     21807     21804     21808
     21804     21808     21810     21804     21808     21811     21804     21808     21812
     21810     21808     21811     21810     21808     21812     21811     21808     21812
     21808     21812     21814     21808     21812     21815     21808     21812     21816
     21814     21812     21815     21814     21812     21816     21815     21812     21816
     21812     21816     21818     21812     21816     21819     21812     21816     21820
     21818     21816     21819     21818     21816     21820     21819     21816     21820
     21816     21820     21822     21816     21820     21823     21816     21820     21824
     21822     21820     21823     21822     21820     21824     21823     21820     21824
     21820     21824     21826     21820     21824     21827     21820     21824     21828
     21826     21824     21827     21826     21824     21828     21827     21824     21828
     21824     21828     21830     21824     21828     21831     21824     21828     21832
     21830     21828     21831     21830     21828     21832     21831     21828     21832
     21828     21832     21834     21828     21832     21835     21828     21832     21836
     21834     21832     21835     21834     21832     21836     21835     21832     21836
     21832     21836     21838     21832     21836     21839     21832     21836     21840
     21838     21836     21839     21838     21836     21840     21839     21836     21840
     21843     21841     21844     21843     21841     21845     21843     21841     21846
     21844     21841     21845     21844     21841     21846     21845     21841     21846
     21841     21846     21848     21841     21846     21849     21841     21846     21850
     21848     21846     21849     21848     21846     21850     21849     21846     21850
     21846     21850     21852     21846     21850     21853     21846     21850     21862
     21852     21850     21853     21852     21850     21862     21853     21850     21862
     21856     21854     21858     21856     21854     21860     21856     21854     21862
     21858     21854     21860     21858     21854     21862     21860     21854     21862
     21854     21860     21864     21850     21862     21854     21860     21864     21866
     21860     21864     21867     21860     21864     21868     21866     21864     21867
     21866     21864     21868     21867     21864     21868     21864     21868     21870
     21864     21868     21871     21864     21868     21885     21870     21868     21871
     21870     21868     21885     21871     21868     21885     21868     21871     21873
     21871     21873     21875     21871     21873     21877     21875     21873     21877
     21873     21877     21879     21873     21877     21880     21873     21877     21903
     21879     21877     21880     21879     21877     21903     21880     21877     21903
     21868     21885     21887     21868     21885     21888     21868     21885     21889
     21887     21885     21888     21887     21885     21889     21888     21885     21889
     21885     21889     21891     21889     21891     21893     21889     21891     21895
     21893     21891     21895     21891     21895     21897     21891     21895     21898
     21891     21895     21966     21897     21895     21898     21897     21895     21966
     21898     21895     21966     21877     21903     21905     21877     21903     21906
     21877     21903     21907     21905     21903     21906     21905     21903     21907
     21906     21903     21907     21903     21907     21909     21903     21907     21910
     21903     21907     21911     21909     21907     21910     21909     21907     21911
     21910     21907     21911     21907     21911     21913     21907     21911     21914
     21907     21911     21915     21913     21911     21914     21913     21911     21915
     21914     21911     21915     21911     21915     21917     21911     21915     21918
     21911     21915     21919     21917     21915     21918     21917     21915     21919
     21918     21915     21919     21915     21919     21921     21915     21919     21922
     21915     21919     21923     21921     21919     21922     21921     21919     21923
     21922     21919     21923     21919     21923     21925     21919     21923     21926
     21919     21923     21927     21925     21923     21926     21925     21923     21927
     21926     21923     21927     21923     21927     21929     21923     21927     21930
     21929     21927     21930     21927     21930     21932     21927     21930     21933
     21932     21930     21933     21930     21933     21935     21930     21933     21936
     21930     21933     21937     21935     21933     21936     21935     21933     21937
     21936     21933     21937     21933     21937     21939     21933     21937     21940
     21933     21937     21941     21939     21937     21940     21939     21937     21941
     21940     21937     21941     21937     21941     21943     21937     21941     21944
     21937     21941     21945     21943     21941     21944     21943     21941     21945
     21944     21941     21945     21941     21945     21947     21941     21945     21948
     21941     21945     21949     21947     21945     21948     21947     21945     21949
     21948     21945     21949     21945     21949     21951     21945     21949     21952
     21945     21949     21953     21951     21949     21952     21951     21949     21953
     21952     21949     21953     21949     21953     21955     21949     21953     21956
     21949     21953     21957     21955     21953     21956     21955     21953     21957
     21956     21953     21957     21953     21957     21959     21953     21957     21960
     21953     21957     21961     21959     21957     21960     21959     21957     21961
     21960     21957     21961     21957     21961     21963     21957     21961     21964
     21957     21961     21965     21963     21961     21964     21963     21961     21965
     21964     21961     21965     21895     21966     21968     21895     21966     21969
     21895     21966     21970     21968     21966     21969     21968     21966     21970
     21969     21966     21970     21966     21970     21972     21966     21970     21973
     21966     21970     21974     21972     21970     21973     21972     21970     21974
     21973     21970     21974     21970     21974     21976     21970     21974     21977
     21970     21974     21978     21976     21974     21977     21976     21974     21978
     21977     21974     21978     21974     21978     21980     21974     21978     21981
     21974     21978     21982     21980     21978     21981     21980     21978     21982
     21981     21978     21982     21978     21982     21984     21978     21982     21985
     21978     21982     21986     21984     21982     21985     21984     21982     21986
     21985     21982     21986     21982     21986     21988     21982     21986     21989
     21982     21986     21990     21988     21986     21989     21988     21986     21990
     21989     21986     21990     21986     21990     21992     21986     21990     21993
     21986     21990     21994     21992     21990     21993     21992     21990     21994
     21993     21990     21994     21990     21994     21996     21990     21994     21997
     21990     21994     21998     21996     21994     21997     21996     21994     21998
     21997     21994     21998     21994     21998     22000     21994     21998     22001
     21994     21998     22002     22000     21998     22001     22000     21998     22002
     22001     21998     22002     21998     22002     22004     21998     22002     22005
     21998     22002     22006     22004     22002     22005     22004     22002     22006
     22005     22002     22006     22002     22006     22008     22002     22006     22009
     22002     22006     22010     22008     22006     22009     22008     22006     22010
     22009     22006     22010     22006     22010     22012     22006     22010     22013
     22006     22010     22014     22012     22010     22013     22012     22010     22014
     22013     22010     22014     22010     22014     22016     22010     22014     22017
     22010     22014     22018     22016     22014     22017     22016     22014     22018
     22017     22014     22018     22014     22018     22020     22014     22018     22021
     22014     22018     22022     22020     22018     22021     22020     22018     22022
     22021     22018     22022     22025     22023     22026     22025     22023     22027
     22025     22023     22028     22026     22023     22027     22026     22023     22028
     22027     22023     22028     22023     22028     22030     22023     22028     22031
     22023     22028     22032     22030     22028     22031     22030     22028     22032
     22031     22028     22032     22028     22032     22034     22028     22032     22035
     22028     22032     22044     22034     22032     22035     22034     22032     22044
     22035     22032     22044     22038     22036     22040     22038     22036     22042
     22038     22036     22044     22040     22036     22042     22040     22036     22044
     22042     22036     22044     22036     22042     22046     22032     22044     22036
     22042     22046     22048     22042     22046     22049     22042     22046     22050
     22048     22046     22049     22048     22046     22050     22049     22046     22050
     22046     22050     22052     22046     22050     22053     22046     22050     22067
     22052     22050     22053     22052     22050     22067     22053     22050     22067
     22050     22053     22055     22053     22055     22057     22053     22055     22059
     22057     22055     22059     22055     22059     22061     22055     22059     22062
     22055     22059     22085     22061     22059     22062     22061     22059     22085
     22062     22059     22085     22050     22067     22069     22050     22067     22070
     22050     22067     22071     22069     22067     22070     22069     22067     22071
     22070     22067     22071     22067     22071     22073     22071     22073     22075
     22071     22073     22077     22075     22073     22077     22073     22077     22079
     22073     22077     22080     22073     22077     22148     22079     22077     22080
     22079     22077     22148     22080     22077     22148     22059     22085     22087
     22059     22085     22088     22059     22085     22089     22087     22085     22088
     22087     22085     22089     22088     22085     22089     22085     22089     22091
     22085     22089     22092     22085     22089     22093     22091     22089     22092
     22091     22089     22093     22092     22089     22093     22089     22093     22095
     22089     22093     22096     22089     22093     22097     22095     22093     22096
     22095     22093     22097     22096     22093     22097     22093     22097     22099
     22093     22097     22100     22093     22097     22101     22099     22097     22100
     22099     22097     22101     22100     22097     22101     22097     22101     22103
     22097     22101     22104     22097     22101     22105     22103     22101     22104
     22103     22101     22105     22104     22101     22105     22101     22105     22107
     22101     22105     22108     22101     22105     22109     22107     22105     22108
     22107     22105     22109     22108     22105     22109     22105     22109     22111
     22105     22109     22112     22111     22109     22112     22109     22112     22114
     22109     22112     22115     22114     22112     22115     22112     22115     22117
     22112     22115     22118     22112     22115     22119     22117     22115     22118
     22117     22115     22119     22118     22115     22119     22115     22119     22121
     22115     22119     22122     22115     22119     22123     22121     22119     22122
     22121     22119     22123     22122     22119     22123     22119     22123     22125
     22119     22123     22126     22119     22123     22127     22125     22123     22126
     22125     22123     22127     22126     22123     22127     22123     22127     22129
     22123     22127     22130     22123     22127     22131     22129     22127     22130
     22129     22127     22131     22130     22127     22131     22127     22131     22133
     22127     22131     22134     22127     22131     22135     22133     22131     22134
     22133     22131     22135     22134     22131     22135     22131     22135     22137
     22131     22135     22138     22131     22135     22139     22137     22135     22138
     22137     22135     22139     22138     22135     22139     22135     22139     22141
     22135     22139     22142     22135     22139     22143     22141     22139     22142
     22141     22139     22143     22142     22139     22143     22139     22143     22145
     22139     22143     22146     22139     22143     22147     22145     22143     22146
     22145     22143     22147     22146     22143     22147     22077     22148     22150
     22077     22148     22151     22077     22148     22152     22150     22148     22151
     22150     22148     22152     22151     22148     22152     22148     22152     22154
     22148     22152     22155     22148     22152     22156     22154     22152     22155
     22154     22152     22156     22155     22152     22156     22152     22156     22158
     22152     22156     22159     22152     22156     22160     22158     22156     22159
     22158     22156     22160     22159     22156     22160     22156     22160     22162
     22156     22160     22163     22156     22160     22164     22162     22160     22163
     22162     22160     22164     22163     22160     22164     22160     22164     22166
     22160     22164     22167     22160     22164     22168     22166     22164     22167
     22166     22164     22168     22167     22164     22168     22164     22168     22170
     22164     22168     22171     22164     22168     22172     22170     22168     22171
     22170     22168     22172     22171     22168     22172     22168     22172     22174
     22168     22172     22175     22168     22172     22176     22174     22172     22175
     22174     22172     22176     22175     22172     22176     22172     22176     22178
     22172     22176     22179     22172     22176     22180     22178     22176     22179
     22178     22176     22180     22179     22176     22180     22176     22180     22182
     22176     22180     22183     22176     22180     22184     22182     22180     22183
     22182     22180     22184     22183     22180     22184     22180     22184     22186
     22180     22184     22187     22180     22184     22188     22186     22184     22187
     22186     22184     22188     22187     22184     22188     22184     22188     22190
     22184     22188     22191     22184     22188     22192     22190     22188     22191
     22190     22188     22192     22191     22188     22192     22188     22192     22194
     22188     22192     22195     22188     22192     22196     22194     22192     22195
     22194     22192     22196     22195     22192     22196     22192     22196     22198
     22192     22196     22199     22192     22196     22200     22198     22196     22199
     22198     22196     22200     22199     22196     22200     22196     22200     22202
     22196     22200     22203     22196     22200     22204     22202     22200     22203
     22202     22200     22204     22203     22200     22204     22207     22205     22208
     22207     22205     22209     22207     22205     22210     22208     22205     22209
     22208     22205     22210     22209     22205     22210     22205     22210     22212
     22205     22210     22213     22205     22210     22214     22212     22210     22213
     22212     22210     22214     22213     22210     22214     22210     22214     22216
     22210     22214     22217     22210     22214     22226     22216     22214     22217
     22216     22214     22226     22217     22214     22226     22220     22218     22222
     22220     22218     22224     22220     22218     22226     22222     22218     22224
     22222     22218     22226     22224     22218     22226     22218     22224     22228
     22214     22226     22218     22224     22228     22230     22224     22228     22231
     22224     22228     22232     22230     22228     22231     22230     22228     22232
     22231     22228     22232     22228     22232     22234     22228     22232     22235
     22228     22232     22249     22234     22232     22235     22234     22232     22249
     22235     22232     22249     22232     22235     22237     22235     22237     22239
     22235     22237     22241     22239     22237     22241     22237     22241     22243
     22237     22241     22244     22237     22241     22267     22243     22241     22244
     22243     22241     22267     22244     22241     22267     22232     22249     22251
     22232     22249     22252     22232     22249     22253     22251     22249     22252
     22251     22249     22253     22252     22249     22253     22249     22253     22255
     22253     22255     22257     22253     22255     22259     22257     22255     22259
     22255     22259     22261     22255     22259     22262     22255     22259     22330
     22261     22259     22262     22261     22259     22330     22262     22259     22330
     22241     22267     22269     22241     22267     22270     22241     22267     22271
     22269     22267     22270     22269     22267     22271     22270     22267     22271
     22267     22271     22273     22267     22271     22274     22267     22271     22275
     22273     22271     22274     22273     22271     22275     22274     22271     22275
     22271     22275     22277     22271     22275     22278     22271     22275     22279
     22277     22275     22278     22277     22275     22279     22278     22275     22279
     22275     22279     22281     22275     22279     22282     22275     22279     22283
     22281     22279     22282     22281     22279     22283     22282     22279     22283
     22279     22283     22285     22279     22283     22286     22279     22283     22287
     22285     22283     22286     22285     22283     22287     22286     22283     22287
     22283     22287     22289     22283     22287     22290     22283     22287     22291
     22289     22287     22290     22289     22287     22291     22290     22287     22291
     22287     22291     22293     22287     22291     22294     22293     22291     22294
     22291     22294     22296     22291     22294     22297     22296     22294     22297
     22294     22297     22299     22294     22297     22300     22294     22297     22301
     22299     22297     22300     22299     22297     22301     22300     22297     22301
     22297     22301     22303     22297     22301     22304     22297     22301     22305
     22303     22301     22304     22303     22301     22305     22304     22301     22305
     22301     22305     22307     22301     22305     22308     22301     22305     22309
     22307     22305     22308     22307     22305     22309     22308     22305     22309
     22305     22309     22311     22305     22309     22312     22305     22309     22313
     22311     22309     22312     22311     22309     22313     22312     22309     22313
     22309     22313     22315     22309     22313     22316     22309     22313     22317
     22315     22313     22316     22315     22313     22317     22316     22313     22317
     22313     22317     22319     22313     22317     22320     22313     22317     22321
     22319     22317     22320     22319     22317     22321     22320     22317     22321
     22317     22321     22323     22317     22321     22324     22317     22321     22325
     22323     22321     22324     22323     22321     22325     22324     22321     22325
     22321     22325     22327     22321     22325     22328     22321     22325     22329
     22327     22325     22328     22327     22325     22329     22328     22325     22329
     22259     22330     22332     22259     22330     22333     22259     22330     22334
     22332     22330     22333     22332     22330     22334     22333     22330     22334
     22330     22334     22336     22330     22334     22337     22330     22334     22338
     22336     22334     22337     22336     22334     22338     22337     22334     22338
     22334     22338     22340     22334     22338     22341     22334     22338     22342
     22340     22338     22341     22340     22338     22342     22341     22338     22342
     22338     22342     22344     22338     22342     22345     22338     22342     22346
     22344     22342     22345     22344     22342     22346     22345     22342     22346
     22342     22346     22348     22342     22346     22349     22342     22346     22350
     22348     22346     22349     22348     22346     22350     22349     22346     22350
     22346     22350     22352     22346     22350     22353     22346     22350     22354
     22352     22350     22353     22352     22350     22354     22353     22350     22354
     22350     22354     22356     22350     22354     22357     22350     22354     22358
     22356     22354     22357     22356     22354     22358     22357     22354     22358
     22354     22358     22360     22354     22358     22361     22354     22358     22362
     22360     22358     22361     22360     22358     22362     22361     22358     22362
     22358     22362     22364     22358     22362     22365     22358     22362     22366
     22364     22362     22365     22364     22362     22366     22365     22362     22366
     22362     22366     22368     22362     22366     22369     22362     22366     22370
     22368     22366     22369     22368     22366     22370     22369     22366     22370
     22366     22370     22372     22366     22370     22373     22366     22370     22374
     22372     22370     22373     22372     22370     22374     22373     22370     22374
     22370     22374     22376     22370     22374     22377     22370     22374     22378
     22376     22374     22377     22376     22374     22378     22377     22374     22378
     22374     22378     22380     22374     22378     22381     22374     22378     22382
     22380     22378     22381     22380     22378     22382     22381     22378     22382
     22378     22382     22384     22378     22382     22385     22378     22382     22386
     22384     22382     22385     22384     22382     22386     22385     22382     22386
     22389     22387     22390     22389     22387     22391     22389     22387     22392
     22390     22387     22391     22390     22387     22392     22391     22387     22392
     22387     22392     22394     22387     22392     22395     22387     22392     22396
     22394     22392     22395     22394     22392     22396     22395     22392     22396
     22392     22396     22398     22392     22396     22399     22392     22396     22408
     22398     22396     22399     22398     22396     22408     22399     22396     22408
     22402     22400     22404     22402     22400     22406     22402     22400     22408
     22404     22400     22406     22404     22400     22408     22406     22400     22408
     22400     22406     22410     22396     22408     22400     22406     22410     22412
     22406     22410     22413     22406     22410     22414     22412     22410     22413
     22412     22410     22414     22413     22410     22414     22410     22414     22416
     22410     22414     22417     22410     22414     22431     22416     22414     22417
     22416     22414     22431     22417     22414     22431     22414     22417     22419
     22417     22419     22421     22417     22419     22423     22421     22419     22423
     22419     22423     22425     22419     22423     22426     22419     22423     22449
     22425     22423     22426     22425     22423     22449     22426     22423     22449
     22414     22431     22433     22414     22431     22434     22414     22431     22435
     22433     22431     22434     22433     22431     22435     22434     22431     22435
     22431     22435     22437     22435     22437     22439     22435     22437     22441
     22439     22437     22441     22437     22441     22443     22437     22441     22444
     22437     22441     22512     22443     22441     22444     22443     22441     22512
     22444     22441     22512     22423     22449     22451     22423     22449     22452
     22423     22449     22453     22451     22449     22452     22451     22449     22453
     22452     22449     22453     22449     22453     22455     22449     22453     22456
     22449     22453     22457     22455     22453     22456     22455     22453     22457
     22456     22453     22457     22453     22457     22459     22453     22457     22460
     22453     22457     22461     22459     22457     22460     22459     22457     22461
     22460     22457     22461     22457     22461     22463     22457     22461     22464
     22457     22461     22465     22463     22461     22464     22463     22461     22465
     22464     22461     22465     22461     22465     22467     22461     22465     22468
     22461     22465     22469     22467     22465     22468     22467     22465     22469
     22468     22465     22469     22465     22469     22471     22465     22469     22472
     22465     22469     22473     22471     22469     22472     22471     22469     22473
     22472     22469     22473     22469     22473     22475     22469     22473     22476
     22475     22473     22476     22473     22476     22478     22473     22476     22479
     22478     22476     22479     22476     22479     22481     22476     22479     22482
     22476     22479     22483     22481     22479     22482     22481     22479     22483
     22482     22479     22483     22479     22483     22485     22479     22483     22486
     22479     22483     22487     22485     22483     22486     22485     22483     22487
     22486     22483     22487     22483     22487     22489     22483     22487     22490
     22483     22487     22491     22489     22487     22490     22489     22487     22491
     22490     22487     22491     22487     22491     22493     22487     22491     22494
     22487     22491     22495     22493     22491     22494     22493     22491     22495
     22494     22491     22495     22491     22495     22497     22491     22495     22498
     22491     22495     22499     22497     22495     22498     22497     22495     22499
     22498     22495     22499     22495     22499     22501     22495     22499     22502
     22495     22499     22503     22501     22499     22502     22501     22499     22503
     22502     22499     22503     22499     22503     22505     22499     22503     22506
     22499     22503     22507     22505     22503     22506     22505     22503     22507
     22506     22503     22507     22503     22507     22509     22503     22507     22510
     22503     22507     22511     22509     22507     22510     22509     22507     22511
     22510     22507     22511     22441     22512     22514     22441     22512     22515
     22441     22512     22516     22514     22512     22515     22514     22512     22516
     22515     22512     22516     22512     22516     22518     22512     22516     22519
     22512     22516     22520     22518     22516     22519     22518     22516     22520
     22519     22516     22520     22516     22520     22522     22516     22520     22523
     22516     22520     22524     22522     22520     22523     22522     22520     22524
     22523     22520     22524     22520     22524     22526     22520     22524     22527
     22520     22524     22528     22526     22524     22527     22526     22524     22528
     22527     22524     22528     22524     22528     22530     22524     22528     22531
     22524     22528     22532     22530     22528     22531     22530     22528     22532
     22531     22528     22532     22528     22532     22534     22528     22532     22535
     22528     22532     22536     22534     22532     22535     22534     22532     22536
     22535     22532     22536     22532     22536     22538     22532     22536     22539
     22532     22536     22540     22538     22536     22539     22538     22536     22540
     22539     22536     22540     22536     22540     22542     22536     22540     22543
     22536     22540     22544     22542     22540     22543     22542     22540     22544
     22543     22540     22544     22540     22544     22546     22540     22544     22547
     22540     22544     22548     22546     22544     22547     22546     22544     22548
     22547     22544     22548     22544     22548     22550     22544     22548     22551
     22544     22548     22552     22550     22548     22551     22550     22548     22552
     22551     22548     22552     22548     22552     22554     22548     22552     22555
     22548     22552     22556     22554     22552     22555     22554     22552     22556
     22555     22552     22556     22552     22556     22558     22552     22556     22559
     22552     22556     22560     22558     22556     22559     22558     22556     22560
     22559     22556     22560     22556     22560     22562     22556     22560     22563
     22556     22560     22564     22562     22560     22563     22562     22560     22564
     22563     22560     22564     22560     22564     22566     22560     22564     22567
     22560     22564     22568     22566     22564     22567     22566     22564     22568
     22567     22564     22568     22571     22569     22572     22571     22569     22573
     22571     22569     22574     22572     22569     22573     22572     22569     22574
     22573     22569     22574     22569     22574     22576     22569     22574     22577
     22569     22574     22578     22576     22574     22577     22576     22574     22578
     22577     22574     22578     22574     22578     22580     22574     22578     22581
     22574     22578     22590     22580     22578     22581     22580     22578     22590
     22581     22578     22590     22584     22582     22586     22584     22582     22588
     22584     22582     22590     22586     22582     22588     22586     22582     22590
     22588     22582     22590     22582     22588     22592     22578     22590     22582
     22588     22592     22594     22588     22592     22595     22588     22592     22596
     22594     22592     22595     22594     22592     22596     22595     22592     22596
     22592     22596     22598     22592     22596     22599     22592     22596     22613
     22598     22596     22599     22598     22596     22613     22599     22596     22613
     22596     22599     22601     22599     22601     22603     22599     22601     22605
     22603     22601     22605     22601     22605     22607     22601     22605     22608
     22601     22605     22631     22607     22605     22608     22607     22605     22631
     22608     22605     22631     22596     22613     22615     22596     22613     22616
     22596     22613     22617     22615     22613     22616     22615     22613     22617
     22616     22613     22617     22613     22617     22619     22617     22619     22621
     22617     22619     22623     22621     22619     22623     22619     22623     22625
     22619     22623     22626     22619     22623     22694     22625     22623     22626
     22625     22623     22694     22626     22623     22694     22605     22631     22633
     22605     22631     22634     22605     22631     22635     22633     22631     22634
     22633     22631     22635     22634     22631     22635     22631     22635     22637
     22631     22635     22638     22631     22635     22639     22637     22635     22638
     22637     22635     22639     22638     22635     22639     22635     22639     22641
     22635     22639     22642     22635     22639     22643     22641     22639     22642
     22641     22639     22643     22642     22639     22643     22639     22643     22645
     22639     22643     22646     22639     22643     22647     22645     22643     22646
     22645     22643     22647     22646     22643     22647     22643     22647     22649
     22643     22647     22650     22643     22647     22651     22649     22647     22650
     22649     22647     22651     22650     22647     22651     22647     22651     22653
     22647     22651     22654     22647     22651     22655     22653     22651     22654
     22653     22651     22655     22654     22651     22655     22651     22655     22657
     22651     22655     22658     22657     22655     22658     22655     22658     22660
     22655     22658     22661     22660     22658     22661     22658     22661     22663
     22658     22661     22664     22658     22661     22665     22663     22661     22664
     22663     22661     22665     22664     22661     22665     22661     22665     22667
     22661     22665     22668     22661     22665     22669     22667     22665     22668
     22667     22665     22669     22668     22665     22669     22665     22669     22671
     22665     22669     22672     22665     22669     22673     22671     22669     22672
     22671     22669     22673     22672     22669     22673     22669     22673     22675
     22669     22673     22676     22669     22673     22677     22675     22673     22676
     22675     22673     22677     22676     22673     22677     22673     22677     22679
     22673     22677     22680     22673     22677     22681     22679     22677     22680
     22679     22677     22681     22680     22677     22681     22677     22681     22683
     22677     22681     22684     22677     22681     22685     22683     22681     22684
     22683     22681     22685     22684     22681     22685     22681     22685     22687
     22681     22685     22688     22681     22685     22689     22687     22685     22688
     22687     22685     22689     22688     22685     22689     22685     22689     22691
     22685     22689     22692     22685     22689     22693     22691     22689     22692
     22691     22689     22693     22692     22689     22693     22623     22694     22696
     22623     22694     22697     22623     22694     22698     22696     22694     22697
     22696     22694     22698     22697     22694     22698     22694     22698     22700
     22694     22698     22701     22694     22698     22702     22700     22698     22701
     22700     22698     22702     22701     22698     22702     22698     22702     22704
     22698     22702     22705     22698     22702     22706     22704     22702     22705
     22704     22702     22706     22705     22702     22706     22702     22706     22708
     22702     22706     22709     22702     22706     22710     22708     22706     22709
     22708     22706     22710     22709     22706     22710     22706     22710     22712
     22706     22710     22713     22706     22710     22714     22712     22710     22713
     22712     22710     22714     22713     22710     22714     22710     22714     22716
     22710     22714     22717     22710     22714     22718     22716     22714     22717
     22716     22714     22718     22717     22714     22718     22714     22718     22720
     22714     22718     22721     22714     22718     22722     22720     22718     22721
     22720     22718     22722     22721     22718     22722     22718     22722     22724
     22718     22722     22725     22718     22722     22726     22724     22722     22725
     22724     22722     22726     22725     22722     22726     22722     22726     22728
     22722     22726     22729     22722     22726     22730     22728     22726     22729
     22728     22726     22730     22729     22726     22730     22726     22730     22732
     22726     22730     22733     22726     22730     22734     22732     22730     22733
     22732     22730     22734     22733     22730     22734     22730     22734     22736
     22730     22734     22737     22730     22734     22738     22736     22734     22737
     22736     22734     22738     22737     22734     22738     22734     22738     22740
     22734     22738     22741     22734     22738     22742     22740     22738     22741
     22740     22738     22742     22741     22738     22742     22738     22742     22744
     22738     22742     22745     22738     22742     22746     22744     22742     22745
     22744     22742     22746     22745     22742     22746     22742     22746     22748
     22742     22746     22749     22742     22746     22750     22748     22746     22749
     22748     22746     22750     22749     22746     22750     22753     22751     22754
     22753     22751     22755     22753     22751     22756     22754     22751     22755
     22754     22751     22756     22755     22751     22756     22751     22756     22758
     22751     22756     22759     22751     22756     22760     22758     22756     22759
     22758     22756     22760     22759     22756     22760     22756     22760     22762
     22756     22760     22763     22756     22760     22772     22762     22760     22763
     22762     22760     22772     22763     22760     22772     22766     22764     22768
     22766     22764     22770     22766     22764     22772     22768     22764     22770
     22768     22764     22772     22770     22764     22772     22764     22770     22774
     22760     22772     22764     22770     22774     22776     22770     22774     22777
     22770     22774     22778     22776     22774     22777     22776     22774     22778
     22777     22774     22778     22774     22778     22780     22774     22778     22781
     22774     22778     22795     22780     22778     22781     22780     22778     22795
     22781     22778     22795     22778     22781     22783     22781     22783     22785
     22781     22783     22787     22785     22783     22787     22783     22787     22789
     22783     22787     22790     22783     22787     22813     22789     22787     22790
     22789     22787     22813     22790     22787     22813     22778     22795     22797
     22778     22795     22798     22778     22795     22799     22797     22795     22798
     22797     22795     22799     22798     22795     22799     22795     22799     22801
     22799     22801     22803     22799     22801     22805     22803     22801     22805
     22801     22805     22807     22801     22805     22808     22801     22805     22876
     22807     22805     22808     22807     22805     22876     22808     22805     22876
     22787     22813     22815     22787     22813     22816     22787     22813     22817
     22815     22813     22816     22815     22813     22817     22816     22813     22817
     22813     22817     22819     22813     22817     22820     22813     22817     22821
     22819     22817     22820     22819     22817     22821     22820     22817     22821
     22817     22821     22823     22817     22821     22824     22817     22821     22825
     22823     22821     22824     22823     22821     22825     22824     22821     22825
     22821     22825     22827     22821     22825     22828     22821     22825     22829
     22827     22825     22828     22827     22825     22829     22828     22825     22829
     22825     22829     22831     22825     22829     22832     22825     22829     22833
     22831     22829     22832     22831     22829     22833     22832     22829     22833
     22829     22833     22835     22829     22833     22836     22829     22833     22837
     22835     22833     22836     22835     22833     22837     22836     22833     22837
     22833     22837     22839     22833     22837     22840     22839     22837     22840
     22837     22840     22842     22837     22840     22843     22842     22840     22843
     22840     22843     22845     22840     22843     22846     22840     22843     22847
     22845     22843     22846     22845     22843     22847     22846     22843     22847
     22843     22847     22849     22843     22847     22850     22843     22847     22851
     22849     22847     22850     22849     22847     22851     22850     22847     22851
     22847     22851     22853     22847     22851     22854     22847     22851     22855
     22853     22851     22854     22853     22851     22855     22854     22851     22855
     22851     22855     22857     22851     22855     22858     22851     22855     22859
     22857     22855     22858     22857     22855     22859     22858     22855     22859
     22855     22859     22861     22855     22859     22862     22855     22859     22863
     22861     22859     22862     22861     22859     22863     22862     22859     22863
     22859     22863     22865     22859     22863     22866     22859     22863     22867
     22865     22863     22866     22865     22863     22867     22866     22863     22867
     22863     22867     22869     22863     22867     22870     22863     22867     22871
     22869     22867     22870     22869     22867     22871     22870     22867     22871
     22867     22871     22873     22867     22871     22874     22867     22871     22875
     22873     22871     22874     22873     22871     22875     22874     22871     22875
     22805     22876     22878     22805     22876     22879     22805     22876     22880
     22878     22876     22879     22878     22876     22880     22879     22876     22880
     22876     22880     22882     22876     22880     22883     22876     22880     22884
     22882     22880     22883     22882     22880     22884     22883     22880     22884
     22880     22884     22886     22880     22884     22887     22880     22884     22888
     22886     22884     22887     22886     22884     22888     22887     22884     22888
     22884     22888     22890     22884     22888     22891     22884     22888     22892
     22890     22888     22891     22890     22888     22892     22891     22888     22892
     22888     22892     22894     22888     22892     22895     22888     22892     22896
     22894     22892     22895     22894     22892     22896     22895     22892     22896
     22892     22896     22898     22892     22896     22899     22892     22896     22900
     22898     22896     22899     22898     22896     22900     22899     22896     22900
     22896     22900     22902     22896     22900     22903     22896     22900     22904
     22902     22900     22903     22902     22900     22904     22903     22900     22904
     22900     22904     22906     22900     22904     22907     22900     22904     22908
     22906     22904     22907     22906     22904     22908     22907     22904     22908
     22904     22908     22910     22904     22908     22911     22904     22908     22912
     22910     22908     22911     22910     22908     22912     22911     22908     22912
     22908     22912     22914     22908     22912     22915     22908     22912     22916
     22914     22912     22915     22914     22912     22916     22915     22912     22916
     22912     22916     22918     22912     22916     22919     22912     22916     22920
     22918     22916     22919     22918     22916     22920     22919     22916     22920
     22916     22920     22922     22916     22920     22923     22916     22920     22924
     22922     22920     22923     22922     22920     22924     22923     22920     22924
     22920     22924     22926     22920     22924     22927     22920     22924     22928
     22926     22924     22927     22926     22924     22928     22927     22924     22928
     22924     22928     22930     22924     22928     22931     22924     22928     22932
     22930     22928     22931     22930     22928     22932     22931     22928     22932
     22935     22933     22936     22935     22933     22937     22935     22933     22938
     22936     22933     22937     22936     22933     22938     22937     22933     22938
     22933     22938     22940     22933     22938     22941     22933     22938     22942
     22940     22938     22941     22940     22938     22942     22941     22938     22942
     22938     22942     22944     22938     22942     22945     22938     22942     22954
     22944     22942     22945     22944     22942     22954     22945     22942     22954
     22948     22946     22950     22948     22946     22952     22948     22946     22954
     22950     22946     22952     22950     22946     22954     22952     22946     22954
     22946     22952     22956     22942     22954     22946     22952     22956     22958
     22952     22956     22959     22952     22956     22960     22958     22956     22959
     22958     22956     22960     22959     22956     22960     22956     22960     22962
     22956     22960     22963     22956     22960     22977     22962     22960     22963
     22962     22960     22977     22963     22960     22977     22960     22963     22965
     22963     22965     22967     22963     22965     22969     22967     22965     22969
     22965     22969     22971     22965     22969     22972     22965     22969     22995
     22971     22969     22972     22971     22969     22995     22972     22969     22995
     22960     22977     22979     22960     22977     22980     22960     22977     22981
     22979     22977     22980     22979     22977     22981     22980     22977     22981
     22977     22981     22983     22981     22983     22985     22981     22983     22987
     22985     22983     22987     22983     22987     22989     22983     22987     22990
     22983     22987     23058     22989     22987     22990     22989     22987     23058
     22990     22987     23058     22969     22995     22997     22969     22995     22998
     22969     22995     22999     22997     22995     22998     22997     22995     22999
     22998     22995     22999     22995     22999     23001     22995     22999     23002
     22995     22999     23003     23001     22999     23002     23001     22999     23003
     23002     22999     23003     22999     23003     23005     22999     23003     23006
     22999     23003     23007     23005     23003     23006     23005     23003     23007
     23006     23003     23007     23003     23007     23009     23003     23007     23010
     23003     23007     23011     23009     23007     23010     23009     23007     23011
     23010     23007     23011     23007     23011     23013     23007     23011     23014
     23007     23011     23015     23013     23011     23014     23013     23011     23015
     23014     23011     23015     23011     23015     23017     23011     23015     23018
     23011     23015     23019     23017     23015     23018     23017     23015     23019
     23018     23015     23019     23015     23019     23021     23015     23019     23022
     23021     23019     23022     23019     23022     23024     23019     23022     23025
     23024     23022     23025     23022     23025     23027     23022     23025     23028
     23022     23025     23029     23027     23025     23028     23027     23025     23029
     23028     23025     23029     23025     23029     23031     23025     23029     23032
     23025     23029     23033     23031     23029     23032     23031     23029     23033
     23032     23029     23033     23029     23033     23035     23029     23033     23036
     23029     23033     23037     23035     23033     23036     23035     23033     23037
     23036     23033     23037     23033     23037     23039     23033     23037     23040
     23033     23037     23041     23039     23037     23040     23039     23037     23041
     23040     23037     23041     23037     23041     23043     23037     23041     23044
     23037     23041     23045     23043     23041     23044     23043     23041     23045
     23044     23041     23045     23041     23045     23047     23041     23045     23048
     23041     23045     23049     23047     23045     23048     23047     23045     23049
     23048     23045     23049     23045     23049     23051     23045     23049     23052
     23045     23049     23053     23051     23049     23052     23051     23049     23053
     23052     23049     23053     23049     23053     23055     23049     23053     23056
     23049     23053     23057     23055     23053     23056     23055     23053     23057
     23056     23053     23057     22987     23058     23060     22987     23058     23061
     22987     23058     23062     23060     23058     23061     23060     23058     23062
     23061     23058     23062     23058     23062     23064     23058     23062     23065
     23058     23062     23066     23064     23062     23065     23064     23062     23066
     23065     23062     23066     23062     23066     23068     23062     23066     23069
     23062     23066     23070     23068     23066     23069     23068     23066     23070
     23069     23066     23070     23066     23070     23072     23066     23070     23073
     23066     23070     23074     23072     23070     23073     23072     23070     23074
     23073     23070     23074     23070     23074     23076     23070     23074     23077
     23070     23074     23078     23076     23074     23077     23076     23074     23078
     23077     23074     23078     23074     23078     23080     23074     23078     23081
     23074     23078     23082     23080     23078     23081     23080     23078     23082
     23081     23078     23082     23078     23082     23084     23078     23082     23085
     23078     23082     23086     23084     23082     23085     23084     23082     23086
     23085     23082     23086     23082     23086     23088     23082     23086     23089
     23082     23086     23090     23088     23086     23089     23088     23086     23090
     23089     23086     23090     23086     23090     23092     23086     23090     23093
     23086     23090     23094     23092     23090     23093     23092     23090     23094
     23093     23090     23094     23090     23094     23096     23090     23094     23097
     23090     23094     23098     23096     23094     23097     23096     23094     23098
     23097     23094     23098     23094     23098     23100     23094     23098     23101
     23094     23098     23102     23100     23098     23101     23100     23098     23102
     23101     23098     23102     23098     23102     23104     23098     23102     23105
     23098     23102     23106     23104     23102     23105     23104     23102     23106
     23105     23102     23106     23102     23106     23108     23102     23106     23109
     23102     23106     23110     23108     23106     23109     23108     23106     23110
     23109     23106     23110     23106     23110     23112     23106     23110     23113
     23106     23110     23114     23112     23110     23113     23112     23110     23114
     23113     23110     23114     23117     23115     23118     23117     23115     23119
     23117     23115     23120     23118     23115     23119     23118     23115     23120
     23119     23115     23120     23115     23120     23122     23115     23120     23123
     23115     23120     23124     23122     23120     23123     23122     23120     23124
     23123     23120     23124     23120     23124     23126     23120     23124     23127
     23120     23124     23136     23126     23124     23127     23126     23124     23136
     23127     23124     23136     23130     23128     23132     23130     23128     23134
     23130     23128     23136     23132     23128     23134     23132     23128     23136
     23134     23128     23136     23128     23134     23138     23124     23136     23128
     23134     23138     23140     23134     23138     23141     23134     23138     23142
     23140     23138     23141     23140     23138     23142     23141     23138     23142
     23138     23142     23144     23138     23142     23145     23138     23142     23159
     23144     23142     23145     23144     23142     23159     23145     23142     23159
     23142     23145     23147     23145     23147     23149     23145     23147     23151
     23149     23147     23151     23147     23151     23153     23147     23151     23154
     23147     23151     23177     23153     23151     23154     23153     23151     23177
     23154     23151     23177     23142     23159     23161     23142     23159     23162
     23142     23159     23163     23161     23159     23162     23161     23159     23163
     23162     23159     23163     23159     23163     23165     23163     23165     23167
     23163     23165     23169     23167     23165     23169     23165     23169     23171
     23165     23169     23172     23165     23169     23240     23171     23169     23172
     23171     23169     23240     23172     23169     23240     23151     23177     23179
     23151     23177     23180     23151     23177     23181     23179     23177     23180
     23179     23177     23181     23180     23177     23181     23177     23181     23183
     23177     23181     23184     23177     23181     23185     23183     23181     23184
     23183     23181     23185     23184     23181     23185     23181     23185     23187
     23181     23185     23188     23181     23185     23189     23187     23185     23188
     23187     23185     23189     23188     23185     23189     23185     23189     23191
     23185     23189     23192     23185     23189     23193     23191     23189     23192
     23191     23189     23193     23192     23189     23193     23189     23193     23195
     23189     23193     23196     23189     23193     23197     23195     23193     23196
     23195     23193     23197     23196     23193     23197     23193     23197     23199
     23193     23197     23200     23193     23197     23201     23199     23197     23200
     23199     23197     23201     23200     23197     23201     23197     23201     23203
     23197     23201     23204     23203     23201     23204     23201     23204     23206
     23201     23204     23207     23206     23204     23207     23204     23207     23209
     23204     23207     23210     23204     23207     23211     23209     23207     23210
     23209     23207     23211     23210     23207     23211     23207     23211     23213
     23207     23211     23214     23207     23211     23215     23213     23211     23214
     23213     23211     23215     23214     23211     23215     23211     23215     23217
     23211     23215     23218     23211     23215     23219     23217     23215     23218
     23217     23215     23219     23218     23215     23219     23215     23219     23221
     23215     23219     23222     23215     23219     23223     23221     23219     23222
     23221     23219     23223     23222     23219     23223     23219     23223     23225
     23219     23223     23226     23219     23223     23227     23225     23223     23226
     23225     23223     23227     23226     23223     23227     23223     23227     23229
     23223     23227     23230     23223     23227     23231     23229     23227     23230
     23229     23227     23231     23230     23227     23231     23227     23231     23233
     23227     23231     23234     23227     23231     23235     23233     23231     23234
     23233     23231     23235     23234     23231     23235     23231     23235     23237
     23231     23235     23238     23231     23235     23239     23237     23235     23238
     23237     23235     23239     23238     23235     23239     23169     23240     23242
     23169     23240     23243     23169     23240     23244     23242     23240     23243
     23242     23240     23244     23243     23240     23244     23240     23244     23246
     23240     23244     23247     23240     23244     23248     23246     23244     23247
     23246     23244     23248     23247     23244     23248     23244     23248     23250
     23244     23248     23251     23244     23248     23252     23250     23248     23251
     23250     23248     23252     23251     23248     23252     23248     23252     23254
     23248     23252     23255     23248     23252     23256     23254     23252     23255
     23254     23252     23256     23255     23252     23256     23252     23256     23258
     23252     23256     23259     23252     23256     23260     23258     23256     23259
     23258     23256     23260     23259     23256     23260     23256     23260     23262
     23256     23260     23263     23256     23260     23264     23262     23260     23263
     23262     23260     23264     23263     23260     23264     23260     23264     23266
     23260     23264     23267     23260     23264     23268     23266     23264     23267
     23266     23264     23268     23267     23264     23268     23264     23268     23270
     23264     23268     23271     23264     23268     23272     23270     23268     23271
     23270     23268     23272     23271     23268     23272     23268     23272     23274
     23268     23272     23275     23268     23272     23276     23274     23272     23275
     23274     23272     23276     23275     23272     23276     23272     23276     23278
     23272     23276     23279     23272     23276     23280     23278     23276     23279
     23278     23276     23280     23279     23276     23280     23276     23280     23282
     23276     23280     23283     23276     23280     23284     23282     23280     23283
     23282     23280     23284     23283     23280     23284     23280     23284     23286
     23280     23284     23287     23280     23284     23288     23286     23284     23287
     23286     23284     23288     23287     23284     23288     23284     23288     23290
     23284     23288     23291     23284     23288     23292     23290     23288     23291
     23290     23288     23292     23291     23288     23292     23288     23292     23294
     23288     23292     23295     23288     23292     23296     23294     23292     23295
     23294     23292     23296     23295     23292     23296     23299     23297     23300
     23299     23297     23301     23299     23297     23302     23300     23297     23301
     23300     23297     23302     23301     23297     23302     23297     23302     23304
     23297     23302     23305     23297     23302     23306     23304     23302     23305
     23304     23302     23306     23305     23302     23306     23302     23306     23308
     23302     23306     23309     23302     23306     23318     23308     23306     23309
     23308     23306     23318     23309     23306     23318     23312     23310     23314
     23312     23310     23316     23312     23310     23318     23314     23310     23316
     23314     23310     23318     23316     23310     23318     23310     23316     23320
     23306     23318     23310     23316     23320     23322     23316     23320     23323
     23316     23320     23324     23322     23320     23323     23322     23320     23324
     23323     23320     23324     23320     23324     23326     23320     23324     23327
     23320     23324     23341     23326     23324     23327     23326     23324     23341
     23327     23324     23341     23324     23327     23329     23327     23329     23331
     23327     23329     23333     23331     23329     23333     23329     23333     23335
     23329     23333     23336     23329     23333     23359     23335     23333     23336
     23335     23333     23359     23336     23333     23359     23324     23341     23343
     23324     23341     23344     23324     23341     23345     23343     23341     23344
     23343     23341     23345     23344     23341     23345     23341     23345     23347
     23345     23347     23349     23345     23347     23351     23349     23347     23351
     23347     23351     23353     23347     23351     23354     23347     23351     23422
     23353     23351     23354     23353     23351     23422     23354     23351     23422
     23333     23359     23361     23333     23359     23362     23333     23359     23363
     23361     23359     23362     23361     23359     23363     23362     23359     23363
     23359     23363     23365     23359     23363     23366     23359     23363     23367
     23365     23363     23366     23365     23363     23367     23366     23363     23367
     23363     23367     23369     23363     23367     23370     23363     23367     23371
     23369     23367     23370     23369     23367     23371     23370     23367     23371
     23367     23371     23373     23367     23371     23374     23367     23371     23375
     23373     23371     23374     23373     23371     23375     23374     23371     23375
     23371     23375     23377     23371     23375     23378     23371     23375     23379
     23377     23375     23378     23377     23375     23379     23378     23375     23379
     23375     23379     23381     23375     23379     23382     23375     23379     23383
     23381     23379     23382     23381     23379     23383     23382     23379     23383
     23379     23383     23385     23379     23383     23386     23385     23383     23386
     23383     23386     23388     23383     23386     23389     23388     23386     23389
     23386     23389     23391     23386     23389     23392     23386     23389     23393
     23391     23389     23392     23391     23389     23393     23392     23389     23393
     23389     23393     23395     23389     23393     23396     23389     23393     23397
     23395     23393     23396     23395     23393     23397     23396     23393     23397
     23393     23397     23399     23393     23397     23400     23393     23397     23401
     23399     23397     23400     23399     23397     23401     23400     23397     23401
     23397     23401     23403     23397     23401     23404     23397     23401     23405
     23403     23401     23404     23403     23401     23405     23404     23401     23405
     23401     23405     23407     23401     23405     23408     23401     23405     23409
     23407     23405     23408     23407     23405     23409     23408     23405     23409
     23405     23409     23411     23405     23409     23412     23405     23409     23413
     23411     23409     23412     23411     23409     23413     23412     23409     23413
     23409     23413     23415     23409     23413     23416     23409     23413     23417
     23415     23413     23416     23415     23413     23417     23416     23413     23417
     23413     23417     23419     23413     23417     23420     23413     23417     23421
     23419     23417     23420     23419     23417     23421     23420     23417     23421
     23351     23422     23424     23351     23422     23425     23351     23422     23426
     23424     23422     23425     23424     23422     23426     23425     23422     23426
     23422     23426     23428     23422     23426     23429     23422     23426     23430
     23428     23426     23429     23428     23426     23430     23429     23426     23430
     23426     23430     23432     23426     23430     23433     23426     23430     23434
     23432     23430     23433     23432     23430     23434     23433     23430     23434
     23430     23434     23436     23430     23434     23437     23430     23434     23438
     23436     23434     23437     23436     23434     23438     23437     23434     23438
     23434     23438     23440     23434     23438     23441     23434     23438     23442
     23440     23438     23441     23440     23438     23442     23441     23438     23442
     23438     23442     23444     23438     23442     23445     23438     23442     23446
     23444     23442     23445     23444     23442     23446     23445     23442     23446
     23442     23446     23448     23442     23446     23449     23442     23446     23450
     23448     23446     23449     23448     23446     23450     23449     23446     23450
     23446     23450     23452     23446     23450     23453     23446     23450     23454
     23452     23450     23453     23452     23450     23454     23453     23450     23454
     23450     23454     23456     23450     23454     23457     23450     23454     23458
     23456     23454     23457     23456     23454     23458     23457     23454     23458
     23454     23458     23460     23454     23458     23461     23454     23458     23462
     23460     23458     23461     23460     23458     23462     23461     23458     23462
     23458     23462     23464     23458     23462     23465     23458     23462     23466
     23464     23462     23465     23464     23462     23466     23465     23462     23466
     23462     23466     23468     23462     23466     23469     23462     23466     23470
     23468     23466     23469     23468     23466     23470     23469     23466     23470
     23466     23470     23472     23466     23470     23473     23466     23470     23474
     23472     23470     23473     23472     23470     23474     23473     23470     23474
     23470     23474     23476     23470     23474     23477     23470     23474     23478
     23476     23474     23477     23476     23474     23478     23477     23474     23478
     23481     23479     23482     23481     23479     23483     23481     23479     23484
     23482     23479     23483     23482     23479     23484     23483     23479     23484
     23479     23484     23486     23479     23484     23487     23479     23484     23488
     23486     23484     23487     23486     23484     23488     23487     23484     23488
     23484     23488     23490     23484     23488     23491     23484     23488     23500
     23490     23488     23491     23490     23488     23500     23491     23488     23500
     23494     23492     23496     23494     23492     23498     23494     23492     23500
     23496     23492     23498     23496     23492     23500     23498     23492     23500
     23492     23498     23502     23488     23500     23492     23498     23502     23504
     23498     23502     23505     23498     23502     23506     23504     23502     23505
     23504     23502     23506     23505     23502     23506     23502     23506     23508
     23502     23506     23509     23502     23506     23523     23508     23506     23509
     23508     23506     23523     23509     23506     23523     23506     23509     23511
     23509     23511     23513     23509     23511     23515     23513     23511     23515
     23511     23515     23517     23511     23515     23518     23511     23515     23541
     23517     23515     23518     23517     23515     23541     23518     23515     23541
     23506     23523     23525     23506     23523     23526     23506     23523     23527
     23525     23523     23526     23525     23523     23527     23526     23523     23527
     23523     23527     23529     23527     23529     23531     23527     23529     23533
     23531     23529     23533     23529     23533     23535     23529     23533     23536
     23529     23533     23604     23535     23533     23536     23535     23533     23604
     23536     23533     23604     23515     23541     23543     23515     23541     23544
     23515     23541     23545     23543     23541     23544     23543     23541     23545
     23544     23541     23545     23541     23545     23547     23541     23545     23548
     23541     23545     23549     23547     23545     23548     23547     23545     23549
     23548     23545     23549     23545     23549     23551     23545     23549     23552
     23545     23549     23553     23551     23549     23552     23551     23549     23553
     23552     23549     23553     23549     23553     23555     23549     23553     23556
     23549     23553     23557     23555     23553     23556     23555     23553     23557
     23556     23553     23557     23553     23557     23559     23553     23557     23560
     23553     23557     23561     23559     23557     23560     23559     23557     23561
     23560     23557     23561     23557     23561     23563     23557     23561     23564
     23557     23561     23565     23563     23561     23564     23563     23561     23565
     23564     23561     23565     23561     23565     23567     23561     23565     23568
     23567     23565     23568     23565     23568     23570     23565     23568     23571
     23570     23568     23571     23568     23571     23573     23568     23571     23574
     23568     23571     23575     23573     23571     23574     23573     23571     23575
     23574     23571     23575     23571     23575     23577     23571     23575     23578
     23571     23575     23579     23577     23575     23578     23577     23575     23579
     23578     23575     23579     23575     23579     23581     23575     23579     23582
     23575     23579     23583     23581     23579     23582     23581     23579     23583
     23582     23579     23583     23579     23583     23585     23579     23583     23586
     23579     23583     23587     23585     23583     23586     23585     23583     23587
     23586     23583     23587     23583     23587     23589     23583     23587     23590
     23583     23587     23591     23589     23587     23590     23589     23587     23591
     23590     23587     23591     23587     23591     23593     23587     23591     23594
     23587     23591     23595     23593     23591     23594     23593     23591     23595
     23594     23591     23595     23591     23595     23597     23591     23595     23598
     23591     23595     23599     23597     23595     23598     23597     23595     23599
     23598     23595     23599     23595     23599     23601     23595     23599     23602
     23595     23599     23603     23601     23599     23602     23601     23599     23603
     23602     23599     23603     23533     23604     23606     23533     23604     23607
     23533     23604     23608     23606     23604     23607     23606     23604     23608
     23607     23604     23608     23604     23608     23610     23604     23608     23611
     23604     23608     23612     23610     23608     23611     23610     23608     23612
     23611     23608     23612     23608     23612     23614     23608     23612     23615
     23608     23612     23616     23614     23612     23615     23614     23612     23616
     23615     23612     23616     23612     23616     23618     23612     23616     23619
     23612     23616     23620     23618     23616     23619     23618     23616     23620
     23619     23616     23620     23616     23620     23622     23616     23620     23623
     23616     23620     23624     23622     23620     23623     23622     23620     23624
     23623     23620     23624     23620     23624     23626     23620     23624     23627
     23620     23624     23628     23626     23624     23627     23626     23624     23628
     23627     23624     23628     23624     23628     23630     23624     23628     23631
     23624     23628     23632     23630     23628     23631     23630     23628     23632
     23631     23628     23632     23628     23632     23634     23628     23632     23635
     23628     23632     23636     23634     23632     23635     23634     23632     23636
     23635     23632     23636     23632     23636     23638     23632     23636     23639
     23632     23636     23640     23638     23636     23639     23638     23636     23640
     23639     23636     23640     23636     23640     23642     23636     23640     23643
     23636     23640     23644     23642     23640     23643     23642     23640     23644
     23643     23640     23644     23640     23644     23646     23640     23644     23647
     23640     23644     23648     23646     23644     23647     23646     23644     23648
     23647     23644     23648     23644     23648     23650     23644     23648     23651
     23644     23648     23652     23650     23648     23651     23650     23648     23652
     23651     23648     23652     23648     23652     23654     23648     23652     23655
     23648     23652     23656     23654     23652     23655     23654     23652     23656
     23655     23652     23656     23652     23656     23658     23652     23656     23659
     23652     23656     23660     23658     23656     23659     23658     23656     23660
     23659     23656     23660     23663     23661     23664     23663     23661     23665
     23663     23661     23666     23664     23661     23665     23664     23661     23666
     23665     23661     23666     23661     23666     23668     23661     23666     23669
     23661     23666     23670     23668     23666     23669     23668     23666     23670
     23669     23666     23670     23666     23670     23672     23666     23670     23673
     23666     23670     23682     23672     23670     23673     23672     23670     23682
     23673     23670     23682     23676     23674     23678     23676     23674     23680
     23676     23674     23682     23678     23674     23680     23678     23674     23682
     23680     23674     23682     23674     23680     23684     23670     23682     23674
     23680     23684     23686     23680     23684     23687     23680     23684     23688
     23686     23684     23687     23686     23684     23688     23687     23684     23688
     23684     23688     23690     23684     23688     23691     23684     23688     23705
     23690     23688     23691     23690     23688     23705     23691     23688     23705
     23688     23691     23693     23691     23693     23695     23691     23693     23697
     23695     23693     23697     23693     23697     23699     23693     23697     23700
     23693     23697     23723     23699     23697     23700     23699     23697     23723
     23700     23697     23723     23688     23705     23707     23688     23705     23708
     23688     23705     23709     23707     23705     23708     23707     23705     23709
     23708     23705     23709     23705     23709     23711     23709     23711     23713
     23709     23711     23715     23713     23711     23715     23711     23715     23717
     23711     23715     23718     23711     23715     23786     23717     23715     23718
     23717     23715     23786     23718     23715     23786     23697     23723     23725
     23697     23723     23726     23697     23723     23727     23725     23723     23726
     23725     23723     23727     23726     23723     23727     23723     23727     23729
     23723     23727     23730     23723     23727     23731     23729     23727     23730
     23729     23727     23731     23730     23727     23731     23727     23731     23733
     23727     23731     23734     23727     23731     23735     23733     23731     23734
     23733     23731     23735     23734     23731     23735     23731     23735     23737
     23731     23735     23738     23731     23735     23739     23737     23735     23738
     23737     23735     23739     23738     23735     23739     23735     23739     23741
     23735     23739     23742     23735     23739     23743     23741     23739     23742
     23741     23739     23743     23742     23739     23743     23739     23743     23745
     23739     23743     23746     23739     23743     23747     23745     23743     23746
     23745     23743     23747     23746     23743     23747     23743     23747     23749
     23743     23747     23750     23749     23747     23750     23747     23750     23752
     23747     23750     23753     23752     23750     23753     23750     23753     23755
     23750     23753     23756     23750     23753     23757     23755     23753     23756
     23755     23753     23757     23756     23753     23757     23753     23757     23759
     23753     23757     23760     23753     23757     23761     23759     23757     23760
     23759     23757     23761     23760     23757     23761     23757     23761     23763
     23757     23761     23764     23757     23761     23765     23763     23761     23764
     23763     23761     23765     23764     23761     23765     23761     23765     23767
     23761     23765     23768     23761     23765     23769     23767     23765     23768
     23767     23765     23769     23768     23765     23769     23765     23769     23771
     23765     23769     23772     23765     23769     23773     23771     23769     23772
     23771     23769     23773     23772     23769     23773     23769     23773     23775
     23769     23773     23776     23769     23773     23777     23775     23773     23776
     23775     23773     23777     23776     23773     23777     23773     23777     23779
     23773     23777     23780     23773     23777     23781     23779     23777     23780
     23779     23777     23781     23780     23777     23781     23777     23781     23783
     23777     23781     23784     23777     23781     23785     23783     23781     23784
     23783     23781     23785     23784     23781     23785     23715     23786     23788
     23715     23786     23789     23715     23786     23790     23788     23786     23789
     23788     23786     23790     23789     23786     23790     23786     23790     23792
     23786     23790     23793     23786     23790     23794     23792     23790     23793
     23792     23790     23794     23793     23790     23794     23790     23794     23796
     23790     23794     23797     23790     23794     23798     23796     23794     23797
     23796     23794     23798     23797     23794     23798     23794     23798     23800
     23794     23798     23801     23794     23798     23802     23800     23798     23801
     23800     23798     23802     23801     23798     23802     23798     23802     23804
     23798     23802     23805     23798     23802     23806     23804     23802     23805
     23804     23802     23806     23805     23802     23806     23802     23806     23808
     23802     23806     23809     23802     23806     23810     23808     23806     23809
     23808     23806     23810     23809     23806     23810     23806     23810     23812
     23806     23810     23813     23806     23810     23814     23812     23810     23813
     23812     23810     23814     23813     23810     23814     23810     23814     23816
     23810     23814     23817     23810     23814     23818     23816     23814     23817
     23816     23814     23818     23817     23814     23818     23814     23818     23820
     23814     23818     23821     23814     23818     23822     23820     23818     23821
     23820     23818     23822     23821     23818     23822     23818     23822     23824
     23818     23822     23825     23818     23822     23826     23824     23822     23825
     23824     23822     23826     23825     23822     23826     23822     23826     23828
     23822     23826     23829     23822     23826     23830     23828     23826     23829
     23828     23826     23830     23829     23826     23830     23826     23830     23832
     23826     23830     23833     23826     23830     23834     23832     23830     23833
     23832     23830     23834     23833     23830     23834     23830     23834     23836
     23830     23834     23837     23830     23834     23838     23836     23834     23837
     23836     23834     23838     23837     23834     23838     23834     23838     23840
     23834     23838     23841     23834     23838     23842     23840     23838     23841
     23840     23838     23842     23841     23838     23842     23845     23843     23846
     23845     23843     23847     23845     23843     23848     23846     23843     23847
     23846     23843     23848     23847     23843     23848     23843     23848     23850
     23843     23848     23851     23843     23848     23852     23850     23848     23851
     23850     23848     23852     23851     23848     23852     23848     23852     23854
     23848     23852     23855     23848     23852     23864     23854     23852     23855
     23854     23852     23864     23855     23852     23864     23858     23856     23860
     23858     23856     23862     23858     23856     23864     23860     23856     23862
     23860     23856     23864     23862     23856     23864     23856     23862     23866
     23852     23864     23856     23862     23866     23868     23862     23866     23869
     23862     23866     23870     23868     23866     23869     23868     23866     23870
     23869     23866     23870     23866     23870     23872     23866     23870     23873
     23866     23870     23887     23872     23870     23873     23872     23870     23887
     23873     23870     23887     23870     23873     23875     23873     23875     23877
     23873     23875     23879     23877     23875     23879     23875     23879     23881
     23875     23879     23882     23875     23879     23905     23881     23879     23882
     23881     23879     23905     23882     23879     23905     23870     23887     23889
     23870     23887     23890     23870     23887     23891     23889     23887     23890
     23889     23887     23891     23890     23887     23891     23887     23891     23893
     23891     23893     23895     23891     23893     23897     23895     23893     23897
     23893     23897     23899     23893     23897     23900     23893     23897     23968
     23899     23897     23900     23899     23897     23968     23900     23897     23968
     23879     23905     23907     23879     23905     23908     23879     23905     23909
     23907     23905     23908     23907     23905     23909     23908     23905     23909
     23905     23909     23911     23905     23909     23912     23905     23909     23913
     23911     23909     23912     23911     23909     23913     23912     23909     23913
     23909     23913     23915     23909     23913     23916     23909     23913     23917
     23915     23913     23916     23915     23913     23917     23916     23913     23917
     23913     23917     23919     23913     23917     23920     23913     23917     23921
     23919     23917     23920     23919     23917     23921     23920     23917     23921
     23917     23921     23923     23917     23921     23924     23917     23921     23925
     23923     23921     23924     23923     23921     23925     23924     23921     23925
     23921     23925     23927     23921     23925     23928     23921     23925     23929
     23927     23925     23928     23927     23925     23929     23928     23925     23929
     23925     23929     23931     23925     23929     23932     23931     23929     23932
     23929     23932     23934     23929     23932     23935     23934     23932     23935
     23932     23935     23937     23932     23935     23938     23932     23935     23939
     23937     23935     23938     23937     23935     23939     23938     23935     23939
     23935     23939     23941     23935     23939     23942     23935     23939     23943
     23941     23939     23942     23941     23939     23943     23942     23939     23943
     23939     23943     23945     23939     23943     23946     23939     23943     23947
     23945     23943     23946     23945     23943     23947     23946     23943     23947
     23943     23947     23949     23943     23947     23950     23943     23947     23951
     23949     23947     23950     23949     23947     23951     23950     23947     23951
     23947     23951     23953     23947     23951     23954     23947     23951     23955
     23953     23951     23954     23953     23951     23955     23954     23951     23955
     23951     23955     23957     23951     23955     23958     23951     23955     23959
     23957     23955     23958     23957     23955     23959     23958     23955     23959
     23955     23959     23961     23955     23959     23962     23955     23959     23963
     23961     23959     23962     23961     23959     23963     23962     23959     23963
     23959     23963     23965     23959     23963     23966     23959     23963     23967
     23965     23963     23966     23965     23963     23967     23966     23963     23967
     23897     23968     23970     23897     23968     23971     23897     23968     23972
     23970     23968     23971     23970     23968     23972     23971     23968     23972
     23968     23972     23974     23968     23972     23975     23968     23972     23976
     23974     23972     23975     23974     23972     23976     23975     23972     23976
     23972     23976     23978     23972     23976     23979     23972     23976     23980
     23978     23976     23979     23978     23976     23980     23979     23976     23980
     23976     23980     23982     23976     23980     23983     23976     23980     23984
     23982     23980     23983     23982     23980     23984     23983     23980     23984
     23980     23984     23986     23980     23984     23987     23980     23984     23988
     23986     23984     23987     23986     23984     23988     23987     23984     23988
     23984     23988     23990     23984     23988     23991     23984     23988     23992
     23990     23988     23991     23990     23988     23992     23991     23988     23992
     23988     23992     23994     23988     23992     23995     23988     23992     23996
     23994     23992     23995     23994     23992     23996     23995     23992     23996
     23992     23996     23998     23992     23996     23999     23992     23996     24000
     23998     23996     23999     23998     23996     24000     23999     23996     24000
     23996     24000     24002     23996     24000     24003     23996     24000     24004
     24002     24000     24003     24002     24000     24004     24003     24000     24004
     24000     24004     24006     24000     24004     24007     24000     24004     24008
     24006     24004     24007     24006     24004     24008     24007     24004     24008
     24004     24008     24010     24004     24008     24011     24004     24008     24012
     24010     24008     24011     24010     24008     24012     24011     24008     24012
     24008     24012     24014     24008     24012     24015     24008     24012     24016
     24014     24012     24015     24014     24012     24016     24015     24012     24016
     24012     24016     24018     24012     24016     24019     24012     24016     24020
     24018     24016     24019     24018     24016     24020     24019     24016     24020
     24016     24020     24022     24016     24020     24023     24016     24020     24024
     24022     24020     24023     24022     24020     24024     24023     24020     24024
     24027     24025     24028     24027     24025     24029     24027     24025     24030
     24028     24025     24029     24028     24025     24030     24029     24025     24030
     24025     24030     24032     24025     24030     24033     24025     24030     24034
     24032     24030     24033     24032     24030     24034     24033     24030     24034
     24030     24034     24036     24030     24034     24037     24030     24034     24046
     24036     24034     24037     24036     24034     24046     24037     24034     24046
     24040     24038     24042     24040     24038     24044     24040     24038     24046
     24042     24038     24044     24042     24038     24046     24044     24038     24046
     24038     24044     24048     24034     24046     24038     24044     24048     24050
     24044     24048     24051     24044     24048     24052     24050     24048     24051
     24050     24048     24052     24051     24048     24052     24048     24052     24054
     24048     24052     24055     24048     24052     24069     24054     24052     24055
     24054     24052     24069     24055     24052     24069     24052     24055     24057
     24055     24057     24059     24055     24057     24061     24059     24057     24061
     24057     24061     24063     24057     24061     24064     24057     24061     24087
     24063     24061     24064     24063     24061     24087     24064     24061     24087
     24052     24069     24071     24052     24069     24072     24052     24069     24073
     24071     24069     24072     24071     24069     24073     24072     24069     24073
     24069     24073     24075     24073     24075     24077     24073     24075     24079
     24077     24075     24079     24075     24079     24081     24075     24079     24082
     24075     24079     24150     24081     24079     24082     24081     24079     24150
     24082     24079     24150     24061     24087     24089     24061     24087     24090
     24061     24087     24091     24089     24087     24090     24089     24087     24091
     24090     24087     24091     24087     24091     24093     24087     24091     24094
     24087     24091     24095     24093     24091     24094     24093     24091     24095
     24094     24091     24095     24091     24095     24097     24091     24095     24098
     24091     24095     24099     24097     24095     24098     24097     24095     24099
     24098     24095     24099     24095     24099     24101     24095     24099     24102
     24095     24099     24103     24101     24099     24102     24101     24099     24103
     24102     24099     24103     24099     24103     24105     24099     24103     24106
     24099     24103     24107     24105     24103     24106     24105     24103     24107
     24106     24103     24107     24103     24107     24109     24103     24107     24110
     24103     24107     24111     24109     24107     24110     24109     24107     24111
     24110     24107     24111     24107     24111     24113     24107     24111     24114
     24113     24111     24114     24111     24114     24116     24111     24114     24117
     24116     24114     24117     24114     24117     24119     24114     24117     24120
     24114     24117     24121     24119     24117     24120     24119     24117     24121
     24120     24117     24121     24117     24121     24123     24117     24121     24124
     24117     24121     24125     24123     24121     24124     24123     24121     24125
     24124     24121     24125     24121     24125     24127     24121     24125     24128
     24121     24125     24129     24127     24125     24128     24127     24125     24129
     24128     24125     24129     24125     24129     24131     24125     24129     24132
     24125     24129     24133     24131     24129     24132     24131     24129     24133
     24132     24129     24133     24129     24133     24135     24129     24133     24136
     24129     24133     24137     24135     24133     24136     24135     24133     24137
     24136     24133     24137     24133     24137     24139     24133     24137     24140
     24133     24137     24141     24139     24137     24140     24139     24137     24141
     24140     24137     24141     24137     24141     24143     24137     24141     24144
     24137     24141     24145     24143     24141     24144     24143     24141     24145
     24144     24141     24145     24141     24145     24147     24141     24145     24148
     24141     24145     24149     24147     24145     24148     24147     24145     24149
     24148     24145     24149     24079     24150     24152     24079     24150     24153
     24079     24150     24154     24152     24150     24153     24152     24150     24154
     24153     24150     24154     24150     24154     24156     24150     24154     24157
     24150     24154     24158     24156     24154     24157     24156     24154     24158
     24157     24154     24158     24154     24158     24160     24154     24158     24161
     24154     24158     24162     24160     24158     24161     24160     24158     24162
     24161     24158     24162     24158     24162     24164     24158     24162     24165
     24158     24162     24166     24164     24162     24165     24164     24162     24166
     24165     24162     24166     24162     24166     24168     24162     24166     24169
     24162     24166     24170     24168     24166     24169     24168     24166     24170
     24169     24166     24170     24166     24170     24172     24166     24170     24173
     24166     24170     24174     24172     24170     24173     24172     24170     24174
     24173     24170     24174     24170     24174     24176     24170     24174     24177
     24170     24174     24178     24176     24174     24177     24176     24174     24178
     24177     24174     24178     24174     24178     24180     24174     24178     24181
     24174     24178     24182     24180     24178     24181     24180     24178     24182
     24181     24178     24182     24178     24182     24184     24178     24182     24185
     24178     24182     24186     24184     24182     24185     24184     24182     24186
     24185     24182     24186     24182     24186     24188     24182     24186     24189
     24182     24186     24190     24188     24186     24189     24188     24186     24190
     24189     24186     24190     24186     24190     24192     24186     24190     24193
     24186     24190     24194     24192     24190     24193     24192     24190     24194
     24193     24190     24194     24190     24194     24196     24190     24194     24197
     24190     24194     24198     24196     24194     24197     24196     24194     24198
     24197     24194     24198     24194     24198     24200     24194     24198     24201
     24194     24198     24202     24200     24198     24201     24200     24198     24202
     24201     24198     24202     24198     24202     24204     24198     24202     24205
     24198     24202     24206     24204     24202     24205     24204     24202     24206
     24205     24202     24206     24209     24207     24210     24209     24207     24211
     24209     24207     24212     24210     24207     24211     24210     24207     24212
     24211     24207     24212     24207     24212     24214     24207     24212     24215
     24207     24212     24216     24214     24212     24215     24214     24212     24216
     24215     24212     24216     24212     24216     24218     24212     24216     24219
     24212     24216     24228     24218     24216     24219     24218     24216     24228
     24219     24216     24228     24222     24220     24224     24222     24220     24226
     24222     24220     24228     24224     24220     24226     24224     24220     24228
     24226     24220     24228     24220     24226     24230     24216     24228     24220
     24226     24230     24232     24226     24230     24233     24226     24230     24234
     24232     24230     24233     24232     24230     24234     24233     24230     24234
     24230     24234     24236     24230     24234     24237     24230     24234     24251
     24236     24234     24237     24236     24234     24251     24237     24234     24251
     24234     24237     24239     24237     24239     24241     24237     24239     24243
     24241     24239     24243     24239     24243     24245     24239     24243     24246
     24239     24243     24269     24245     24243     24246     24245     24243     24269
     24246     24243     24269     24234     24251     24253     24234     24251     24254
     24234     24251     24255     24253     24251     24254     24253     24251     24255
     24254     24251     24255     24251     24255     24257     24255     24257     24259
     24255     24257     24261     24259     24257     24261     24257     24261     24263
     24257     24261     24264     24257     24261     24332     24263     24261     24264
     24263     24261     24332     24264     24261     24332     24243     24269     24271
     24243     24269     24272     24243     24269     24273     24271     24269     24272
     24271     24269     24273     24272     24269     24273     24269     24273     24275
     24269     24273     24276     24269     24273     24277     24275     24273     24276
     24275     24273     24277     24276     24273     24277     24273     24277     24279
     24273     24277     24280     24273     24277     24281     24279     24277     24280
     24279     24277     24281     24280     24277     24281     24277     24281     24283
     24277     24281     24284     24277     24281     24285     24283     24281     24284
     24283     24281     24285     24284     24281     24285     24281     24285     24287
     24281     24285     24288     24281     24285     24289     24287     24285     24288
     24287     24285     24289     24288     24285     24289     24285     24289     24291
     24285     24289     24292     24285     24289     24293     24291     24289     24292
     24291     24289     24293     24292     24289     24293     24289     24293     24295
     24289     24293     24296     24295     24293     24296     24293     24296     24298
     24293     24296     24299     24298     24296     24299     24296     24299     24301
     24296     24299     24302     24296     24299     24303     24301     24299     24302
     24301     24299     24303     24302     24299     24303     24299     24303     24305
     24299     24303     24306     24299     24303     24307     24305     24303     24306
     24305     24303     24307     24306     24303     24307     24303     24307     24309
     24303     24307     24310     24303     24307     24311     24309     24307     24310
     24309     24307     24311     24310     24307     24311     24307     24311     24313
     24307     24311     24314     24307     24311     24315     24313     24311     24314
     24313     24311     24315     24314     24311     24315     24311     24315     24317
     24311     24315     24318     24311     24315     24319     24317     24315     24318
     24317     24315     24319     24318     24315     24319     24315     24319     24321
     24315     24319     24322     24315     24319     24323     24321     24319     24322
     24321     24319     24323     24322     24319     24323     24319     24323     24325
     24319     24323     24326     24319     24323     24327     24325     24323     24326
     24325     24323     24327     24326     24323     24327     24323     24327     24329
     24323     24327     24330     24323     24327     24331     24329     24327     24330
     24329     24327     24331     24330     24327     24331     24261     24332     24334
     24261     24332     24335     24261     24332     24336     24334     24332     24335
     24334     24332     24336     24335     24332     24336     24332     24336     24338
     24332     24336     24339     24332     24336     24340     24338     24336     24339
     24338     24336     24340     24339     24336     24340     24336     24340     24342
     24336     24340     24343     24336     24340     24344     24342     24340     24343
     24342     24340     24344     24343     24340     24344     24340     24344     24346
     24340     24344     24347     24340     24344     24348     24346     24344     24347
     24346     24344     24348     24347     24344     24348     24344     24348     24350
     24344     24348     24351     24344     24348     24352     24350     24348     24351
     24350     24348     24352     24351     24348     24352     24348     24352     24354
     24348     24352     24355     24348     24352     24356     24354     24352     24355
     24354     24352     24356     24355     24352     24356     24352     24356     24358
     24352     24356     24359     24352     24356     24360     24358     24356     24359
     24358     24356     24360     24359     24356     24360     24356     24360     24362
     24356     24360     24363     24356     24360     24364     24362     24360     24363
     24362     24360     24364     24363     24360     24364     24360     24364     24366
     24360     24364     24367     24360     24364     24368     24366     24364     24367
     24366     24364     24368     24367     24364     24368     24364     24368     24370
     24364     24368     24371     24364     24368     24372     24370     24368     24371
     24370     24368     24372     24371     24368     24372     24368     24372     24374
     24368     24372     24375     24368     24372     24376     24374     24372     24375
     24374     24372     24376     24375     24372     24376     24372     24376     24378
     24372     24376     24379     24372     24376     24380     24378     24376     24379
     24378     24376     24380     24379     24376     24380     24376     24380     24382
     24376     24380     24383     24376     24380     24384     24382     24380     24383
     24382     24380     24384     24383     24380     24384     24380     24384     24386
     24380     24384     24387     24380     24384     24388     24386     24384     24387
     24386     24384     24388     24387     24384     24388     24391     24389     24392
     24391     24389     24393     24391     24389     24394     24392     24389     24393
     24392     24389     24394     24393     24389     24394     24389     24394     24396
     24389     24394     24397     24389     24394     24398     24396     24394     24397
     24396     24394     24398     24397     24394     24398     24394     24398     24400
     24394     24398     24401     24394     24398     24410     24400     24398     24401
     24400     24398     24410     24401     24398     24410     24404     24402     24406
     24404     24402     24408     24404     24402     24410     24406     24402     24408
     24406     24402     24410     24408     24402     24410     24402     24408     24412
     24398     24410     24402     24408     24412     24414     24408     24412     24415
     24408     24412     24416     24414     24412     24415     24414     24412     24416
     24415     24412     24416     24412     24416     24418     24412     24416     24419
     24412     24416     24433     24418     24416     24419     24418     24416     24433
     24419     24416     24433     24416     24419     24421     24419     24421     24423
     24419     24421     24425     24423     24421     24425     24421     24425     24427
     24421     24425     24428     24421     24425     24451     24427     24425     24428
     24427     24425     24451     24428     24425     24451     24416     24433     24435
     24416     24433     24436     24416     24433     24437     24435     24433     24436
     24435     24433     24437     24436     24433     24437     24433     24437     24439
     24437     24439     24441     24437     24439     24443     24441     24439     24443
     24439     24443     24445     24439     24443     24446     24439     24443     24514
     24445     24443     24446     24445     24443     24514     24446     24443     24514
     24425     24451     24453     24425     24451     24454     24425     24451     24455
     24453     24451     24454     24453     24451     24455     24454     24451     24455
     24451     24455     24457     24451     24455     24458     24451     24455     24459
     24457     24455     24458     24457     24455     24459     24458     24455     24459
     24455     24459     24461     24455     24459     24462     24455     24459     24463
     24461     24459     24462     24461     24459     24463     24462     24459     24463
     24459     24463     24465     24459     24463     24466     24459     24463     24467
     24465     24463     24466     24465     24463     24467     24466     24463     24467
     24463     24467     24469     24463     24467     24470     24463     24467     24471
     24469     24467     24470     24469     24467     24471     24470     24467     24471
     24467     24471     24473     24467     24471     24474     24467     24471     24475
     24473     24471     24474     24473     24471     24475     24474     24471     24475
     24471     24475     24477     24471     24475     24478     24477     24475     24478
     24475     24478     24480     24475     24478     24481     24480     24478     24481
     24478     24481     24483     24478     24481     24484     24478     24481     24485
     24483     24481     24484     24483     24481     24485     24484     24481     24485
     24481     24485     24487     24481     24485     24488     24481     24485     24489
     24487     24485     24488     24487     24485     24489     24488     24485     24489
     24485     24489     24491     24485     24489     24492     24485     24489     24493
     24491     24489     24492     24491     24489     24493     24492     24489     24493
     24489     24493     24495     24489     24493     24496     24489     24493     24497
     24495     24493     24496     24495     24493     24497     24496     24493     24497
     24493     24497     24499     24493     24497     24500     24493     24497     24501
     24499     24497     24500     24499     24497     24501     24500     24497     24501
     24497     24501     24503     24497     24501     24504     24497     24501     24505
     24503     24501     24504     24503     24501     24505     24504     24501     24505
     24501     24505     24507     24501     24505     24508     24501     24505     24509
     24507     24505     24508     24507     24505     24509     24508     24505     24509
     24505     24509     24511     24505     24509     24512     24505     24509     24513
     24511     24509     24512     24511     24509     24513     24512     24509     24513
     24443     24514     24516     24443     24514     24517     24443     24514     24518
     24516     24514     24517     24516     24514     24518     24517     24514     24518
     24514     24518     24520     24514     24518     24521     24514     24518     24522
     24520     24518     24521     24520     24518     24522     24521     24518     24522
     24518     24522     24524     24518     24522     24525     24518     24522     24526
     24524     24522     24525     24524     24522     24526     24525     24522     24526
     24522     24526     24528     24522     24526     24529     24522     24526     24530
     24528     24526     24529     24528     24526     24530     24529     24526     24530
     24526     24530     24532     24526     24530     24533     24526     24530     24534
     24532     24530     24533     24532     24530     24534     24533     24530     24534
     24530     24534     24536     24530     24534     24537     24530     24534     24538
     24536     24534     24537     24536     24534     24538     24537     24534     24538
     24534     24538     24540     24534     24538     24541     24534     24538     24542
     24540     24538     24541     24540     24538     24542     24541     24538     24542
     24538     24542     24544     24538     24542     24545     24538     24542     24546
     24544     24542     24545     24544     24542     24546     24545     24542     24546
     24542     24546     24548     24542     24546     24549     24542     24546     24550
     24548     24546     24549     24548     24546     24550     24549     24546     24550
     24546     24550     24552     24546     24550     24553     24546     24550     24554
     24552     24550     24553     24552     24550     24554     24553     24550     24554
     24550     24554     24556     24550     24554     24557     24550     24554     24558
     24556     24554     24557     24556     24554     24558     24557     24554     24558
     24554     24558     24560     24554     24558     24561     24554     24558     24562
     24560     24558     24561     24560     24558     24562     24561     24558     24562
     24558     24562     24564     24558     24562     24565     24558     24562     24566
     24564     24562     24565     24564     24562     24566     24565     24562     24566
     24562     24566     24568     24562     24566     24569     24562     24566     24570
     24568     24566     24569     24568     24566     24570     24569     24566     24570
     24573     24571     24574     24573     24571     24575     24573     24571     24576
     24574     24571     24575     24574     24571     24576     24575     24571     24576
     24571     24576     24578     24571     24576     24579     24571     24576     24580
     24578     24576     24579     24578     24576     24580     24579     24576     24580
     24576     24580     24582     24576     24580     24583     24576     24580     24592
     24582     24580     24583     24582     24580     24592     24583     24580     24592
     24586     24584     24588     24586     24584     24590     24586     24584     24592
     24588     24584     24590     24588     24584     24592     24590     24584     24592
     24584     24590     24594     24580     24592     24584     24590     24594     24596
     24590     24594     24597     24590     24594     24598     24596     24594     24597
     24596     24594     24598     24597     24594     24598     24594     24598     24600
     24594     24598     24601     24594     24598     24615     24600     24598     24601
     24600     24598     24615     24601     24598     24615     24598     24601     24603
     24601     24603     24605     24601     24603     24607     24605     24603     24607
     24603     24607     24609     24603     24607     24610     24603     24607     24633
     24609     24607     24610     24609     24607     24633     24610     24607     24633
     24598     24615     24617     24598     24615     24618     24598     24615     24619
     24617     24615     24618     24617     24615     24619     24618     24615     24619
     24615     24619     24621     24619     24621     24623     24619     24621     24625
     24623     24621     24625     24621     24625     24627     24621     24625     24628
     24621     24625     24696     24627     24625     24628     24627     24625     24696
     24628     24625     24696     24607     24633     24635     24607     24633     24636
     24607     24633     24637     24635     24633     24636     24635     24633     24637
     24636     24633     24637     24633     24637     24639     24633     24637     24640
     24633     24637     24641     24639     24637     24640     24639     24637     24641
     24640     24637     24641     24637     24641     24643     24637     24641     24644
     24637     24641     24645     24643     24641     24644     24643     24641     24645
     24644     24641     24645     24641     24645     24647     24641     24645     24648
     24641     24645     24649     24647     24645     24648     24647     24645     24649
     24648     24645     24649     24645     24649     24651     24645     24649     24652
     24645     24649     24653     24651     24649     24652     24651     24649     24653
     24652     24649     24653     24649     24653     24655     24649     24653     24656
     24649     24653     24657     24655     24653     24656     24655     24653     24657
     24656     24653     24657     24653     24657     24659     24653     24657     24660
     24659     24657     24660     24657     24660     24662     24657     24660     24663
     24662     24660     24663     24660     24663     24665     24660     24663     24666
     24660     24663     24667     24665     24663     24666     24665     24663     24667
     24666     24663     24667     24663     24667     24669     24663     24667     24670
     24663     24667     24671     24669     24667     24670     24669     24667     24671
     24670     24667     24671     24667     24671     24673     24667     24671     24674
     24667     24671     24675     24673     24671     24674     24673     24671     24675
     24674     24671     24675     24671     24675     24677     24671     24675     24678
     24671     24675     24679     24677     24675     24678     24677     24675     24679
     24678     24675     24679     24675     24679     24681     24675     24679     24682
     24675     24679     24683     24681     24679     24682     24681     24679     24683
     24682     24679     24683     24679     24683     24685     24679     24683     24686
     24679     24683     24687     24685     24683     24686     24685     24683     24687
     24686     24683     24687     24683     24687     24689     24683     24687     24690
     24683     24687     24691     24689     24687     24690     24689     24687     24691
     24690     24687     24691     24687     24691     24693     24687     24691     24694
     24687     24691     24695     24693     24691     24694     24693     24691     24695
     24694     24691     24695     24625     24696     24698     24625     24696     24699
     24625     24696     24700     24698     24696     24699     24698     24696     24700
     24699     24696     24700     24696     24700     24702     24696     24700     24703
     24696     24700     24704     24702     24700     24703     24702     24700     24704
     24703     24700     24704     24700     24704     24706     24700     24704     24707
     24700     24704     24708     24706     24704     24707     24706     24704     24708
     24707     24704     24708     24704     24708     24710     24704     24708     24711
     24704     24708     24712     24710     24708     24711     24710     24708     24712
     24711     24708     24712     24708     24712     24714     24708     24712     24715
     24708     24712     24716     24714     24712     24715     24714     24712     24716
     24715     24712     24716     24712     24716     24718     24712     24716     24719
     24712     24716     24720     24718     24716     24719     24718     24716     24720
     24719     24716     24720     24716     24720     24722     24716     24720     24723
     24716     24720     24724     24722     24720     24723     24722     24720     24724
     24723     24720     24724     24720     24724     24726     24720     24724     24727
     24720     24724     24728     24726     24724     24727     24726     24724     24728
     24727     24724     24728     24724     24728     24730     24724     24728     24731
     24724     24728     24732     24730     24728     24731     24730     24728     24732
     24731     24728     24732     24728     24732     24734     24728     24732     24735
     24728     24732     24736     24734     24732     24735     24734     24732     24736
     24735     24732     24736     24732     24736     24738     24732     24736     24739
     24732     24736     24740     24738     24736     24739     24738     24736     24740
     24739     24736     24740     24736     24740     24742     24736     24740     24743
     24736     24740     24744     24742     24740     24743     24742     24740     24744
     24743     24740     24744     24740     24744     24746     24740     24744     24747
     24740     24744     24748     24746     24744     24747     24746     24744     24748
     24747     24744     24748     24744     24748     24750     24744     24748     24751
     24744     24748     24752     24750     24748     24751     24750     24748     24752
     24751     24748     24752     24755     24753     24756     24755     24753     24757
     24755     24753     24758     24756     24753     24757     24756     24753     24758
     24757     24753     24758     24753     24758     24760     24753     24758     24761
     24753     24758     24762     24760     24758     24761     24760     24758     24762
     24761     24758     24762     24758     24762     24764     24758     24762     24765
     24758     24762     24774     24764     24762     24765     24764     24762     24774
     24765     24762     24774     24768     24766     24770     24768     24766     24772
     24768     24766     24774     24770     24766     24772     24770     24766     24774
     24772     24766     24774     24766     24772     24776     24762     24774     24766
     24772     24776     24778     24772     24776     24779     24772     24776     24780
     24778     24776     24779     24778     24776     24780     24779     24776     24780
     24776     24780     24782     24776     24780     24783     24776     24780     24797
     24782     24780     24783     24782     24780     24797     24783     24780     24797
     24780     24783     24785     24783     24785     24787     24783     24785     24789
     24787     24785     24789     24785     24789     24791     24785     24789     24792
     24785     24789     24815     24791     24789     24792     24791     24789     24815
     24792     24789     24815     24780     24797     24799     24780     24797     24800
     24780     24797     24801     24799     24797     24800     24799     24797     24801
     24800     24797     24801     24797     24801     24803     24801     24803     24805
     24801     24803     24807     24805     24803     24807     24803     24807     24809
     24803     24807     24810     24803     24807     24878     24809     24807     24810
     24809     24807     24878     24810     24807     24878     24789     24815     24817
     24789     24815     24818     24789     24815     24819     24817     24815     24818
     24817     24815     24819     24818     24815     24819     24815     24819     24821
     24815     24819     24822     24815     24819     24823     24821     24819     24822
     24821     24819     24823     24822     24819     24823     24819     24823     24825
     24819     24823     24826     24819     24823     24827     24825     24823     24826
     24825     24823     24827     24826     24823     24827     24823     24827     24829
     24823     24827     24830     24823     24827     24831     24829     24827     24830
     24829     24827     24831     24830     24827     24831     24827     24831     24833
     24827     24831     24834     24827     24831     24835     24833     24831     24834
     24833     24831     24835     24834     24831     24835     24831     24835     24837
     24831     24835     24838     24831     24835     24839     24837     24835     24838
     24837     24835     24839     24838     24835     24839     24835     24839     24841
     24835     24839     24842     24841     24839     24842     24839     24842     24844
     24839     24842     24845     24844     24842     24845     24842     24845     24847
     24842     24845     24848     24842     24845     24849     24847     24845     24848
     24847     24845     24849     24848     24845     24849     24845     24849     24851
     24845     24849     24852     24845     24849     24853     24851     24849     24852
     24851     24849     24853     24852     24849     24853     24849     24853     24855
     24849     24853     24856     24849     24853     24857     24855     24853     24856
     24855     24853     24857     24856     24853     24857     24853     24857     24859
     24853     24857     24860     24853     24857     24861     24859     24857     24860
     24859     24857     24861     24860     24857     24861     24857     24861     24863
     24857     24861     24864     24857     24861     24865     24863     24861     24864
     24863     24861     24865     24864     24861     24865     24861     24865     24867
     24861     24865     24868     24861     24865     24869     24867     24865     24868
     24867     24865     24869     24868     24865     24869     24865     24869     24871
     24865     24869     24872     24865     24869     24873     24871     24869     24872
     24871     24869     24873     24872     24869     24873     24869     24873     24875
     24869     24873     24876     24869     24873     24877     24875     24873     24876
     24875     24873     24877     24876     24873     24877     24807     24878     24880
     24807     24878     24881     24807     24878     24882     24880     24878     24881
     24880     24878     24882     24881     24878     24882     24878     24882     24884
     24878     24882     24885     24878     24882     24886     24884     24882     24885
     24884     24882     24886     24885     24882     24886     24882     24886     24888
     24882     24886     24889     24882     24886     24890     24888     24886     24889
     24888     24886     24890     24889     24886     24890     24886     24890     24892
     24886     24890     24893     24886     24890     24894     24892     24890     24893
     24892     24890     24894     24893     24890     24894     24890     24894     24896
     24890     24894     24897     24890     24894     24898     24896     24894     24897
     24896     24894     24898     24897     24894     24898     24894     24898     24900
     24894     24898     24901     24894     24898     24902     24900     24898     24901
     24900     24898     24902     24901     24898     24902     24898     24902     24904
     24898     24902     24905     24898     24902     24906     24904     24902     24905
     24904     24902     24906     24905     24902     24906     24902     24906     24908
     24902     24906     24909     24902     24906     24910     24908     24906     24909
     24908     24906     24910     24909     24906     24910     24906     24910     24912
     24906     24910     24913     24906     24910     24914     24912     24910     24913
     24912     24910     24914     24913     24910     24914     24910     24914     24916
     24910     24914     24917     24910     24914     24918     24916     24914     24917
     24916     24914     24918     24917     24914     24918     24914     24918     24920
     24914     24918     24921     24914     24918     24922     24920     24918     24921
     24920     24918     24922     24921     24918     24922     24918     24922     24924
     24918     24922     24925     24918     24922     24926     24924     24922     24925
     24924     24922     24926     24925     24922     24926     24922     24926     24928
     24922     24926     24929     24922     24926     24930     24928     24926     24929
     24928     24926     24930     24929     24926     24930     24926     24930     24932
     24926     24930     24933     24926     24930     24934     24932     24930     24933
     24932     24930     24934     24933     24930     24934     24937     24935     24938
     24937     24935     24939     24937     24935     24940     24938     24935     24939
     24938     24935     24940     24939     24935     24940     24935     24940     24942
     24935     24940     24943     24935     24940     24944     24942     24940     24943
     24942     24940     24944     24943     24940     24944     24940     24944     24946
     24940     24944     24947     24940     24944     24956     24946     24944     24947
     24946     24944     24956     24947     24944     24956     24950     24948     24952
     24950     24948     24954     24950     24948     24956     24952     24948     24954
     24952     24948     24956     24954     24948     24956     24948     24954     24958
     24944     24956     24948     24954     24958     24960     24954     24958     24961
     24954     24958     24962     24960     24958     24961     24960     24958     24962
     24961     24958     24962     24958     24962     24964     24958     24962     24965
     24958     24962     24979     24964     24962     24965     24964     24962     24979
     24965     24962     24979     24962     24965     24967     24965     24967     24969
     24965     24967     24971     24969     24967     24971     24967     24971     24973
     24967     24971     24974     24967     24971     24997     24973     24971     24974
     24973     24971     24997     24974     24971     24997     24962     24979     24981
     24962     24979     24982     24962     24979     24983     24981     24979     24982
     24981     24979     24983     24982     24979     24983     24979     24983     24985
     24983     24985     24987     24983     24985     24989     24987     24985     24989
     24985     24989     24991     24985     24989     24992     24985     24989     25060
     24991     24989     24992     24991     24989     25060     24992     24989     25060
     24971     24997     24999     24971     24997     25000     24971     24997     25001
     24999     24997     25000     24999     24997     25001     25000     24997     25001
     24997     25001     25003     24997     25001     25004     24997     25001     25005
     25003     25001     25004     25003     25001     25005     25004     25001     25005
     25001     25005     25007     25001     25005     25008     25001     25005     25009
     25007     25005     25008     25007     25005     25009     25008     25005     25009
     25005     25009     25011     25005     25009     25012     25005     25009     25013
     25011     25009     25012     25011     25009     25013     25012     25009     25013
     25009     25013     25015     25009     25013     25016     25009     25013     25017
     25015     25013     25016     25015     25013     25017     25016     25013     25017
     25013     25017     25019     25013     25017     25020     25013     25017     25021
     25019     25017     25020     25019     25017     25021     25020     25017     25021
     25017     25021     25023     25017     25021     25024     25023     25021     25024
     25021     25024     25026     25021     25024     25027     25026     25024     25027
     25024     25027     25029     25024     25027     25030     25024     25027     25031
     25029     25027     25030     25029     25027     25031     25030     25027     25031
     25027     25031     25033     25027     25031     25034     25027     25031     25035
     25033     25031     25034     25033     25031     25035     25034     25031     25035
     25031     25035     25037     25031     25035     25038     25031     25035     25039
     25037     25035     25038     25037     25035     25039     25038     25035     25039
     25035     25039     25041     25035     25039     25042     25035     25039     25043
     25041     25039     25042     25041     25039     25043     25042     25039     25043
     25039     25043     25045     25039     25043     25046     25039     25043     25047
     25045     25043     25046     25045     25043     25047     25046     25043     25047
     25043     25047     25049     25043     25047     25050     25043     25047     25051
     25049     25047     25050     25049     25047     25051     25050     25047     25051
     25047     25051     25053     25047     25051     25054     25047     25051     25055
     25053     25051     25054     25053     25051     25055     25054     25051     25055
     25051     25055     25057     25051     25055     25058     25051     25055     25059
     25057     25055     25058     25057     25055     25059     25058     25055     25059
     24989     25060     25062     24989     25060     25063     24989     25060     25064
     25062     25060     25063     25062     25060     25064     25063     25060     25064
     25060     25064     25066     25060     25064     25067     25060     25064     25068
     25066     25064     25067     25066     25064     25068     25067     25064     25068
     25064     25068     25070     25064     25068     25071     25064     25068     25072
     25070     25068     25071     25070     25068     25072     25071     25068     25072
     25068     25072     25074     25068     25072     25075     25068     25072     25076
     25074     25072     25075     25074     25072     25076     25075     25072     25076
     25072     25076     25078     25072     25076     25079     25072     25076     25080
     25078     25076     25079     25078     25076     25080     25079     25076     25080
     25076     25080     25082     25076     25080     25083     25076     25080     25084
     25082     25080     25083     25082     25080     25084     25083     25080     25084
     25080     25084     25086     25080     25084     25087     25080     25084     25088
     25086     25084     25087     25086     25084     25088     25087     25084     25088
     25084     25088     25090     25084     25088     25091     25084     25088     25092
     25090     25088     25091     25090     25088     25092     25091     25088     25092
     25088     25092     25094     25088     25092     25095     25088     25092     25096
     25094     25092     25095     25094     25092     25096     25095     25092     25096
     25092     25096     25098     25092     25096     25099     25092     25096     25100
     25098     25096     25099     25098     25096     25100     25099     25096     25100
     25096     25100     25102     25096     25100     25103     25096     25100     25104
     25102     25100     25103     25102     25100     25104     25103     25100     25104
     25100     25104     25106     25100     25104     25107     25100     25104     25108
     25106     25104     25107     25106     25104     25108     25107     25104     25108
     25104     25108     25110     25104     25108     25111     25104     25108     25112
     25110     25108     25111     25110     25108     25112     25111     25108     25112
     25108     25112     25114     25108     25112     25115     25108     25112     25116
     25114     25112     25115     25114     25112     25116     25115     25112     25116
     25119     25117     25120     25119     25117     25121     25119     25117     25122
     25120     25117     25121     25120     25117     25122     25121     25117     25122
     25117     25122     25124     25117     25122     25125     25117     25122     25126
     25124     25122     25125     25124     25122     25126     25125     25122     25126
     25122     25126     25128     25122     25126     25129     25122     25126     25138
     25128     25126     25129     25128     25126     25138     25129     25126     25138
     25132     25130     25134     25132     25130     25136     25132     25130     25138
     25134     25130     25136     25134     25130     25138     25136     25130     25138
     25130     25136     25140     25126     25138     25130     25136     25140     25142
     25136     25140     25143     25136     25140     25144     25142     25140     25143
     25142     25140     25144     25143     25140     25144     25140     25144     25146
     25140     25144     25147     25140     25144     25161     25146     25144     25147
     25146     25144     25161     25147     25144     25161     25144     25147     25149
     25147     25149     25151     25147     25149     25153     25151     25149     25153
     25149     25153     25155     25149     25153     25156     25149     25153     25179
     25155     25153     25156     25155     25153     25179     25156     25153     25179
     25144     25161     25163     25144     25161     25164     25144     25161     25165
     25163     25161     25164     25163     25161     25165     25164     25161     25165
     25161     25165     25167     25165     25167     25169     25165     25167     25171
     25169     25167     25171     25167     25171     25173     25167     25171     25174
     25167     25171     25242     25173     25171     25174     25173     25171     25242
     25174     25171     25242     25153     25179     25181     25153     25179     25182
     25153     25179     25183     25181     25179     25182     25181     25179     25183
     25182     25179     25183     25179     25183     25185     25179     25183     25186
     25179     25183     25187     25185     25183     25186     25185     25183     25187
     25186     25183     25187     25183     25187     25189     25183     25187     25190
     25183     25187     25191     25189     25187     25190     25189     25187     25191
     25190     25187     25191     25187     25191     25193     25187     25191     25194
     25187     25191     25195     25193     25191     25194     25193     25191     25195
     25194     25191     25195     25191     25195     25197     25191     25195     25198
     25191     25195     25199     25197     25195     25198     25197     25195     25199
     25198     25195     25199     25195     25199     25201     25195     25199     25202
     25195     25199     25203     25201     25199     25202     25201     25199     25203
     25202     25199     25203     25199     25203     25205     25199     25203     25206
     25205     25203     25206     25203     25206     25208     25203     25206     25209
     25208     25206     25209     25206     25209     25211     25206     25209     25212
     25206     25209     25213     25211     25209     25212     25211     25209     25213
     25212     25209     25213     25209     25213     25215     25209     25213     25216
     25209     25213     25217     25215     25213     25216     25215     25213     25217
     25216     25213     25217     25213     25217     25219     25213     25217     25220
     25213     25217     25221     25219     25217     25220     25219     25217     25221
     25220     25217     25221     25217     25221     25223     25217     25221     25224
     25217     25221     25225     25223     25221     25224     25223     25221     25225
     25224     25221     25225     25221     25225     25227     25221     25225     25228
     25221     25225     25229     25227     25225     25228     25227     25225     25229
     25228     25225     25229     25225     25229     25231     25225     25229     25232
     25225     25229     25233     25231     25229     25232     25231     25229     25233
     25232     25229     25233     25229     25233     25235     25229     25233     25236
     25229     25233     25237     25235     25233     25236     25235     25233     25237
     25236     25233     25237     25233     25237     25239     25233     25237     25240
     25233     25237     25241     25239     25237     25240     25239     25237     25241
     25240     25237     25241     25171     25242     25244     25171     25242     25245
     25171     25242     25246     25244     25242     25245     25244     25242     25246
     25245     25242     25246     25242     25246     25248     25242     25246     25249
     25242     25246     25250     25248     25246     25249     25248     25246     25250
     25249     25246     25250     25246     25250     25252     25246     25250     25253
     25246     25250     25254     25252     25250     25253     25252     25250     25254
     25253     25250     25254     25250     25254     25256     25250     25254     25257
     25250     25254     25258     25256     25254     25257     25256     25254     25258
     25257     25254     25258     25254     25258     25260     25254     25258     25261
     25254     25258     25262     25260     25258     25261     25260     25258     25262
     25261     25258     25262     25258     25262     25264     25258     25262     25265
     25258     25262     25266     25264     25262     25265     25264     25262     25266
     25265     25262     25266     25262     25266     25268     25262     25266     25269
     25262     25266     25270     25268     25266     25269     25268     25266     25270
     25269     25266     25270     25266     25270     25272     25266     25270     25273
     25266     25270     25274     25272     25270     25273     25272     25270     25274
     25273     25270     25274     25270     25274     25276     25270     25274     25277
     25270     25274     25278     25276     25274     25277     25276     25274     25278
     25277     25274     25278     25274     25278     25280     25274     25278     25281
     25274     25278     25282     25280     25278     25281     25280     25278     25282
     25281     25278     25282     25278     25282     25284     25278     25282     25285
     25278     25282     25286     25284     25282     25285     25284     25282     25286
     25285     25282     25286     25282     25286     25288     25282     25286     25289
     25282     25286     25290     25288     25286     25289     25288     25286     25290
     25289     25286     25290     25286     25290     25292     25286     25290     25293
     25286     25290     25294     25292     25290     25293     25292     25290     25294
     25293     25290     25294     25290     25294     25296     25290     25294     25297
     25290     25294     25298     25296     25294     25297     25296     25294     25298
     25297     25294     25298     25301     25299     25302     25301     25299     25303
     25301     25299     25304     25302     25299     25303     25302     25299     25304
     25303     25299     25304     25299     25304     25306     25299     25304     25307
     25299     25304     25308     25306     25304     25307     25306     25304     25308
     25307     25304     25308     25304     25308     25310     25304     25308     25311
     25304     25308     25320     25310     25308     25311     25310     25308     25320
     25311     25308     25320     25314     25312     25316     25314     25312     25318
     25314     25312     25320     25316     25312     25318     25316     25312     25320
     25318     25312     25320     25312     25318     25322     25308     25320     25312
     25318     25322     25324     25318     25322     25325     25318     25322     25326
     25324     25322     25325     25324     25322     25326     25325     25322     25326
     25322     25326     25328     25322     25326     25329     25322     25326     25343
     25328     25326     25329     25328     25326     25343     25329     25326     25343
     25326     25329     25331     25329     25331     25333     25329     25331     25335
     25333     25331     25335     25331     25335     25337     25331     25335     25338
     25331     25335     25361     25337     25335     25338     25337     25335     25361
     25338     25335     25361     25326     25343     25345     25326     25343     25346
     25326     25343     25347     25345     25343     25346     25345     25343     25347
     25346     25343     25347     25343     25347     25349     25347     25349     25351
     25347     25349     25353     25351     25349     25353     25349     25353     25355
     25349     25353     25356     25349     25353     25424     25355     25353     25356
     25355     25353     25424     25356     25353     25424     25335     25361     25363
     25335     25361     25364     25335     25361     25365     25363     25361     25364
     25363     25361     25365     25364     25361     25365     25361     25365     25367
     25361     25365     25368     25361     25365     25369     25367     25365     25368
     25367     25365     25369     25368     25365     25369     25365     25369     25371
     25365     25369     25372     25365     25369     25373     25371     25369     25372
     25371     25369     25373     25372     25369     25373     25369     25373     25375
     25369     25373     25376     25369     25373     25377     25375     25373     25376
     25375     25373     25377     25376     25373     25377     25373     25377     25379
     25373     25377     25380     25373     25377     25381     25379     25377     25380
     25379     25377     25381     25380     25377     25381     25377     25381     25383
     25377     25381     25384     25377     25381     25385     25383     25381     25384
     25383     25381     25385     25384     25381     25385     25381     25385     25387
     25381     25385     25388     25387     25385     25388     25385     25388     25390
     25385     25388     25391     25390     25388     25391     25388     25391     25393
     25388     25391     25394     25388     25391     25395     25393     25391     25394
     25393     25391     25395     25394     25391     25395     25391     25395     25397
     25391     25395     25398     25391     25395     25399     25397     25395     25398
     25397     25395     25399     25398     25395     25399     25395     25399     25401
     25395     25399     25402     25395     25399     25403     25401     25399     25402
     25401     25399     25403     25402     25399     25403     25399     25403     25405
     25399     25403     25406     25399     25403     25407     25405     25403     25406
     25405     25403     25407     25406     25403     25407     25403     25407     25409
     25403     25407     25410     25403     25407     25411     25409     25407     25410
     25409     25407     25411     25410     25407     25411     25407     25411     25413
     25407     25411     25414     25407     25411     25415     25413     25411     25414
     25413     25411     25415     25414     25411     25415     25411     25415     25417
     25411     25415     25418     25411     25415     25419     25417     25415     25418
     25417     25415     25419     25418     25415     25419     25415     25419     25421
     25415     25419     25422     25415     25419     25423     25421     25419     25422
     25421     25419     25423     25422     25419     25423     25353     25424     25426
     25353     25424     25427     25353     25424     25428     25426     25424     25427
     25426     25424     25428     25427     25424     25428     25424     25428     25430
     25424     25428     25431     25424     25428     25432     25430     25428     25431
     25430     25428     25432     25431     25428     25432     25428     25432     25434
     25428     25432     25435     25428     25432     25436     25434     25432     25435
     25434     25432     25436     25435     25432     25436     25432     25436     25438
     25432     25436     25439     25432     25436     25440     25438     25436     25439
     25438     25436     25440     25439     25436     25440     25436     25440     25442
     25436     25440     25443     25436     25440     25444     25442     25440     25443
     25442     25440     25444     25443     25440     25444     25440     25444     25446
     25440     25444     25447     25440     25444     25448     25446     25444     25447
     25446     25444     25448     25447     25444     25448     25444     25448     25450
     25444     25448     25451     25444     25448     25452     25450     25448     25451
     25450     25448     25452     25451     25448     25452     25448     25452     25454
     25448     25452     25455     25448     25452     25456     25454     25452     25455
     25454     25452     25456     25455     25452     25456     25452     25456     25458
     25452     25456     25459     25452     25456     25460     25458     25456     25459
     25458     25456     25460     25459     25456     25460     25456     25460     25462
     25456     25460     25463     25456     25460     25464     25462     25460     25463
     25462     25460     25464     25463     25460     25464     25460     25464     25466
     25460     25464     25467     25460     25464     25468     25466     25464     25467
     25466     25464     25468     25467     25464     25468     25464     25468     25470
     25464     25468     25471     25464     25468     25472     25470     25468     25471
     25470     25468     25472     25471     25468     25472     25468     25472     25474
     25468     25472     25475     25468     25472     25476     25474     25472     25475
     25474     25472     25476     25475     25472     25476     25472     25476     25478
     25472     25476     25479     25472     25476     25480     25478     25476     25479
     25478     25476     25480     25479     25476     25480     25483     25481     25484
     25483     25481     25485     25483     25481     25486     25484     25481     25485
     25484     25481     25486     25485     25481     25486     25481     25486     25488
     25481     25486     25489     25481     25486     25490     25488     25486     25489
     25488     25486     25490     25489     25486     25490     25486     25490     25492
     25486     25490     25493     25486     25490     25502     25492     25490     25493
     25492     25490     25502     25493     25490     25502     25496     25494     25498
     25496     25494     25500     25496     25494     25502     25498     25494     25500
     25498     25494     25502     25500     25494     25502     25494     25500     25504
     25490     25502     25494     25500     25504     25506     25500     25504     25507
     25500     25504     25508     25506     25504     25507     25506     25504     25508
     25507     25504     25508     25504     25508     25510     25504     25508     25511
     25504     25508     25525     25510     25508     25511     25510     25508     25525
     25511     25508     25525     25508     25511     25513     25511     25513     25515
     25511     25513     25517     25515     25513     25517     25513     25517     25519
     25513     25517     25520     25513     25517     25543     25519     25517     25520
     25519     25517     25543     25520     25517     25543     25508     25525     25527
     25508     25525     25528     25508     25525     25529     25527     25525     25528
     25527     25525     25529     25528     25525     25529     25525     25529     25531
     25529     25531     25533     25529     25531     25535     25533     25531     25535
     25531     25535     25537     25531     25535     25538     25531     25535     25606
     25537     25535     25538     25537     25535     25606     25538     25535     25606
     25517     25543     25545     25517     25543     25546     25517     25543     25547
     25545     25543     25546     25545     25543     25547     25546     25543     25547
     25543     25547     25549     25543     25547     25550     25543     25547     25551
     25549     25547     25550     25549     25547     25551     25550     25547     25551
     25547     25551     25553     25547     25551     25554     25547     25551     25555
     25553     25551     25554     25553     25551     25555     25554     25551     25555
     25551     25555     25557     25551     25555     25558     25551     25555     25559
     25557     25555     25558     25557     25555     25559     25558     25555     25559
     25555     25559     25561     25555     25559     25562     25555     25559     25563
     25561     25559     25562     25561     25559     25563     25562     25559     25563
     25559     25563     25565     25559     25563     25566     25559     25563     25567
     25565     25563     25566     25565     25563     25567     25566     25563     25567
     25563     25567     25569     25563     25567     25570     25569     25567     25570
     25567     25570     25572     25567     25570     25573     25572     25570     25573
     25570     25573     25575     25570     25573     25576     25570     25573     25577
     25575     25573     25576     25575     25573     25577     25576     25573     25577
     25573     25577     25579     25573     25577     25580     25573     25577     25581
     25579     25577     25580     25579     25577     25581     25580     25577     25581
     25577     25581     25583     25577     25581     25584     25577     25581     25585
     25583     25581     25584     25583     25581     25585     25584     25581     25585
     25581     25585     25587     25581     25585     25588     25581     25585     25589
     25587     25585     25588     25587     25585     25589     25588     25585     25589
     25585     25589     25591     25585     25589     25592     25585     25589     25593
     25591     25589     25592     25591     25589     25593     25592     25589     25593
     25589     25593     25595     25589     25593     25596     25589     25593     25597
     25595     25593     25596     25595     25593     25597     25596     25593     25597
     25593     25597     25599     25593     25597     25600     25593     25597     25601
     25599     25597     25600     25599     25597     25601     25600     25597     25601
     25597     25601     25603     25597     25601     25604     25597     25601     25605
     25603     25601     25604     25603     25601     25605     25604     25601     25605
     25535     25606     25608     25535     25606     25609     25535     25606     25610
     25608     25606     25609     25608     25606     25610     25609     25606     25610
     25606     25610     25612     25606     25610     25613     25606     25610     25614
     25612     25610     25613     25612     25610     25614     25613     25610     25614
     25610     25614     25616     25610     25614     25617     25610     25614     25618
     25616     25614     25617     25616     25614     25618     25617     25614     25618
     25614     25618     25620     25614     25618     25621     25614     25618     25622
     25620     25618     25621     25620     25618     25622     25621     25618     25622
     25618     25622     25624     25618     25622     25625     25618     25622     25626
     25624     25622     25625     25624     25622     25626     25625     25622     25626
     25622     25626     25628     25622     25626     25629     25622     25626     25630
     25628     25626     25629     25628     25626     25630     25629     25626     25630
     25626     25630     25632     25626     25630     25633     25626     25630     25634
     25632     25630     25633     25632     25630     25634     25633     25630     25634
     25630     25634     25636     25630     25634     25637     25630     25634     25638
     25636     25634     25637     25636     25634     25638     25637     25634     25638
     25634     25638     25640     25634     25638     25641     25634     25638     25642
     25640     25638     25641     25640     25638     25642     25641     25638     25642
     25638     25642     25644     25638     25642     25645     25638     25642     25646
     25644     25642     25645     25644     25642     25646     25645     25642     25646
     25642     25646     25648     25642     25646     25649     25642     25646     25650
     25648     25646     25649     25648     25646     25650     25649     25646     25650
     25646     25650     25652     25646     25650     25653     25646     25650     25654
     25652     25650     25653     25652     25650     25654     25653     25650     25654
     25650     25654     25656     25650     25654     25657     25650     25654     25658
     25656     25654     25657     25656     25654     25658     25657     25654     25658
     25654     25658     25660     25654     25658     25661     25654     25658     25662
     25660     25658     25661     25660     25658     25662     25661     25658     25662
     25665     25663     25666     25665     25663     25667     25665     25663     25668
     25666     25663     25667     25666     25663     25668     25667     25663     25668
     25663     25668     25670     25663     25668     25671     25663     25668     25672
     25670     25668     25671     25670     25668     25672     25671     25668     25672
     25668     25672     25674     25668     25672     25675     25668     25672     25684
     25674     25672     25675     25674     25672     25684     25675     25672     25684
     25678     25676     25680     25678     25676     25682     25678     25676     25684
     25680     25676     25682     25680     25676     25684     25682     25676     25684
     25676     25682     25686     25672     25684     25676     25682     25686     25688
     25682     25686     25689     25682     25686     25690     25688     25686     25689
     25688     25686     25690     25689     25686     25690     25686     25690     25692
     25686     25690     25693     25686     25690     25707     25692     25690     25693
     25692     25690     25707     25693     25690     25707     25690     25693     25695
     25693     25695     25697     25693     25695     25699     25697     25695     25699
     25695     25699     25701     25695     25699     25702     25695     25699     25725
     25701     25699     25702     25701     25699     25725     25702     25699     25725
     25690     25707     25709     25690     25707     25710     25690     25707     25711
     25709     25707     25710     25709     25707     25711     25710     25707     25711
     25707     25711     25713     25711     25713     25715     25711     25713     25717
     25715     25713     25717     25713     25717     25719     25713     25717     25720
     25713     25717     25788     25719     25717     25720     25719     25717     25788
     25720     25717     25788     25699     25725     25727     25699     25725     25728
     25699     25725     25729     25727     25725     25728     25727     25725     25729
     25728     25725     25729     25725     25729     25731     25725     25729     25732
     25725     25729     25733     25731     25729     25732     25731     25729     25733
     25732     25729     25733     25729     25733     25735     25729     25733     25736
     25729     25733     25737     25735     25733     25736     25735     25733     25737
     25736     25733     25737     25733     25737     25739     25733     25737     25740
     25733     25737     25741     25739     25737     25740     25739     25737     25741
     25740     25737     25741     25737     25741     25743     25737     25741     25744
     25737     25741     25745     25743     25741     25744     25743     25741     25745
     25744     25741     25745     25741     25745     25747     25741     25745     25748
     25741     25745     25749     25747     25745     25748     25747     25745     25749
     25748     25745     25749     25745     25749     25751     25745     25749     25752
     25751     25749     25752     25749     25752     25754     25749     25752     25755
     25754     25752     25755     25752     25755     25757     25752     25755     25758
     25752     25755     25759     25757     25755     25758     25757     25755     25759
     25758     25755     25759     25755     25759     25761     25755     25759     25762
     25755     25759     25763     25761     25759     25762     25761     25759     25763
     25762     25759     25763     25759     25763     25765     25759     25763     25766
     25759     25763     25767     25765     25763     25766     25765     25763     25767
     25766     25763     25767     25763     25767     25769     25763     25767     25770
     25763     25767     25771     25769     25767     25770     25769     25767     25771
     25770     25767     25771     25767     25771     25773     25767     25771     25774
     25767     25771     25775     25773     25771     25774     25773     25771     25775
     25774     25771     25775     25771     25775     25777     25771     25775     25778
     25771     25775     25779     25777     25775     25778     25777     25775     25779
     25778     25775     25779     25775     25779     25781     25775     25779     25782
     25775     25779     25783     25781     25779     25782     25781     25779     25783
     25782     25779     25783     25779     25783     25785     25779     25783     25786
     25779     25783     25787     25785     25783     25786     25785     25783     25787
     25786     25783     25787     25717     25788     25790     25717     25788     25791
     25717     25788     25792     25790     25788     25791     25790     25788     25792
     25791     25788     25792     25788     25792     25794     25788     25792     25795
     25788     25792     25796     25794     25792     25795     25794     25792     25796
     25795     25792     25796     25792     25796     25798     25792     25796     25799
     25792     25796     25800     25798     25796     25799     25798     25796     25800
     25799     25796     25800     25796     25800     25802     25796     25800     25803
     25796     25800     25804     25802     25800     25803     25802     25800     25804
     25803     25800     25804     25800     25804     25806     25800     25804     25807
     25800     25804     25808     25806     25804     25807     25806     25804     25808
     25807     25804     25808     25804     25808     25810     25804     25808     25811
     25804     25808     25812     25810     25808     25811     25810     25808     25812
     25811     25808     25812     25808     25812     25814     25808     25812     25815
     25808     25812     25816     25814     25812     25815     25814     25812     25816
     25815     25812     25816     25812     25816     25818     25812     25816     25819
     25812     25816     25820     25818     25816     25819     25818     25816     25820
     25819     25816     25820     25816     25820     25822     25816     25820     25823
     25816     25820     25824     25822     25820     25823     25822     25820     25824
     25823     25820     25824     25820     25824     25826     25820     25824     25827
     25820     25824     25828     25826     25824     25827     25826     25824     25828
     25827     25824     25828     25824     25828     25830     25824     25828     25831
     25824     25828     25832     25830     25828     25831     25830     25828     25832
     25831     25828     25832     25828     25832     25834     25828     25832     25835
     25828     25832     25836     25834     25832     25835     25834     25832     25836
     25835     25832     25836     25832     25836     25838     25832     25836     25839
     25832     25836     25840     25838     25836     25839     25838     25836     25840
     25839     25836     25840     25836     25840     25842     25836     25840     25843
     25836     25840     25844     25842     25840     25843     25842     25840     25844
     25843     25840     25844     25847     25845     25848     25847     25845     25849
     25847     25845     25850     25848     25845     25849     25848     25845     25850
     25849     25845     25850     25845     25850     25852     25845     25850     25853
     25845     25850     25854     25852     25850     25853     25852     25850     25854
     25853     25850     25854     25850     25854     25856     25850     25854     25857
     25850     25854     25866     25856     25854     25857     25856     25854     25866
     25857     25854     25866     25860     25858     25862     25860     25858     25864
     25860     25858     25866     25862     25858     25864     25862     25858     25866
     25864     25858     25866     25858     25864     25868     25854     25866     25858
     25864     25868     25870     25864     25868     25871     25864     25868     25872
     25870     25868     25871     25870     25868     25872     25871     25868     25872
     25868     25872     25874     25868     25872     25875     25868     25872     25889
     25874     25872     25875     25874     25872     25889     25875     25872     25889
     25872     25875     25877     25875     25877     25879     25875     25877     25881
     25879     25877     25881     25877     25881     25883     25877     25881     25884
     25877     25881     25907     25883     25881     25884     25883     25881     25907
     25884     25881     25907     25872     25889     25891     25872     25889     25892
     25872     25889     25893     25891     25889     25892     25891     25889     25893
     25892     25889     25893     25889     25893     25895     25893     25895     25897
     25893     25895     25899     25897     25895     25899     25895     25899     25901
     25895     25899     25902     25895     25899     25970     25901     25899     25902
     25901     25899     25970     25902     25899     25970     25881     25907     25909
     25881     25907     25910     25881     25907     25911     25909     25907     25910
     25909     25907     25911     25910     25907     25911     25907     25911     25913
     25907     25911     25914     25907     25911     25915     25913     25911     25914
     25913     25911     25915     25914     25911     25915     25911     25915     25917
     25911     25915     25918     25911     25915     25919     25917     25915     25918
     25917     25915     25919     25918     25915     25919     25915     25919     25921
     25915     25919     25922     25915     25919     25923     25921     25919     25922
     25921     25919     25923     25922     25919     25923     25919     25923     25925
     25919     25923     25926     25919     25923     25927     25925     25923     25926
     25925     25923     25927     25926     25923     25927     25923     25927     25929
     25923     25927     25930     25923     25927     25931     25929     25927     25930
     25929     25927     25931     25930     25927     25931     25927     25931     25933
     25927     25931     25934     25933     25931     25934     25931     25934     25936
     25931     25934     25937     25936     25934     25937     25934     25937     25939
     25934     25937     25940     25934     25937     25941     25939     25937     25940
     25939     25937     25941     25940     25937     25941     25937     25941     25943
     25937     25941     25944     25937     25941     25945     25943     25941     25944
     25943     25941     25945     25944     25941     25945     25941     25945     25947
     25941     25945     25948     25941     25945     25949     25947     25945     25948
     25947     25945     25949     25948     25945     25949     25945     25949     25951
     25945     25949     25952     25945     25949     25953     25951     25949     25952
     25951     25949     25953     25952     25949     25953     25949     25953     25955
     25949     25953     25956     25949     25953     25957     25955     25953     25956
     25955     25953     25957     25956     25953     25957     25953     25957     25959
     25953     25957     25960     25953     25957     25961     25959     25957     25960
     25959     25957     25961     25960     25957     25961     25957     25961     25963
     25957     25961     25964     25957     25961     25965     25963     25961     25964
     25963     25961     25965     25964     25961     25965     25961     25965     25967
     25961     25965     25968     25961     25965     25969     25967     25965     25968
     25967     25965     25969     25968     25965     25969     25899     25970     25972
     25899     25970     25973     25899     25970     25974     25972     25970     25973
     25972     25970     25974     25973     25970     25974     25970     25974     25976
     25970     25974     25977     25970     25974     25978     25976     25974     25977
     25976     25974     25978     25977     25974     25978     25974     25978     25980
     25974     25978     25981     25974     25978     25982     25980     25978     25981
     25980     25978     25982     25981     25978     25982     25978     25982     25984
     25978     25982     25985     25978     25982     25986     25984     25982     25985
     25984     25982     25986     25985     25982     25986     25982     25986     25988
     25982     25986     25989     25982     25986     25990     25988     25986     25989
     25988     25986     25990     25989     25986     25990     25986     25990     25992
     25986     25990     25993     25986     25990     25994     25992     25990     25993
     25992     25990     25994     25993     25990     25994     25990     25994     25996
     25990     25994     25997     25990     25994     25998     25996     25994     25997
     25996     25994     25998     25997     25994     25998     25994     25998     26000
     25994     25998     26001     25994     25998     26002     26000     25998     26001
     26000     25998     26002     26001     25998     26002     25998     26002     26004
     25998     26002     26005     25998     26002     26006     26004     26002     26005
     26004     26002     26006     26005     26002     26006     26002     26006     26008
     26002     26006     26009     26002     26006     26010     26008     26006     26009
     26008     26006     26010     26009     26006     26010     26006     26010     26012
     26006     26010     26013     26006     26010     26014     26012     26010     26013
     26012     26010     26014     26013     26010     26014     26010     26014     26016
     26010     26014     26017     26010     26014     26018     26016     26014     26017
     26016     26014     26018     26017     26014     26018     26014     26018     26020
     26014     26018     26021     26014     26018     26022     26020     26018     26021
     26020     26018     26022     26021     26018     26022     26018     26022     26024
     26018     26022     26025     26018     26022     26026     26024     26022     26025
     26024     26022     26026     26025     26022     26026     26029     26027     26030
     26029     26027     26031     26029     26027     26032     26030     26027     26031
     26030     26027     26032     26031     26027     26032     26027     26032     26034
     26027     26032     26035     26027     26032     26036     26034     26032     26035
     26034     26032     26036     26035     26032     26036     26032     26036     26038
     26032     26036     26039     26032     26036     26048     26038     26036     26039
     26038     26036     26048     26039     26036     26048     26042     26040     26044
     26042     26040     26046     26042     26040     26048     26044     26040     26046
     26044     26040     26048     26046     26040     26048     26040     26046     26050
     26036     26048     26040     26046     26050     26052     26046     26050     26053
     26046     26050     26054     26052     26050     26053     26052     26050     26054
     26053     26050     26054     26050     26054     26056     26050     26054     26057
     26050     26054     26071     26056     26054     26057     26056     26054     26071
     26057     26054     26071     26054     26057     26059     26057     26059     26061
     26057     26059     26063     26061     26059     26063     26059     26063     26065
     26059     26063     26066     26059     26063     26089     26065     26063     26066
     26065     26063     26089     26066     26063     26089     26054     26071     26073
     26054     26071     26074     26054     26071     26075     26073     26071     26074
     26073     26071     26075     26074     26071     26075     26071     26075     26077
     26075     26077     26079     26075     26077     26081     26079     26077     26081
     26077     26081     26083     26077     26081     26084     26077     26081     26152
     26083     26081     26084     26083     26081     26152     26084     26081     26152
     26063     26089     26091     26063     26089     26092     26063     26089     26093
     26091     26089     26092     26091     26089     26093     26092     26089     26093
     26089     26093     26095     26089     26093     26096     26089     26093     26097
     26095     26093     26096     26095     26093     26097     26096     26093     26097
     26093     26097     26099     26093     26097     26100     26093     26097     26101
     26099     26097     26100     26099     26097     26101     26100     26097     26101
     26097     26101     26103     26097     26101     26104     26097     26101     26105
     26103     26101     26104     26103     26101     26105     26104     26101     26105
     26101     26105     26107     26101     26105     26108     26101     26105     26109
     26107     26105     26108     26107     26105     26109     26108     26105     26109
     26105     26109     26111     26105     26109     26112     26105     26109     26113
     26111     26109     26112     26111     26109     26113     26112     26109     26113
     26109     26113     26115     26109     26113     26116     26115     26113     26116
     26113     26116     26118     26113     26116     26119     26118     26116     26119
     26116     26119     26121     26116     26119     26122     26116     26119     26123
     26121     26119     26122     26121     26119     26123     26122     26119     26123
     26119     26123     26125     26119     26123     26126     26119     26123     26127
     26125     26123     26126     26125     26123     26127     26126     26123     26127
     26123     26127     26129     26123     26127     26130     26123     26127     26131
     26129     26127     26130     26129     26127     26131     26130     26127     26131
     26127     26131     26133     26127     26131     26134     26127     26131     26135
     26133     26131     26134     26133     26131     26135     26134     26131     26135
     26131     26135     26137     26131     26135     26138     26131     26135     26139
     26137     26135     26138     26137     26135     26139     26138     26135     26139
     26135     26139     26141     26135     26139     26142     26135     26139     26143
     26141     26139     26142     26141     26139     26143     26142     26139     26143
     26139     26143     26145     26139     26143     26146     26139     26143     26147
     26145     26143     26146     26145     26143     26147     26146     26143     26147
     26143     26147     26149     26143     26147     26150     26143     26147     26151
     26149     26147     26150     26149     26147     26151     26150     26147     26151
     26081     26152     26154     26081     26152     26155     26081     26152     26156
     26154     26152     26155     26154     26152     26156     26155     26152     26156
     26152     26156     26158     26152     26156     26159     26152     26156     26160
     26158     26156     26159     26158     26156     26160     26159     26156     26160
     26156     26160     26162     26156     26160     26163     26156     26160     26164
     26162     26160     26163     26162     26160     26164     26163     26160     26164
     26160     26164     26166     26160     26164     26167     26160     26164     26168
     26166     26164     26167     26166     26164     26168     26167     26164     26168
     26164     26168     26170     26164     26168     26171     26164     26168     26172
     26170     26168     26171     26170     26168     26172     26171     26168     26172
     26168     26172     26174     26168     26172     26175     26168     26172     26176
     26174     26172     26175     26174     26172     26176     26175     26172     26176
     26172     26176     26178     26172     26176     26179     26172     26176     26180
     26178     26176     26179     26178     26176     26180     26179     26176     26180
     26176     26180     26182     26176     26180     26183     26176     26180     26184
     26182     26180     26183     26182     26180     26184     26183     26180     26184
     26180     26184     26186     26180     26184     26187     26180     26184     26188
     26186     26184     26187     26186     26184     26188     26187     26184     26188
     26184     26188     26190     26184     26188     26191     26184     26188     26192
     26190     26188     26191     26190     26188     26192     26191     26188     26192
     26188     26192     26194     26188     26192     26195     26188     26192     26196
     26194     26192     26195     26194     26192     26196     26195     26192     26196
     26192     26196     26198     26192     26196     26199     26192     26196     26200
     26198     26196     26199     26198     26196     26200     26199     26196     26200
     26196     26200     26202     26196     26200     26203     26196     26200     26204
     26202     26200     26203     26202     26200     26204     26203     26200     26204
     26200     26204     26206     26200     26204     26207     26200     26204     26208
     26206     26204     26207     26206     26204     26208     26207     26204     26208
     26212     26209     26213     26217     26214     26218     26222     26219     26223
     26227     26224     26228     26232     26229     26233     26237     26234     26238
     26242     26239     26243     26247     26244     26248     26252     26249     26253
     26257     26254     26258     26262     26259     26263     26267     26264     26268
     26272     26269     26273     26277     26274     26278     26282     26279     26283
     26287     26284     26288     26292     26289     26293     26297     26294     26298
     26302     26299     26303     26307     26304     26308     26312     26309     26313
     26317     26314     26318     26322     26319     26323     26327     26324     26328
     26332     26329     26333     26337     26334     26338     26342     26339     26343
     26347     26344     26348     26352     26349     26353     26357     26354     26358
     26362     26359     26363     26367     26364     26368     26372     26369     26373
     26377     26374     26378     26382     26379     26383     26387     26384     26388
     26392     26389     26393     26397     26394     26398     26402     26399     26403
     26407     26404     26408     26412     26409     26413     26417     26414     26418
     26422     26419     26423     26427     26424     26428     26432     26429     26433
     26437     26434     26438     26442     26439     26443     26447     26444     26448
     26452     26449     26453     26457     26454     26458     26462     26459     26463
     26467     26464     26468     26472     26469     26473     26477     26474     26478
     26482     26479     26483     26487     26484     26488     26492     26489     26493
     26497     26494     26498     26502     26499     26503     26507     26504     26508
     26512     26509     26513     26517     26514     26518     26522     26519     26523
     26527     26524     26528     26532     26529     26533     26537     26534     26538
     26542     26539     26543     26547     26544     26548     26552     26549     26553
     26557     26554     26558     26562     26559     26563     26567     26564     26568
     26572     26569     26573     26577     26574     26578     26582     26579     26583
     26587     26584     26588     26592     26589     26593     26597     26594     26598
     26602     26599     26603     26607     26604     26608     26612     26609     26613
     26617     26614     26618     26622     26619     26623     26627     26624     26628
     26632     26629     26633     26637     26634     26638     26642     26639     26643
     26647     26644     26648     26652     26649     26653     26657     26654     26658
     26662     26659     26663     26667     26664     26668     26672     26669     26673
     26677     26674     26678     26682     26679     26683     26687     26684     26688
     26692     26689     26693     26697     26694     26698     26702     26699     26703
     26707     26704     26708     26712     26709     26713     26717     26714     26718
     26722     26719     26723     26727     26724     26728     26732     26729     26733
     26737     26734     26738     26742     26739     26743     26747     26744     26748
     26752     26749     26753     26757     26754     26758     26762     26759     26763
     26767     26764     26768     26772     26769     26773     26777     26774     26778
     26782     26779     26783     26787     26784     26788     26792     26789     26793
     26797     26794     26798     26802     26799     26803     26807     26804     26808
     26812     26809     26813     26817     26814     26818     26822     26819     26823
     26827     26824     26828     26832     26829     26833     26837     26834     26838
     26842     26839     26843     26847     26844     26848     26852     26849     26853
     26857     26854     26858     26862     26859     26863     26867     26864     26868
     26872     26869     26873     26877     26874     26878     26882     26879     26883
     26887     26884     26888     26892     26889     26893     26897     26894     26898
     26902     26899     26903     26907     26904     26908     26912     26909     26913
     26917     26914     26918     26922     26919     26923     26927     26924     26928
     26932     26929     26933     26937     26934     26938     26942     26939     26943
     26947     26944     26948     26952     26949     26953     26957     26954     26958
     26962     26959     26963     26967     26964     26968     26972     26969     26973
     26977     26974     26978     26982     26979     26983     26987     26984     26988
     26992     26989     26993     26997     26994     26998     27002     26999     27003
     27007     27004     27008     27012     27009     27013     27017     27014     27018
     27022     27019     27023     27027     27024     27028     27032     27029     27033
     27037     27034     27038     27042     27039     27043     27047     27044     27048
     27052     27049     27053     27057     27054     27058     27062     27059     27063
     27067     27064     27068     27072     27069     27073     27077     27074     27078
     27082     27079     27083     27087     27084     27088     27092     27089     27093
     27097     27094     27098     27102     27099     27103     27107     27104     27108
     27112     27109     27113     27117     27114     27118     27122     27119     27123
     27127     27124     27128     27132     27129     27133     27137     27134     27138
     27142     27139     27143     27147     27144     27148     27152     27149     27153
     27157     27154     27158     27162     27159     27163     27167     27164     27168
     27172     27169     27173     27177     27174     27178     27182     27179     27183
     27187     27184     27188     27192     27189     27193     27197     27194     27198
     27202     27199     27203     27207     27204     27208     27212     27209     27213
     27217     27214     27218     27222     27219     27223     27227     27224     27228
     27232     27229     27233     27237     27234     27238     27242     27239     27243
     27247     27244     27248     27252     27249     27253     27257     27254     27258
     27262     27259     27263     27267     27264     27268     27272     27269     27273
     27277     27274     27278     27282     27279     27283     27287     27284     27288
     27292     27289     27293     27297     27294     27298     27302     27299     27303
     27307     27304     27308     27312     27309     27313     27317     27314     27318
     27322     27319     27323     27327     27324     27328     27332     27329     27333
     27337     27334     27338     27342     27339     27343     27347     27344     27348
     27352     27349     27353     27357     27354     27358     27362     27359     27363
     27367     27364     27368     27372     27369     27373     27377     27374     27378
     27382     27379     27383     27387     27384     27388     27392     27389     27393
     27397     27394     27398     27402     27399     27403     27407     27404     27408
     27412     27409     27413     27417     27414     27418     27422     27419     27423
     27427     27424     27428     27432     27429     27433     27437     27434     27438
     27442     27439     27443     27447     27444     27448     27452     27449     27453
     27457     27454     27458     27462     27459     27463     27467     27464     27468
     27472     27469     27473     27477     27474     27478     27482     27479     27483
     27487     27484     27488     27492     27489     27493     27497     27494     27498
     27502     27499     27503     27507     27504     27508     27512     27509     27513
     27517     27514     27518     27522     27519     27523     27527     27524     27528
     27532     27529     27533     27537     27534     27538     27542     27539     27543
     27547     27544     27548     27552     27549     27553     27557     27554     27558
     27562     27559     27563     27567     27564     27568     27572     27569     27573
     27577     27574     27578     27582     27579     27583     27587     27584     27588
     27592     27589     27593     27597     27594     27598     27602     27599     27603
     27607     27604     27608     27612     27609     27613     27617     27614     27618
     27622     27619     27623     27627     27624     27628     27632     27629     27633
     27637     27634     27638     27642     27639     27643     27647     27644     27648
     27652     27649     27653     27657     27654     27658     27662     27659     27663
     27667     27664     27668     27672     27669     27673     27677     27674     27678
     27682     27679     27683     27687     27684     27688     27692     27689     27693
     27697     27694     27698     27702     27699     27703     27707     27704     27708
     27712     27709     27713     27717     27714     27718     27722     27719     27723
     27727     27724     27728     27732     27729     27733     27737     27734     27738
     27742     27739     27743     27747     27744     27748     27752     27749     27753
     27757     27754     27758     27762     27759     27763     27767     27764     27768
     27772     27769     27773     27777     27774     27778     27782     27779     27783
     27787     27784     27788     27792     27789     27793     27797     27794     27798
     27802     27799     27803     27807     27804     27808     27812     27809     27813
     27817     27814     27818     27822     27819     27823     27827     27824     27828
     27832     27829     27833     27837     27834     27838     27842     27839     27843
     27847     27844     27848     27852     27849     27853     27857     27854     27858
     27862     27859     27863     27867     27864     27868     27872     27869     27873
     27877     27874     27878     27882     27879     27883     27887     27884     27888
     27892     27889     27893     27897     27894     27898     27902     27899     27903
     27907     27904     27908     27912     27909     27913     27917     27914     27918
     27922     27919     27923     27927     27924     27928     27932     27929     27933
     27937     27934     27938     27942     27939     27943     27947     27944     27948
     27952     27949     27953     27957     27954     27958     27962     27959     27963
     27967     27964     27968     27972     27969     27973     27977     27974     27978
     27982     27979     27983     27987     27984     27988     27992     27989     27993
     27997     27994     27998     28002     27999     28003     28007     28004     28008
     28012     28009     28013     28017     28014     28018     28022     28019     28023
     28027     28024     28028     28032     28029     28033     28037     28034     28038
     28042     28039     28043     28047     28044     28048     28052     28049     28053
     28057     28054     28058     28062     28059     28063     28067     28064     28068
     28072     28069     28073     28077     28074     28078     28082     28079     28083
     28087     28084     28088     28092     28089     28093     28097     28094     28098
     28102     28099     28103     28107     28104     28108     28112     28109     28113
     28117     28114     28118     28122     28119     28123     28127     28124     28128
     28132     28129     28133     28137     28134     28138     28142     28139     28143
     28147     28144     28148     28152     28149     28153     28157     28154     28158
     28162     28159     28163     28167     28164     28168     28172     28169     28173
     28177     28174     28178     28182     28179     28183     28187     28184     28188
     28192     28189     28193     28197     28194     28198     28202     28199     28203
     28207     28204     28208     28212     28209     28213     28217     28214     28218
     28222     28219     28223     28227     28224     28228     28232     28229     28233
     28237     28234     28238     28242     28239     28243     28247     28244     28248
     28252     28249     28253     28257     28254     28258     28262     28259     28263
     28267     28264     28268     28272     28269     28273     28277     28274     28278
     28282     28279     28283     28287     28284     28288     28292     28289     28293
     28297     28294     28298     28302     28299     28303     28307     28304     28308
     28312     28309     28313     28317     28314     28318     28322     28319     28323
     28327     28324     28328     28332     28329     28333     28337     28334     28338
     28342     28339     28343     28347     28344     28348     28352     28349     28353
     28357     28354     28358     28362     28359     28363     28367     28364     28368
     28372     28369     28373     28377     28374     28378     28382     28379     28383
     28387     28384     28388     28392     28389     28393     28397     28394     28398
     28402     28399     28403     28407     28404     28408     28412     28409     28413
     28417     28414     28418     28422     28419     28423     28427     28424     28428
     28432     28429     28433     28437     28434     28438     28442     28439     28443
     28447     28444     28448     28452     28449     28453     28457     28454     28458
     28462     28459     28463     28467     28464     28468     28472     28469     28473
     28477     28474     28478     28482     28479     28483     28487     28484     28488
     28492     28489     28493     28497     28494     28498     28502     28499     28503
     28507     28504     28508     28512     28509     28513     28517     28514     28518
     28522     28519     28523     28527     28524     28528     28532     28529     28533
     28537     28534     28538     28542     28539     28543     28547     28544     28548
     28552     28549     28553     28557     28554     28558     28562     28559     28563
     28567     28564     28568     28572     28569     28573     28577     28574     28578
     28582     28579     28583     28587     28584     28588     28592     28589     28593
     28597     28594     28598     28602     28599     28603     28607     28604     28608
     28612     28609     28613     28617     28614     28618     28622     28619     28623
     28627     28624     28628     28632     28629     28633     28637     28634     28638
     28642     28639     28643     28647     28644     28648     28652     28649     28653
     28657     28654     28658     28662     28659     28663     28667     28664     28668
     28672     28669     28673     28677     28674     28678     28682     28679     28683
     28687     28684     28688     28692     28689     28693     28697     28694     28698
     28702     28699     28703     28707     28704     28708     28712     28709     28713
     28717     28714     28718     28722     28719     28723     28727     28724     28728
     28732     28729     28733     28737     28734     28738     28742     28739     28743
     28747     28744     28748     28752     28749     28753     28757     28754     28758
     28762     28759     28763     28767     28764     28768     28772     28769     28773
     28777     28774     28778     28782     28779     28783     28787     28784     28788
     28792     28789     28793     28797     28794     28798     28802     28799     28803
     28807     28804     28808     28812     28809     28813     28817     28814     28818
     28822     28819     28823     28827     28824     28828     28832     28829     28833
     28837     28834     28838     28842     28839     28843     28847     28844     28848
     28852     28849     28853     28857     28854     28858     28862     28859     28863
     28867     28864     28868     28872     28869     28873     28877     28874     28878
     28882     28879     28883     28887     28884     28888     28892     28889     28893
     28897     28894     28898     28902     28899     28903     28907     28904     28908
     28912     28909     28913     28917     28914     28918     28922     28919     28923
     28927     28924     28928     28932     28929     28933     28937     28934     28938
     28942     28939     28943     28947     28944     28948     28952     28949     28953
     28957     28954     28958     28962     28959     28963     28967     28964     28968
     28972     28969     28973     28977     28974     28978     28982     28979     28983
     28987     28984     28988     28992     28989     28993     28997     28994     28998
     29002     28999     29003     29007     29004     29008     29012     29009     29013
     29017     29014     29018     29022     29019     29023     29027     29024     29028
     29032     29029     29033     29037     29034     29038     29042     29039     29043
     29047     29044     29048     29052     29049     29053     29057     29054     29058
     29062     29059     29063     29067     29064     29068     29072     29069     29073
     29077     29074     29078     29082     29079     29083     29087     29084     29088
     29092     29089     29093     29097     29094     29098     29102     29099     29103
     29107     29104     29108     29112     29109     29113     29117     29114     29118
     29122     29119     29123     29127     29124     29128     29132     29129     29133
     29137     29134     29138     29142     29139     29143     29147     29144     29148
     29152     29149     29153     29157     29154     29158     29162     29159     29163
     29167     29164     29168     29172     29169     29173     29177     29174     29178
     29182     29179     29183     29187     29184     29188     29192     29189     29193
     29197     29194     29198     29202     29199     29203     29207     29204     29208
     29212     29209     29213     29217     29214     29218     29222     29219     29223
     29227     29224     29228     29232     29229     29233     29237     29234     29238
     29242     29239     29243     29247     29244     29248     29252     29249     29253
     29257     29254     29258     29262     29259     29263     29267     29264     29268
     29272     29269     29273     29277     29274     29278     29282     29279     29283
     29287     29284     29288     29292     29289     29293     29297     29294     29298
     29302     29299     29303     29307     29304     29308     29312     29309     29313
     29317     29314     29318     29322     29319     29323     29327     29324     29328
     29332     29329     29333     29337     29334     29338     29342     29339     29343
     29347     29344     29348     29352     29349     29353     29357     29354     29358
     29362     29359     29363     29367     29364     29368     29372     29369     29373
     29377     29374     29378     29382     29379     29383     29387     29384     29388
     29392     29389     29393     29397     29394     29398     29402     29399     29403
     29407     29404     29408     29412     29409     29413     29417     29414     29418
     29422     29419     29423     29427     29424     29428     29432     29429     29433
     29437     29434     29438     29442     29439     29443     29447     29444     29448
     29452     29449     29453     29457     29454     29458     29462     29459     29463
     29467     29464     29468     29472     29469     29473     29477     29474     29478
     29482     29479     29483     29487     29484     29488     29492     29489     29493
     29497     29494     29498     29502     29499     29503     29507     29504     29508
     29512     29509     29513     29517     29514     29518     29522     29519     29523
     29527     29524     29528     29532     29529     29533     29537     29534     29538
     29542     29539     29543     29547     29544     29548     29552     29549     29553
     29557     29554     29558     29562     29559     29563     29567     29564     29568
     29572     29569     29573     29577     29574     29578     29582     29579     29583
     29587     29584     29588     29592     29589     29593     29597     29594     29598
     29602     29599     29603     29607     29604     29608     29612     29609     29613
     29617     29614     29618     29622     29619     29623     29627     29624     29628
     29632     29629     29633     29637     29634     29638     29642     29639     29643
     29647     29644     29648     29652     29649     29653     29657     29654     29658
     29662     29659     29663     29667     29664     29668     29672     29669     29673
     29677     29674     29678     29682     29679     29683     29687     29684     29688
     29692     29689     29693     29697     29694     29698     29702     29699     29703
     29707     29704     29708     29712     29709     29713     29717     29714     29718
     29722     29719     29723     29727     29724     29728     29732     29729     29733
     29737     29734     29738     29742     29739     29743     29747     29744     29748
     29752     29749     29753     29757     29754     29758     29762     29759     29763
     29767     29764     29768     29772     29769     29773     29777     29774     29778
     29782     29779     29783     29787     29784     29788     29792     29789     29793
     29797     29794     29798     29802     29799     29803     29807     29804     29808
     29812     29809     29813     29817     29814     29818     29822     29819     29823
     29827     29824     29828     29832     29829     29833     29837     29834     29838
     29842     29839     29843     29847     29844     29848     29852     29849     29853
     29857     29854     29858     29862     29859     29863     29867     29864     29868
     29872     29869     29873     29877     29874     29878     29882     29879     29883
     29887     29884     29888     29892     29889     29893     29897     29894     29898
     29902     29899     29903     29907     29904     29908     29912     29909     29913
     29917     29914     29918     29922     29919     29923     29927     29924     29928
     29932     29929     29933     29937     29934     29938     29942     29939     29943
     29947     29944     29948     29952     29949     29953     29957     29954     29958
     29962     29959     29963     29967     29964     29968     29972     29969     29973
     29977     29974     29978     29982     29979     29983     29987     29984     29988
     29992     29989     29993     29997     29994     29998     30002     29999     30003
     30007     30004     30008     30012     30009     30013     30017     30014     30018
     30022     30019     30023     30027     30024     30028     30032     30029     30033
     30037     30034     30038     30042     30039     30043     30047     30044     30048
     30052     30049     30053     30057     30054     30058     30062     30059     30063
     30067     30064     30068     30072     30069     30073     30077     30074     30078
     30082     30079     30083     30087     30084     30088     30092     30089     30093
     30097     30094     30098     30102     30099     30103     30107     30104     30108
     30112     30109     30113     30117     30114     30118     30122     30119     30123
     30127     30124     30128     30132     30129     30133     30137     30134     30138
     30142     30139     30143     30147     30144     30148     30152     30149     30153
     30157     30154     30158     30162     30159     30163     30167     30164     30168
     30172     30169     30173     30177     30174     30178     30182     30179     30183
     30187     30184     30188     30192     30189     30193     30197     30194     30198
     30202     30199     30203     30207     30204     30208     30212     30209     30213
     30217     30214     30218     30222     30219     30223     30227     30224     30228
     30232     30229     30233     30237     30234     30238     30242     30239     30243
     30247     30244     30248     30252     30249     30253     30257     30254     30258
     30262     30259     30263     30267     30264     30268     30272     30269     30273
     30277     30274     30278     30282     30279     30283     30287     30284     30288
     30292     30289     30293     30297     30294     30298     30302     30299     30303
     30307     30304     30308     30312     30309     30313     30317     30314     30318
     30322     30319     30323     30327     30324     30328     30332     30329     30333
     30337     30334     30338     30342     30339     30343     30347     30344     30348
     30352     30349     30353     30357     30354     30358     30362     30359     30363
     30367     30364     30368     30372     30369     30373     30377     30374     30378
     30382     30379     30383     30387     30384     30388     30392     30389     30393
     30397     30394     30398     30402     30399     30403     30407     30404     30408
     30412     30409     30413     30417     30414     30418     30422     30419     30423
     30427     30424     30428     30432     30429     30433     30437     30434     30438
     30442     30439     30443     30447     30444     30448     30452     30449     30453
     30457     30454     30458     30462     30459     30463     30467     30464     30468
     30472     30469     30473     30477     30474     30478     30482     30479     30483
     30487     30484     30488     30492     30489     30493     30497     30494     30498
     30502     30499     30503     30507     30504     30508     30512     30509     30513
     30517     30514     30518     30522     30519     30523     30527     30524     30528
     30532     30529     30533     30537     30534     30538     30542     30539     30543
     30547     30544     30548     30552     30549     30553     30557     30554     30558
     30562     30559     30563     30567     30564     30568     30572     30569     30573
     30577     30574     30578     30582     30579     30583     30587     30584     30588
     30592     30589     30593     30597     30594     30598     30602     30599     30603
     30607     30604     30608     30612     30609     30613     30617     30614     30618
     30622     30619     30623     30627     30624     30628     30632     30629     30633
     30637     30634     30638     30642     30639     30643     30647     30644     30648
     30652     30649     30653     30657     30654     30658     30662     30659     30663
     30667     30664     30668     30672     30669     30673     30677     30674     30678
     30682     30679     30683     30687     30684     30688     30692     30689     30693
     30697     30694     30698     30702     30699     30703     30707     30704     30708
     30712     30709     30713     30717     30714     30718     30722     30719     30723
     30727     30724     30728     30732     30729     30733     30737     30734     30738
     30742     30739     30743     30747     30744     30748     30752     30749     30753
     30757     30754     30758     30762     30759     30763     30767     30764     30768
     30772     30769     30773     30777     30774     30778     30782     30779     30783
     30787     30784     30788     30792     30789     30793     30797     30794     30798
     30802     30799     30803     30807     30804     30808     30812     30809     30813
     30817     30814     30818     30822     30819     30823     30827     30824     30828
     30832     30829     30833     30837     30834     30838     30842     30839     30843
     30847     30844     30848     30852     30849     30853     30857     30854     30858
     30862     30859     30863     30867     30864     30868     30872     30869     30873
     30877     30874     30878     30882     30879     30883     30887     30884     30888
     30892     30889     30893     30897     30894     30898     30902     30899     30903
     30907     30904     30908     30912     30909     30913     30917     30914     30918
     30922     30919     30923     30927     30924     30928     30932     30929     30933
     30937     30934     30938     30942     30939     30943     30947     30944     30948
     30952     30949     30953     30957     30954     30958     30962     30959     30963
     30967     30964     30968     30972     30969     30973     30977     30974     30978
     30982     30979     30983     30987     30984     30988     30992     30989     30993
     30997     30994     30998     31002     30999     31003     31007     31004     31008
     31012     31009     31013     31017     31014     31018     31022     31019     31023
     31027     31024     31028     31032     31029     31033     31037     31034     31038
     31042     31039     31043     31047     31044     31048     31052     31049     31053
     31057     31054     31058     31062     31059     31063     31067     31064     31068
     31072     31069     31073     31077     31074     31078     31082     31079     31083
     31087     31084     31088     31092     31089     31093     31097     31094     31098
     31102     31099     31103     31107     31104     31108     31112     31109     31113
     31117     31114     31118     31122     31119     31123     31127     31124     31128
     31132     31129     31133     31137     31134     31138     31142     31139     31143
     31147     31144     31148     31152     31149     31153     31157     31154     31158
     31162     31159     31163     31167     31164     31168     31172     31169     31173
     31177     31174     31178     31182     31179     31183     31187     31184     31188
     31192     31189     31193     31197     31194     31198     31202     31199     31203
     31207     31204     31208     31212     31209     31213     31217     31214     31218
     31222     31219     31223     31227     31224     31228     31232     31229     31233
     31237     31234     31238     31242     31239     31243     31247     31244     31248
     31252     31249     31253     31257     31254     31258     31262     31259     31263
     31267     31264     31268     31272     31269     31273     31277     31274     31278
     31282     31279     31283     31287     31284     31288     31292     31289     31293
     31297     31294     31298     31302     31299     31303     31307     31304     31308
     31312     31309     31313     31317     31314     31318     31322     31319     31323
     31327     31324     31328     31332     31329     31333     31337     31334     31338
     31342     31339     31343     31347     31344     31348     31352     31349     31353
     31357     31354     31358     31362     31359     31363     31367     31364     31368
     31372     31369     31373     31377     31374     31378     31382     31379     31383
     31387     31384     31388     31392     31389     31393     31397     31394     31398
     31402     31399     31403     31407     31404     31408     31412     31409     31413
     31417     31414     31418     31422     31419     31423     31427     31424     31428
     31432     31429     31433     31437     31434     31438     31442     31439     31443
     31447     31444     31448     31452     31449     31453     31457     31454     31458
     31462     31459     31463     31467     31464     31468     31472     31469     31473
     31477     31474     31478     31482     31479     31483     31487     31484     31488
     31492     31489     31493     31497     31494     31498     31502     31499     31503
     31507     31504     31508     31512     31509     31513     31517     31514     31518
     31522     31519     31523     31527     31524     31528     31532     31529     31533
     31537     31534     31538     31542     31539     31543     31547     31544     31548
     31552     31549     31553     31557     31554     31558     31562     31559     31563
     31567     31564     31568     31572     31569     31573     31577     31574     31578
     31582     31579     31583     31587     31584     31588     31592     31589     31593
     31597     31594     31598     31602     31599     31603     31607     31604     31608
     31612     31609     31613     31617     31614     31618     31622     31619     31623
     31627     31624     31628     31632     31629     31633     31637     31634     31638
     31642     31639     31643     31647     31644     31648     31652     31649     31653
     31657     31654     31658     31662     31659     31663     31667     31664     31668
     31672     31669     31673     31677     31674     31678     31682     31679     31683
     31687     31684     31688     31692     31689     31693     31697     31694     31698
     31702     31699     31703     31707     31704     31708     31712     31709     31713
     31717     31714     31718     31722     31719     31723     31727     31724     31728
     31732     31729     31733     31737     31734     31738     31742     31739     31743
     31747     31744     31748     31752     31749     31753     31757     31754     31758
     31762     31759     31763     31767     31764     31768     31772     31769     31773
     31777     31774     31778     31782     31779     31783     31787     31784     31788
     31792     31789     31793     31797     31794     31798     31802     31799     31803
     31807     31804     31808     31812     31809     31813     31817     31814     31818
     31822     31819     31823     31827     31824     31828     31832     31829     31833
     31837     31834     31838     31842     31839     31843     31847     31844     31848
     31852     31849     31853     31857     31854     31858     31862     31859     31863
     31867     31864     31868     31872     31869     31873     31877     31874     31878
     31882     31879     31883     31887     31884     31888     31892     31889     31893
     31897     31894     31898     31902     31899     31903     31907     31904     31908
     31912     31909     31913     31917     31914     31918     31922     31919     31923
     31927     31924     31928     31932     31929     31933     31937     31934     31938
     31942     31939     31943     31947     31944     31948     31952     31949     31953
     31957     31954     31958     31962     31959     31963     31967     31964     31968
     31972     31969     31973     31977     31974     31978     31982     31979     31983
     31987     31984     31988     31992     31989     31993     31997     31994     31998
     32002     31999     32003     32007     32004     32008     32012     32009     32013
     32017     32014     32018     32022     32019     32023     32027     32024     32028
     32032     32029     32033     32037     32034     32038     32042     32039     32043
     32047     32044     32048     32052     32049     32053     32057     32054     32058
     32062     32059     32063     32067     32064     32068     32072     32069     32073
     32077     32074     32078     32082     32079     32083     32087     32084     32088
     32092     32089     32093     32097     32094     32098     32102     32099     32103
     32107     32104     32108     32112     32109     32113     32117     32114     32118
     32122     32119     32123     32127     32124     32128     32132     32129     32133
     32137     32134     32138     32142     32139     32143     32147     32144     32148
     32152     32149     32153     32157     32154     32158     32162     32159     32163
     32167     32164     32168     32172     32169     32173     32177     32174     32178
     32182     32179     32183     32187     32184     32188     32192     32189     32193
     32197     32194     32198     32202     32199     32203     32207     32204     32208
     32212     32209     32213     32217     32214     32218     32222     32219     32223
     32227     32224     32228     32232     32229     32233     32237     32234     32238
     32242     32239     32243     32247     32244     32248     32252     32249     32253
     32257     32254     32258     32262     32259     32263     32267     32264     32268
     32272     32269     32273     32277     32274     32278     32282     32279     32283
     32287     32284     32288     32292     32289     32293     32297     32294     32298
     32302     32299     32303     32307     32304     32308     32312     32309     32313
     32317     32314     32318     32322     32319     32323     32327     32324     32328
     32332     32329     32333     32337     32334     32338     32342     32339     32343
     32347     32344     32348     32352     32349     32353     32357     32354     32358
     32362     32359     32363     32367     32364     32368     32372     32369     32373
     32377     32374     32378     32382     32379     32383     32387     32384     32388
     32392     32389     32393     32397     32394     32398     32402     32399     32403
     32407     32404     32408     32412     32409     32413     32417     32414     32418
     32422     32419     32423     32427     32424     32428     32432     32429     32433
     32437     32434     32438     32442     32439     32443     32447     32444     32448
     32452     32449     32453     32457     32454     32458     32462     32459     32463
     32467     32464     32468     32472     32469     32473     32477     32474     32478
     32482     32479     32483     32487     32484     32488     32492     32489     32493
     32497     32494     32498     32502     32499     32503     32507     32504     32508
     32512     32509     32513     32517     32514     32518     32522     32519     32523
     32527     32524     32528     32532     32529     32533     32537     32534     32538
     32542     32539     32543     32547     32544     32548     32552     32549     32553
     32557     32554     32558     32562     32559     32563     32567     32564     32568
     32572     32569     32573     32577     32574     32578     32582     32579     32583
     32587     32584     32588     32592     32589     32593     32597     32594     32598
     32602     32599     32603     32607     32604     32608     32612     32609     32613
     32617     32614     32618     32622     32619     32623     32627     32624     32628
     32632     32629     32633     32637     32634     32638     32642     32639     32643
     32647     32644     32648     32652     32649     32653     32657     32654     32658
     32662     32659     32663     32667     32664     32668     32672     32669     32673
     32677     32674     32678     32682     32679     32683     32687     32684     32688
     32692     32689     32693     32697     32694     32698     32702     32699     32703
     32707     32704     32708     32712     32709     32713     32717     32714     32718
     32722     32719     32723     32727     32724     32728     32732     32729     32733
     32737     32734     32738     32742     32739     32743     32747     32744     32748
     32752     32749     32753     32757     32754     32758     32762     32759     32763
     32767     32764     32768     32772     32769     32773     32777     32774     32778
     32782     32779     32783     32787     32784     32788     32792     32789     32793
     32797     32794     32798     32802     32799     32803     32807     32804     32808
     32812     32809     32813     32817     32814     32818     32822     32819     32823
     32827     32824     32828     32832     32829     32833     32837     32834     32838
     32842     32839     32843     32847     32844     32848     32852     32849     32853
     32857     32854     32858     32862     32859     32863     32867     32864     32868
     32872     32869     32873     32877     32874     32878     32882     32879     32883
     32887     32884     32888     32892     32889     32893     32897     32894     32898
     32902     32899     32903     32907     32904     32908     32912     32909     32913
     32917     32914     32918     32922     32919     32923     32927     32924     32928
     32932     32929     32933     32937     32934     32938     32942     32939     32943
     32947     32944     32948     32952     32949     32953     32957     32954     32958
     32962     32959     32963     32967     32964     32968     32972     32969     32973
     32977     32974     32978     32982     32979     32983     32987     32984     32988
     32992     32989     32993     32997     32994     32998     33002     32999     33003
     33007     33004     33008     33012     33009     33013     33017     33014     33018
     33022     33019     33023     33027     33024     33028     33032     33029     33033
     33037     33034     33038     33042     33039     33043     33047     33044     33048
     33052     33049     33053     33057     33054     33058     33062     33059     33063
     33067     33064     33068     33072     33069     33073     33077     33074     33078
     33082     33079     33083     33087     33084     33088     33092     33089     33093
     33097     33094     33098     33102     33099     33103     33107     33104     33108
     33112     33109     33113     33117     33114     33118     33122     33119     33123
     33127     33124     33128     33132     33129     33133     33137     33134     33138
     33142     33139     33143     33147     33144     33148     33152     33149     33153
     33157     33154     33158     33162     33159     33163     33167     33164     33168
     33172     33169     33173     33177     33174     33178     33182     33179     33183
     33187     33184     33188     33192     33189     33193     33197     33194     33198
     33202     33199     33203     33207     33204     33208     33212     33209     33213
     33217     33214     33218     33222     33219     33223     33227     33224     33228
     33232     33229     33233     33237     33234     33238     33242     33239     33243
     33247     33244     33248     33252     33249     33253     33257     33254     33258
     33262     33259     33263     33267     33264     33268     33272     33269     33273
     33277     33274     33278     33282     33279     33283     33287     33284     33288
     33292     33289     33293     33297     33294     33298     33302     33299     33303
     33307     33304     33308     33312     33309     33313     33317     33314     33318
     33322     33319     33323     33327     33324     33328     33332     33329     33333
     33337     33334     33338     33342     33339     33343     33347     33344     33348
     33352     33349     33353     33357     33354     33358     33362     33359     33363
     33367     33364     33368     33372     33369     33373     33377     33374     33378
     33382     33379     33383     33387     33384     33388     33392     33389     33393
     33397     33394     33398     33402     33399     33403     33407     33404     33408
     33412     33409     33413     33417     33414     33418     33422     33419     33423
     33427     33424     33428     33432     33429     33433     33437     33434     33438
     33442     33439     33443     33447     33444     33448     33452     33449     33453
     33457     33454     33458     33462     33459     33463     33467     33464     33468
     33472     33469     33473     33477     33474     33478     33482     33479     33483
     33487     33484     33488     33492     33489     33493     33497     33494     33498
     33502     33499     33503     33507     33504     33508     33512     33509     33513
     33517     33514     33518     33522     33519     33523     33527     33524     33528
     33532     33529     33533     33537     33534     33538     33542     33539     33543
     33547     33544     33548     33552     33549     33553     33557     33554     33558
     33562     33559     33563     33567     33564     33568     33572     33569     33573
     33577     33574     33578     33582     33579     33583     33587     33584     33588
     33592     33589     33593     33597     33594     33598     33602     33599     33603
     33607     33604     33608     33612     33609     33613     33617     33614     33618
     33622     33619     33623     33627     33624     33628     33632     33629     33633
     33637     33634     33638     33642     33639     33643     33647     33644     33648
     33652     33649     33653     33657     33654     33658     33662     33659     33663
     33667     33664     33668     33672     33669     33673     33677     33674     33678
     33682     33679     33683     33687     33684     33688     33692     33689     33693
     33697     33694     33698     33702     33699     33703     33707     33704     33708
     33712     33709     33713     33717     33714     33718     33722     33719     33723
     33727     33724     33728     33732     33729     33733     33737     33734     33738
     33742     33739     33743     33747     33744     33748     33752     33749     33753
     33757     33754     33758     33762     33759     33763     33767     33764     33768
     33772     33769     33773     33777     33774     33778     33782     33779     33783
     33787     33784     33788     33792     33789     33793     33797     33794     33798
     33802     33799     33803     33807     33804     33808     33812     33809     33813
     33817     33814     33818     33822     33819     33823     33827     33824     33828
     33832     33829     33833     33837     33834     33838     33842     33839     33843
     33847     33844     33848     33852     33849     33853     33857     33854     33858
     33862     33859     33863     33867     33864     33868     33872     33869     33873
     33877     33874     33878     33882     33879     33883     33887     33884     33888
     33892     33889     33893     33897     33894     33898     33902     33899     33903
     33907     33904     33908     33912     33909     33913     33917     33914     33918
     33922     33919     33923     33927     33924     33928     33932     33929     33933
     33937     33934     33938     33942     33939     33943     33947     33944     33948
     33952     33949     33953     33957     33954     33958     33962     33959     33963
     33967     33964     33968     33972     33969     33973     33977     33974     33978
     33982     33979     33983     33987     33984     33988     33992     33989     33993
     33997     33994     33998     34002     33999     34003     34007     34004     34008
     34012     34009     34013     34017     34014     34018     34022     34019     34023
     34027     34024     34028     34032     34029     34033     34037     34034     34038
     34042     34039     34043     34047     34044     34048     34052     34049     34053
     34057     34054     34058     34062     34059     34063     34067     34064     34068
     34072     34069     34073     34077     34074     34078     34082     34079     34083
     34087     34084     34088     34092     34089     34093     34097     34094     34098
     34102     34099     34103     34107     34104     34108     34112     34109     34113
     34117     34114     34118     34122     34119     34123     34127     34124     34128
     34132     34129     34133     34137     34134     34138     34142     34139     34143
     34147     34144     34148     34152     34149     34153     34157     34154     34158
     34162     34159     34163     34167     34164     34168     34172     34169     34173
     34177     34174     34178     34182     34179     34183     34187     34184     34188
     34192     34189     34193     34197     34194     34198     34202     34199     34203
     34207     34204     34208     34212     34209     34213     34217     34214     34218
     34222     34219     34223     34227     34224     34228     34232     34229     34233
     34237     34234     34238     34242     34239     34243     34247     34244     34248
     34252     34249     34253     34257     34254     34258     34262     34259     34263
     34267     34264     34268     34272     34269     34273     34277     34274     34278
     34282     34279     34283     34287     34284     34288     34292     34289     34293
     34297     34294     34298     34302     34299     34303     34307     34304     34308
     34312     34309     34313     34317     34314     34318     34322     34319     34323
     34327     34324     34328     34332     34329     34333     34337     34334     34338
     34342     34339     34343     34347     34344     34348     34352     34349     34353
     34357     34354     34358     34362     34359     34363     34367     34364     34368
     34372     34369     34373     34377     34374     34378     34382     34379     34383
     34387     34384     34388     34392     34389     34393     34397     34394     34398
     34402     34399     34403     34407     34404     34408     34412     34409     34413
     34417     34414     34418     34422     34419     34423     34427     34424     34428
     34432     34429     34433     34437     34434     34438     34442     34439     34443
     34447     34444     34448     34452     34449     34453     34457     34454     34458
     34462     34459     34463     34467     34464     34468     34472     34469     34473
     34477     34474     34478     34482     34479     34483     34487     34484     34488
     34492     34489     34493     34497     34494     34498     34502     34499     34503
     34507     34504     34508     34512     34509     34513     34517     34514     34518
     34522     34519     34523     34527     34524     34528     34532     34529     34533
     34537     34534     34538     34542     34539     34543     34547     34544     34548
     34552     34549     34553     34557     34554     34558     34562     34559     34563
     34567     34564     34568     34572     34569     34573     34577     34574     34578
     34582     34579     34583     34587     34584     34588     34592     34589     34593
     34597     34594     34598     34602     34599     34603     34607     34604     34608
     34612     34609     34613     34617     34614     34618     34622     34619     34623
     34627     34624     34628     34632     34629     34633     34637     34634     34638
     34642     34639     34643     34647     34644     34648     34652     34649     34653
     34657     34654     34658     34662     34659     34663     34667     34664     34668
     34672     34669     34673     34677     34674     34678     34682     34679     34683
     34687     34684     34688     34692     34689     34693     34697     34694     34698
     34702     34699     34703     34707     34704     34708     34712     34709     34713
     34717     34714     34718     34722     34719     34723     34727     34724     34728
     34732     34729     34733     34737     34734     34738     34742     34739     34743
     34747     34744     34748     34752     34749     34753     34757     34754     34758
     34762     34759     34763     34767     34764     34768     34772     34769     34773
     34777     34774     34778     34782     34779     34783     34787     34784     34788
     34792     34789     34793     34797     34794     34798     34802     34799     34803
     34807     34804     34808     34812     34809     34813     34817     34814     34818
     34822     34819     34823     34827     34824     34828     34832     34829     34833
     34837     34834     34838     34842     34839     34843     34847     34844     34848
     34852     34849     34853     34857     34854     34858     34862     34859     34863
     34867     34864     34868     34872     34869     34873     34877     34874     34878
     34882     34879     34883     34887     34884     34888     34892     34889     34893
     34897     34894     34898     34902     34899     34903     34907     34904     34908
     34912     34909     34913     34917     34914     34918     34922     34919     34923
     34927     34924     34928     34932     34929     34933     34937     34934     34938
     34942     34939     34943     34947     34944     34948     34952     34949     34953
     34957     34954     34958     34962     34959     34963     34967     34964     34968
     34972     34969     34973     34977     34974     34978     34982     34979     34983
     34987     34984     34988     34992     34989     34993     34997     34994     34998
     35002     34999     35003     35007     35004     35008     35012     35009     35013
     35017     35014     35018     35022     35019     35023     35027     35024     35028
     35032     35029     35033     35037     35034     35038     35042     35039     35043
     35047     35044     35048     35052     35049     35053     35057     35054     35058
     35062     35059     35063     35067     35064     35068     35072     35069     35073
     35077     35074     35078     35082     35079     35083     35087     35084     35088
     35092     35089     35093     35097     35094     35098     35102     35099     35103
     35107     35104     35108     35112     35109     35113     35117     35114     35118
     35122     35119     35123     35127     35124     35128     35132     35129     35133
     35137     35134     35138     35142     35139     35143     35147     35144     35148
     35152     35149     35153     35157     35154     35158     35162     35159     35163
     35167     35164     35168     35172     35169     35173     35177     35174     35178
     35182     35179     35183     35187     35184     35188     35192     35189     35193
     35197     35194     35198     35202     35199     35203     35207     35204     35208
     35212     35209     35213     35217     35214     35218     35222     35219     35223
     35227     35224     35228     35232     35229     35233     35237     35234     35238
     35242     35239     35243     35247     35244     35248     35252     35249     35253
     35257     35254     35258     35262     35259     35263     35267     35264     35268
     35272     35269     35273     35277     35274     35278     35282     35279     35283
     35287     35284     35288     35292     35289     35293     35297     35294     35298
     35302     35299     35303     35307     35304     35308     35312     35309     35313
     35317     35314     35318     35322     35319     35323     35327     35324     35328
     35332     35329     35333     35337     35334     35338     35342     35339     35343
     35347     35344     35348     35352     35349     35353     35357     35354     35358
     35362     35359     35363     35367     35364     35368     35372     35369     35373
     35377     35374     35378     35382     35379     35383     35387     35384     35388
     35392     35389     35393     35397     35394     35398     35402     35399     35403
     35407     35404     35408     35412     35409     35413     35417     35414     35418
     35422     35419     35423     35427     35424     35428     35432     35429     35433
     35437     35434     35438     35442     35439     35443     35447     35444     35448
     35452     35449     35453     35457     35454     35458     35462     35459     35463
     35467     35464     35468     35472     35469     35473     35477     35474     35478
     35482     35479     35483     35487     35484     35488     35492     35489     35493
     35497     35494     35498     35502     35499     35503     35507     35504     35508
     35512     35509     35513     35517     35514     35518     35522     35519     35523
     35527     35524     35528     35532     35529     35533     35537     35534     35538
     35542     35539     35543     35547     35544     35548     35552     35549     35553
     35557     35554     35558     35562     35559     35563     35567     35564     35568
     35572     35569     35573     35577     35574     35578     35582     35579     35583
     35587     35584     35588     35592     35589     35593     35597     35594     35598
     35602     35599     35603     35607     35604     35608     35612     35609     35613
     35617     35614     35618     35622     35619     35623     35627     35624     35628
     35632     35629     35633     35637     35634     35638     35642     35639     35643
     35647     35644     35648     35652     35649     35653     35657     35654     35658
     35662     35659     35663     35667     35664     35668     35672     35669     35673
     35677     35674     35678     35682     35679     35683     35687     35684     35688
     35692     35689     35693     35697     35694     35698     35702     35699     35703
     35707     35704     35708     35712     35709     35713     35717     35714     35718
     35722     35719     35723     35727     35724     35728     35732     35729     35733
     35737     35734     35738     35742     35739     35743     35747     35744     35748
     35752     35749     35753     35757     35754     35758     35762     35759     35763
     35767     35764     35768     35772     35769     35773     35777     35774     35778
     35782     35779     35783     35787     35784     35788     35792     35789     35793
     35797     35794     35798     35802     35799     35803     35807     35804     35808
     35812     35809     35813     35817     35814     35818     35822     35819     35823
     35827     35824     35828     35832     35829     35833     35837     35834     35838
     35842     35839     35843     35847     35844     35848     35852     35849     35853
     35857     35854     35858     35862     35859     35863     35867     35864     35868
     35872     35869     35873     35877     35874     35878     35882     35879     35883
     35887     35884     35888     35892     35889     35893     35897     35894     35898
     35902     35899     35903     35907     35904     35908     35912     35909     35913
     35917     35914     35918     35922     35919     35923     35927     35924     35928
     35932     35929     35933     35937     35934     35938     35942     35939     35943
     35947     35944     35948     35952     35949     35953     35957     35954     35958
     35962     35959     35963     35967     35964     35968     35972     35969     35973
     35977     35974     35978     35982     35979     35983     35987     35984     35988
     35992     35989     35993     35997     35994     35998     36002     35999     36003
     36007     36004     36008     36012     36009     36013     36017     36014     36018
     36022     36019     36023     36027     36024     36028     36032     36029     36033
     36037     36034     36038     36042     36039     36043     36047     36044     36048
     36052     36049     36053     36057     36054     36058     36062     36059     36063
     36067     36064     36068     36072     36069     36073     36077     36074     36078
     36082     36079     36083     36087     36084     36088     36092     36089     36093
     36097     36094     36098     36102     36099     36103     36107     36104     36108
     36112     36109     36113     36117     36114     36118     36122     36119     36123
     36127     36124     36128     36132     36129     36133     36137     36134     36138
     36142     36139     36143     36147     36144     36148     36152     36149     36153
     36157     36154     36158     36162     36159     36163     36167     36164     36168
     36172     36169     36173     36177     36174     36178     36182     36179     36183
     36187     36184     36188     36192     36189     36193     36197     36194     36198
     36202     36199     36203     36207     36204     36208     36212     36209     36213
     36217     36214     36218     36222     36219     36223     36227     36224     36228
     36232     36229     36233     36237     36234     36238     36242     36239     36243
     36247     36244     36248     36252     36249     36253     36257     36254     36258
     36262     36259     36263     36267     36264     36268     36272     36269     36273
     36277     36274     36278     36282     36279     36283     36287     36284     36288
     36292     36289     36293     36297     36294     36298     36302     36299     36303
     36307     36304     36308     36312     36309     36313     36317     36314     36318
     36322     36319     36323     36327     36324     36328     36332     36329     36333
     36337     36334     36338     36342     36339     36343     36347     36344     36348
     36352     36349     36353     36357     36354     36358     36362     36359     36363
     36367     36364     36368     36372     36369     36373     36377     36374     36378
     36382     36379     36383     36387     36384     36388     36392     36389     36393
     36397     36394     36398     36402     36399     36403     36407     36404     36408
     36412     36409     36413     36417     36414     36418     36422     36419     36423
     36427     36424     36428     36432     36429     36433     36437     36434     36438
     36442     36439     36443     36447     36444     36448     36452     36449     36453
     36457     36454     36458     36462     36459     36463     36467     36464     36468
     36472     36469     36473     36477     36474     36478     36482     36479     36483
     36487     36484     36488     36492     36489     36493     36497     36494     36498
     36502     36499     36503     36507     36504     36508     36512     36509     36513
     36517     36514     36518     36522     36519     36523     36527     36524     36528
     36532     36529     36533     36537     36534     36538     36542     36539     36543
     36547     36544     36548     36552     36549     36553     36557     36554     36558
     36562     36559     36563     36567     36564     36568     36572     36569     36573
     36577     36574     36578     36582     36579     36583     36587     36584     36588
     36592     36589     36593     36597     36594     36598     36602     36599     36603
     36607     36604     36608     36612     36609     36613     36617     36614     36618
     36622     36619     36623     36627     36624     36628     36632     36629     36633
     36637     36634     36638     36642     36639     36643     36647     36644     36648
     36652     36649     36653     36657     36654     36658     36662     36659     36663
     36667     36664     36668     36672     36669     36673     36677     36674     36678
     36682     36679     36683     36687     36684     36688     36692     36689     36693
     36697     36694     36698     36702     36699     36703     36707     36704     36708
     36712     36709     36713     36717     36714     36718     36722     36719     36723
     36727     36724     36728     36732     36729     36733     36737     36734     36738
     36742     36739     36743     36747     36744     36748     36752     36749     36753
     36757     36754     36758     36762     36759     36763     36767     36764     36768
     36772     36769     36773     36777     36774     36778     36782     36779     36783
     36787     36784     36788     36792     36789     36793     36797     36794     36798
     36802     36799     36803     36807     36804     36808     36812     36809     36813
     36817     36814     36818     36822     36819     36823     36827     36824     36828
     36832     36829     36833     36837     36834     36838     36842     36839     36843
     36847     36844     36848     36852     36849     36853     36857     36854     36858
     36862     36859     36863     36867     36864     36868     36872     36869     36873
     36877     36874     36878     36882     36879     36883     36887     36884     36888
     36892     36889     36893     36897     36894     36898     36902     36899     36903
     36907     36904     36908     36912     36909     36913     36917     36914     36918
     36922     36919     36923     36927     36924     36928     36932     36929     36933
     36937     36934     36938     36942     36939     36943     36947     36944     36948
     36952     36949     36953     36957     36954     36958     36962     36959     36963
     36967     36964     36968     36972     36969     36973     36977     36974     36978
     36982     36979     36983     36987     36984     36988     36992     36989     36993
     36997     36994     36998     37002     36999     37003     37007     37004     37008
     37012     37009     37013     37017     37014     37018     37022     37019     37023
     37027     37024     37028     37032     37029     37033     37037     37034     37038
     37042     37039     37043     37047     37044     37048     37052     37049     37053
     37057     37054     37058     37062     37059     37063     37067     37064     37068
     37072     37069     37073     37077     37074     37078     37082     37079     37083
     37087     37084     37088     37092     37089     37093     37097     37094     37098
     37102     37099     37103     37107     37104     37108     37112     37109     37113
     37117     37114     37118     37122     37119     37123     37127     37124     37128
     37132     37129     37133     37137     37134     37138     37142     37139     37143
     37147     37144     37148     37152     37149     37153     37157     37154     37158
     37162     37159     37163     37167     37164     37168     37172     37169     37173
     37177     37174     37178     37182     37179     37183     37187     37184     37188
     37192     37189     37193     37197     37194     37198     37202     37199     37203
     37207     37204     37208     37212     37209     37213     37217     37214     37218
     37222     37219     37223     37227     37224     37228     37232     37229     37233
     37237     37234     37238     37242     37239     37243     37247     37244     37248
     37252     37249     37253     37257     37254     37258     37262     37259     37263
     37267     37264     37268     37272     37269     37273     37277     37274     37278
     37282     37279     37283     37287     37284     37288     37292     37289     37293
     37297     37294     37298     37302     37299     37303     37307     37304     37308
     37312     37309     37313     37317     37314     37318     37322     37319     37323
     37327     37324     37328     37332     37329     37333     37337     37334     37338
     37342     37339     37343     37347     37344     37348     37352     37349     37353
     37357     37354     37358     37362     37359     37363     37367     37364     37368
     37372     37369     37373     37377     37374     37378     37382     37379     37383
     37387     37384     37388     37392     37389     37393     37397     37394     37398
     37402     37399     37403     37407     37404     37408     37412     37409     37413
     37417     37414     37418     37422     37419     37423     37427     37424     37428
     37432     37429     37433     37437     37434     37438     37442     37439     37443
     37447     37444     37448     37452     37449     37453     37457     37454     37458
     37462     37459     37463     37467     37464     37468     37472     37469     37473
     37477     37474     37478     37482     37479     37483     37487     37484     37488
     37492     37489     37493     37497     37494     37498     37502     37499     37503
     37507     37504     37508     37512     37509     37513     37517     37514     37518
     37522     37519     37523     37527     37524     37528     37532     37529     37533
     37537     37534     37538     37542     37539     37543     37547     37544     37548
     37552     37549     37553     37557     37554     37558     37562     37559     37563
     37567     37564     37568     37572     37569     37573     37577     37574     37578
     37582     37579     37583     37587     37584     37588     37592     37589     37593
     37597     37594     37598     37602     37599     37603     37607     37604     37608
     37612     37609     37613     37617     37614     37618     37622     37619     37623
     37627     37624     37628     37632     37629     37633     37637     37634     37638
     37642     37639     37643     37647     37644     37648     37652     37649     37653
     37657     37654     37658     37662     37659     37663     37667     37664     37668
     37672     37669     37673     37677     37674     37678     37682     37679     37683
     37687     37684     37688     37692     37689     37693     37697     37694     37698
     37702     37699     37703     37707     37704     37708     37712     37709     37713
     37717     37714     37718     37722     37719     37723     37727     37724     37728
     37732     37729     37733     37737     37734     37738     37742     37739     37743
     37747     37744     37748     37752     37749     37753     37757     37754     37758
     37762     37759     37763     37767     37764     37768     37772     37769     37773
     37777     37774     37778     37782     37779     37783     37787     37784     37788
     37792     37789     37793     37797     37794     37798     37802     37799     37803
     37807     37804     37808     37812     37809     37813     37817     37814     37818
     37822     37819     37823     37827     37824     37828     37832     37829     37833
     37837     37834     37838     37842     37839     37843     37847     37844     37848
     37852     37849     37853     37857     37854     37858     37862     37859     37863
     37867     37864     37868     37872     37869     37873     37877     37874     37878
     37882     37879     37883     37887     37884     37888     37892     37889     37893
     37897     37894     37898     37902     37899     37903     37907     37904     37908
     37912     37909     37913     37917     37914     37918     37922     37919     37923
     37927     37924     37928     37932     37929     37933     37937     37934     37938
     37942     37939     37943     37947     37944     37948     37952     37949     37953
     37957     37954     37958     37962     37959     37963     37967     37964     37968
     37972     37969     37973     37977     37974     37978     37982     37979     37983
     37987     37984     37988     37992     37989     37993     37997     37994     37998
     38002     37999     38003     38007     38004     38008     38012     38009     38013
     38017     38014     38018     38022     38019     38023     38027     38024     38028
     38032     38029     38033     38037     38034     38038     38042     38039     38043
     38047     38044     38048     38052     38049     38053     38057     38054     38058
     38062     38059     38063     38067     38064     38068     38072     38069     38073
     38077     38074     38078     38082     38079     38083     38087     38084     38088
     38092     38089     38093     38097     38094     38098     38102     38099     38103
     38107     38104     38108     38112     38109     38113     38117     38114     38118
     38122     38119     38123     38127     38124     38128     38132     38129     38133
     38137     38134     38138     38142     38139     38143     38147     38144     38148
     38152     38149     38153     38157     38154     38158     38162     38159     38163
     38167     38164     38168     38172     38169     38173     38177     38174     38178
     38182     38179     38183     38187     38184     38188     38192     38189     38193
     38197     38194     38198     38202     38199     38203     38207     38204     38208
     38212     38209     38213     38217     38214     38218     38222     38219     38223
     38227     38224     38228     38232     38229     38233     38237     38234     38238
     38242     38239     38243     38247     38244     38248     38252     38249     38253
     38257     38254     38258     38262     38259     38263     38267     38264     38268
     38272     38269     38273     38277     38274     38278     38282     38279     38283
     38287     38284     38288     38292     38289     38293     38297     38294     38298
     38302     38299     38303     38307     38304     38308     38312     38309     38313
     38317     38314     38318     38322     38319     38323     38327     38324     38328
     38332     38329     38333     38337     38334     38338     38342     38339     38343
     38347     38344     38348     38352     38349     38353     38357     38354     38358
     38362     38359     38363     38367     38364     38368     38372     38369     38373
     38377     38374     38378     38382     38379     38383     38387     38384     38388
     38392     38389     38393     38397     38394     38398     38402     38399     38403
     38407     38404     38408     38412     38409     38413     38417     38414     38418
     38422     38419     38423     38427     38424     38428     38432     38429     38433
     38437     38434     38438     38442     38439     38443     38447     38444     38448
     38452     38449     38453     38457     38454     38458     38462     38459     38463
     38467     38464     38468     38472     38469     38473     38477     38474     38478
     38482     38479     38483     38487     38484     38488     38492     38489     38493
     38497     38494     38498     38502     38499     38503     38507     38504     38508
     38512     38509     38513     38517     38514     38518     38522     38519     38523
     38527     38524     38528     38532     38529     38533     38537     38534     38538
     38542     38539     38543     38547     38544     38548     38552     38549     38553
     38557     38554     38558     38562     38559     38563     38567     38564     38568
     38572     38569     38573     38577     38574     38578     38582     38579     38583
     38587     38584     38588     38592     38589     38593     38597     38594     38598
     38602     38599     38603     38607     38604     38608     38612     38609     38613
     38617     38614     38618     38622     38619     38623     38627     38624     38628
     38632     38629     38633     38637     38634     38638     38642     38639     38643
     38647     38644     38648     38652     38649     38653     38657     38654     38658
     38662     38659     38663     38667     38664     38668     38672     38669     38673
     38677     38674     38678     38682     38679     38683     38687     38684     38688
     38692     38689     38693     38697     38694     38698     38702     38699     38703
     38707     38704     38708     38712     38709     38713     38717     38714     38718
     38722     38719     38723     38727     38724     38728     38732     38729     38733
     38737     38734     38738     38742     38739     38743     38747     38744     38748
     38752     38749     38753     38757     38754     38758     38762     38759     38763
     38767     38764     38768     38772     38769     38773     38777     38774     38778
     38782     38779     38783     38787     38784     38788     38792     38789     38793
     38797     38794     38798     38802     38799     38803     38807     38804     38808
     38812     38809     38813     38817     38814     38818     38822     38819     38823
     38827     38824     38828     38832     38829     38833     38837     38834     38838
     38842     38839     38843     38847     38844     38848     38852     38849     38853
     38857     38854     38858     38862     38859     38863     38867     38864     38868
     38872     38869     38873     38877     38874     38878     38882     38879     38883
     38887     38884     38888     38892     38889     38893     38897     38894     38898
     38902     38899     38903     38907     38904     38908     38912     38909     38913
     38917     38914     38918     38922     38919     38923     38927     38924     38928
     38932     38929     38933     38937     38934     38938     38942     38939     38943
     38947     38944     38948     38952     38949     38953     38957     38954     38958
     38962     38959     38963     38967     38964     38968     38972     38969     38973
     38977     38974     38978     38982     38979     38983     38987     38984     38988
     38992     38989     38993     38997     38994     38998     39002     38999     39003
     39007     39004     39008     39012     39009     39013     39017     39014     39018
     39022     39019     39023     39027     39024     39028     39032     39029     39033
     39037     39034     39038     39042     39039     39043     39047     39044     39048
     39052     39049     39053     39057     39054     39058     39062     39059     39063
     39067     39064     39068     39072     39069     39073     39077     39074     39078
     39082     39079     39083     39087     39084     39088     39092     39089     39093
     39097     39094     39098     39102     39099     39103     39107     39104     39108
     39112     39109     39113     39117     39114     39118     39122     39119     39123
     39127     39124     39128     39132     39129     39133     39137     39134     39138
     39142     39139     39143     39147     39144     39148     39152     39149     39153
     39157     39154     39158     39162     39159     39163     39167     39164     39168
     39172     39169     39173     39177     39174     39178     39182     39179     39183
     39187     39184     39188     39192     39189     39193     39197     39194     39198
     39202     39199     39203     39207     39204     39208     39212     39209     39213
     39217     39214     39218     39222     39219     39223     39227     39224     39228
     39232     39229     39233     39237     39234     39238     39242     39239     39243
     39247     39244     39248     39252     39249     39253     39257     39254     39258
     39262     39259     39263     39267     39264     39268     39272     39269     39273
     39277     39274     39278     39282     39279     39283     39287     39284     39288
     39292     39289     39293     39297     39294     39298     39302     39299     39303
     39307     39304     39308     39312     39309     39313     39317     39314     39318
     39322     39319     39323     39327     39324     39328     39332     39329     39333
     39337     39334     39338     39342     39339     39343     39347     39344     39348
     39352     39349     39353     39357     39354     39358     39362     39359     39363
     39367     39364     39368     39372     39369     39373     39377     39374     39378
     39382     39379     39383     39387     39384     39388     39392     39389     39393
     39397     39394     39398     39402     39399     39403     39407     39404     39408
     39412     39409     39413     39417     39414     39418     39422     39419     39423
     39427     39424     39428     39432     39429     39433     39437     39434     39438
     39442     39439     39443     39447     39444     39448     39452     39449     39453
     39457     39454     39458     39462     39459     39463     39467     39464     39468
     39472     39469     39473     39477     39474     39478     39482     39479     39483
     39487     39484     39488     39492     39489     39493     39497     39494     39498
     39502     39499     39503     39507     39504     39508     39512     39509     39513
     39517     39514     39518     39522     39519     39523     39527     39524     39528
     39532     39529     39533     39537     39534     39538     39542     39539     39543
     39547     39544     39548     39552     39549     39553     39557     39554     39558
     39562     39559     39563     39567     39564     39568     39572     39569     39573
     39577     39574     39578     39582     39579     39583     39587     39584     39588
     39592     39589     39593     39597     39594     39598     39602     39599     39603
     39607     39604     39608     39612     39609     39613     39617     39614     39618
     39622     39619     39623     39627     39624     39628     39632     39629     39633
     39637     39634     39638     39642     39639     39643     39647     39644     39648
     39652     39649     39653     39657     39654     39658     39662     39659     39663
     39667     39664     39668     39672     39669     39673     39677     39674     39678
     39682     39679     39683     39687     39684     39688     39692     39689     39693
     39697     39694     39698     39702     39699     39703     39707     39704     39708
     39712     39709     39713     39717     39714     39718     39722     39719     39723
     39727     39724     39728     39732     39729     39733     39737     39734     39738
     39742     39739     39743     39747     39744     39748     39752     39749     39753
     39757     39754     39758     39762     39759     39763     39767     39764     39768
     39772     39769     39773     39777     39774     39778     39782     39779     39783
     39787     39784     39788     39792     39789     39793     39797     39794     39798
     39802     39799     39803     39807     39804     39808     39812     39809     39813
     39817     39814     39818     39822     39819     39823     39827     39824     39828
     39832     39829     39833     39837     39834     39838     39842     39839     39843
     39847     39844     39848     39852     39849     39853     39857     39854     39858
     39862     39859     39863     39867     39864     39868     39872     39869     39873
     39877     39874     39878     39882     39879     39883     39887     39884     39888
     39892     39889     39893     39897     39894     39898     39902     39899     39903
     39907     39904     39908     39912     39909     39913     39917     39914     39918
     39922     39919     39923     39927     39924     39928     39932     39929     39933
     39937     39934     39938     39942     39939     39943     39947     39944     39948
     39952     39949     39953     39957     39954     39958     39962     39959     39963
     39967     39964     39968     39972     39969     39973     39977     39974     39978
     39982     39979     39983     39987     39984     39988     39992     39989     39993
     39997     39994     39998     40002     39999     40003     40007     40004     40008
     40012     40009     40013     40017     40014     40018     40022     40019     40023
     40027     40024     40028     40032     40029     40033     40037     40034     40038
     40042     40039     40043     40047     40044     40048     40052     40049     40053
     40057     40054     40058     40062     40059     40063     40067     40064     40068
     40072     40069     40073     40077     40074     40078     40082     40079     40083
     40087     40084     40088     40092     40089     40093     40097     40094     40098
     40102     40099     40103     40107     40104     40108     40112     40109     40113
     40117     40114     40118     40122     40119     40123     40127     40124     40128
     40132     40129     40133     40137     40134     40138     40142     40139     40143
     40147     40144     40148     40152     40149     40153     40157     40154     40158
     40162     40159     40163     40167     40164     40168     40172     40169     40173
     40177     40174     40178     40182     40179     40183     40187     40184     40188
     40192     40189     40193     40197     40194     40198     40202     40199     40203
     40207     40204     40208     40212     40209     40213     40217     40214     40218
     40222     40219     40223     40227     40224     40228     40232     40229     40233
     40237     40234     40238     40242     40239     40243     40247     40244     40248
     40252     40249     40253     40257     40254     40258     40262     40259     40263
     40267     40264     40268     40272     40269     40273     40277     40274     40278
     40282     40279     40283     40287     40284     40288     40292     40289     40293
     40297     40294     40298     40302     40299     40303     40307     40304     40308
     40312     40309     40313     40317     40314     40318     40322     40319     40323
     40327     40324     40328     40332     40329     40333     40337     40334     40338
     40342     40339     40343     40347     40344     40348     40352     40349     40353
     40357     40354     40358     40362     40359     40363     40367     40364     40368
     40372     40369     40373     40377     40374     40378     40382     40379     40383
     40387     40384     40388     40392     40389     40393     40397     40394     40398
     40402     40399     40403     40407     40404     40408     40412     40409     40413
     40417     40414     40418     40422     40419     40423     40427     40424     40428
     40432     40429     40433     40437     40434     40438     40442     40439     40443
     40447     40444     40448     40452     40449     40453     40457     40454     40458
     40462     40459     40463     40467     40464     40468     40472     40469     40473
     40477     40474     40478     40482     40479     40483     40487     40484     40488
     40492     40489     40493     40497     40494     40498     40502     40499     40503
     40507     40504     40508     40512     40509     40513     40517     40514     40518
     40522     40519     40523     40527     40524     40528     40532     40529     40533
     40537     40534     40538     40542     40539     40543     40547     40544     40548
     40552     40549     40553     40557     40554     40558     40562     40559     40563
     40567     40564     40568     40572     40569     40573     40577     40574     40578
     40582     40579     40583     40587     40584     40588     40592     40589     40593
     40597     40594     40598     40602     40599     40603     40607     40604     40608
     40612     40609     40613     40617     40614     40618     40622     40619     40623
     40627     40624     40628     40632     40629     40633     40637     40634     40638
     40642     40639     40643     40647     40644     40648     40652     40649     40653
     40657     40654     40658     40662     40659     40663     40667     40664     40668
     40672     40669     40673     40677     40674     40678     40682     40679     40683
     40687     40684     40688     40692     40689     40693     40697     40694     40698
     40702     40699     40703     40707     40704     40708     40712     40709     40713
     40717     40714     40718     40722     40719     40723     40727     40724     40728
     40732     40729     40733     40737     40734     40738     40742     40739     40743
     40747     40744     40748     40752     40749     40753     40757     40754     40758
     40762     40759     40763     40767     40764     40768     40772     40769     40773
     40777     40774     40778     40782     40779     40783     40787     40784     40788
     40792     40789     40793     40797     40794     40798     40802     40799     40803
     40807     40804     40808     40812     40809     40813     40817     40814     40818
     40822     40819     40823     40827     40824     40828     40832     40829     40833
     40837     40834     40838     40842     40839     40843     40847     40844     40848
     40852     40849     40853     40857     40854     40858     40862     40859     40863
     40867     40864     40868     40872     40869     40873     40877     40874     40878
     40882     40879     40883     40887     40884     40888     40892     40889     40893
     40897     40894     40898     40902     40899     40903     40907     40904     40908
     40912     40909     40913     40917     40914     40918     40922     40919     40923
     40927     40924     40928     40932     40929     40933     40937     40934     40938
     40942     40939     40943     40947     40944     40948     40952     40949     40953
     40957     40954     40958     40962     40959     40963     40967     40964     40968
     40972     40969     40973     40977     40974     40978     40982     40979     40983
     40987     40984     40988     40992     40989     40993     40997     40994     40998
     41002     40999     41003     41007     41004     41008     41012     41009     41013
     41017     41014     41018     41022     41019     41023     41027     41024     41028
     41032     41029     41033     41037     41034     41038     41042     41039     41043
     41047     41044     41048     41052     41049     41053     41057     41054     41058
     41062     41059     41063     41067     41064     41068     41072     41069     41073
     41077     41074     41078     41082     41079     41083     41087     41084     41088
     41092     41089     41093     41097     41094     41098     41102     41099     41103
     41107     41104     41108     41112     41109     41113     41117     41114     41118
     41122     41119     41123     41127     41124     41128     41132     41129     41133
     41137     41134     41138     41142     41139     41143     41147     41144     41148
     41152     41149     41153     41157     41154     41158     41162     41159     41163
     41167     41164     41168     41172     41169     41173     41177     41174     41178
     41182     41179     41183     41187     41184     41188     41192     41189     41193
     41197     41194     41198     41202     41199     41203     41207     41204     41208
     41212     41209     41213     41217     41214     41218     41222     41219     41223
     41227     41224     41228     41232     41229     41233     41237     41234     41238
     41242     41239     41243     41247     41244     41248     41252     41249     41253
     41257     41254     41258     41262     41259     41263     41267     41264     41268
     41272     41269     41273     41277     41274     41278     41282     41279     41283
     41287     41284     41288     41292     41289     41293     41297     41294     41298
     41302     41299     41303     41307     41304     41308     41312     41309     41313
     41317     41314     41318     41322     41319     41323     41327     41324     41328
     41332     41329     41333     41337     41334     41338     41342     41339     41343
     41347     41344     41348     41352     41349     41353     41357     41354     41358
     41362     41359     41363     41367     41364     41368     41372     41369     41373
     41377     41374     41378     41382     41379     41383     41387     41384     41388
     41392     41389     41393     41397     41394     41398     41402     41399     41403
     41407     41404     41408     41412     41409     41413     41417     41414     41418
     41422     41419     41423     41427     41424     41428     41432     41429     41433
     41437     41434     41438     41442     41439     41443     41447     41444     41448
     41452     41449     41453     41457     41454     41458     41462     41459     41463
     41467     41464     41468     41472     41469     41473     41477     41474     41478
     41482     41479     41483     41487     41484     41488     41492     41489     41493
     41497     41494     41498     41502     41499     41503     41507     41504     41508
     41512     41509     41513     41517     41514     41518     41522     41519     41523
     41527     41524     41528     41532     41529     41533     41537     41534     41538
     41542     41539     41543     41547     41544     41548     41552     41549     41553
     41557     41554     41558     41562     41559     41563     41567     41564     41568
     41572     41569     41573     41577     41574     41578     41582     41579     41583
     41587     41584     41588     41592     41589     41593     41597     41594     41598
     41602     41599     41603     41607     41604     41608     41612     41609     41613
     41617     41614     41618     41622     41619     41623     41627     41624     41628
     41632     41629     41633     41637     41634     41638     41642     41639     41643
     41647     41644     41648     41652     41649     41653     41657     41654     41658
     41662     41659     41663     41667     41664     41668     41672     41669     41673
     41677     41674     41678     41682     41679     41683     41687     41684     41688
     41692     41689     41693     41697     41694     41698     41702     41699     41703
     41707     41704     41708     41712     41709     41713     41717     41714     41718
     41722     41719     41723     41727     41724     41728     41732     41729     41733
     41737     41734     41738     41742     41739     41743     41747     41744     41748
     41752     41749     41753     41757     41754     41758     41762     41759     41763
     41767     41764     41768     41772     41769     41773     41777     41774     41778
     41782     41779     41783     41787     41784     41788     41792     41789     41793
     41797     41794     41798     41802     41799     41803     41807     41804     41808
     41812     41809     41813     41817     41814     41818     41822     41819     41823
     41827     41824     41828     41832     41829     41833     41837     41834     41838
     41842     41839     41843     41847     41844     41848     41852     41849     41853
     41857     41854     41858     41862     41859     41863     41867     41864     41868
     41872     41869     41873     41877     41874     41878     41882     41879     41883
     41887     41884     41888     41892     41889     41893     41897     41894     41898
     41902     41899     41903     41907     41904     41908     41912     41909     41913
     41917     41914     41918     41922     41919     41923     41927     41924     41928
     41932     41929     41933     41937     41934     41938     41942     41939     41943
     41947     41944     41948     41952     41949     41953     41957     41954     41958
     41962     41959     41963     41967     41964     41968     41972     41969     41973
     41977     41974     41978     41982     41979     41983     41987     41984     41988
     41992     41989     41993     41997     41994     41998     42002     41999     42003
     42007     42004     42008     42012     42009     42013     42017     42014     42018
     42022     42019     42023     42027     42024     42028     42032     42029     42033
     42037     42034     42038     42042     42039     42043     42047     42044     42048
     42052     42049     42053     42057     42054     42058     42062     42059     42063
     42067     42064     42068     42072     42069     42073     42077     42074     42078
     42082     42079     42083     42087     42084     42088     42092     42089     42093
     42097     42094     42098     42102     42099     42103     42107     42104     42108
     42112     42109     42113     42117     42114     42118     42122     42119     42123
     42127     42124     42128     42132     42129     42133     42137     42134     42138
     42142     42139     42143     42147     42144     42148     42152     42149     42153
     42157     42154     42158     42162     42159     42163     42167     42164     42168
     42172     42169     42173     42177     42174     42178     42182     42179     42183
     42187     42184     42188     42192     42189     42193     42197     42194     42198
     42202     42199     42203     42207     42204     42208     42212     42209     42213
     42217     42214     42218     42222     42219     42223     42227     42224     42228
     42232     42229     42233     42237     42234     42238     42242     42239     42243
     42247     42244     42248     42252     42249     42253     42257     42254     42258
     42262     42259     42263     42267     42264     42268     42272     42269     42273
     42277     42274     42278     42282     42279     42283     42287     42284     42288
     42292     42289     42293     42297     42294     42298     42302     42299     42303
     42307     42304     42308     42312     42309     42313     42317     42314     42318
     42322     42319     42323     42327     42324     42328     42332     42329     42333
     42337     42334     42338     42342     42339     42343     42347     42344     42348
     42352     42349     42353     42357     42354     42358     42362     42359     42363
     42367     42364     42368     42372     42369     42373     42377     42374     42378
     42382     42379     42383     42387     42384     42388     42392     42389     42393
     42397     42394     42398     42402     42399     42403     42407     42404     42408
     42412     42409     42413     42417     42414     42418     42422     42419     42423
     42427     42424     42428     42432     42429     42433     42437     42434     42438
     42442     42439     42443     42447     42444     42448     42452     42449     42453
     42457     42454     42458     42462     42459     42463     42467     42464     42468
     42472     42469     42473     42477     42474     42478     42482     42479     42483
     42487     42484     42488     42492     42489     42493     42497     42494     42498
     42502     42499     42503     42507     42504     42508     42512     42509     42513
     42517     42514     42518     42522     42519     42523     42527     42524     42528
     42532     42529     42533     42537     42534     42538     42542     42539     42543
     42547     42544     42548     42552     42549     42553     42557     42554     42558
     42562     42559     42563     42567     42564     42568     42572     42569     42573
     42577     42574     42578     42582     42579     42583     42587     42584     42588
     42592     42589     42593     42597     42594     42598     42602     42599     42603
     42607     42604     42608     42612     42609     42613     42617     42614     42618
     42622     42619     42623     42627     42624     42628     42632     42629     42633
     42637     42634     42638     42642     42639     42643     42647     42644     42648
     42652     42649     42653     42657     42654     42658     42662     42659     42663
     42667     42664     42668     42672     42669     42673     42677     42674     42678
     42682     42679     42683     42687     42684     42688     42692     42689     42693
     42697     42694     42698     42702     42699     42703     42707     42704     42708
     42712     42709     42713     42717     42714     42718     42722     42719     42723
     42727     42724     42728     42732     42729     42733     42737     42734     42738
     42742     42739     42743     42747     42744     42748     42752     42749     42753
     42757     42754     42758     42762     42759     42763     42767     42764     42768
     42772     42769     42773     42777     42774     42778     42782     42779     42783
     42787     42784     42788     42792     42789     42793     42797     42794     42798
     42802     42799     42803     42807     42804     42808     42812     42809     42813
     42817     42814     42818     42822     42819     42823     42827     42824     42828
     42832     42829     42833     42837     42834     42838     42842     42839     42843
     42847     42844     42848     42852     42849     42853     42857     42854     42858
     42862     42859     42863     42867     42864     42868     42872     42869     42873
     42877     42874     42878     42882     42879     42883     42887     42884     42888
     42892     42889     42893     42897     42894     42898     42902     42899     42903
     42907     42904     42908     42912     42909     42913     42917     42914     42918
     42922     42919     42923     42927     42924     42928     42932     42929     42933
     42937     42934     42938     42942     42939     42943     42947     42944     42948
     42952     42949     42953     42957     42954     42958     42962     42959     42963
     42967     42964     42968     42972     42969     42973     42977     42974     42978
     42982     42979     42983     42987     42984     42988     42992     42989     42993
     42997     42994     42998     43002     42999     43003     43007     43004     43008
     43012     43009     43013     43017     43014     43018     43022     43019     43023
     43027     43024     43028     43032     43029     43033     43037     43034     43038
     43042     43039     43043     43047     43044     43048     43052     43049     43053
     43057     43054     43058     43062     43059     43063     43067     43064     43068
     43072     43069     43073     43077     43074     43078     43082     43079     43083
     43087     43084     43088     43092     43089     43093     43097     43094     43098
     43102     43099     43103     43107     43104     43108     43112     43109     43113
     43117     43114     43118     43122     43119     43123     43127     43124     43128
     43132     43129     43133     43137     43134     43138     43142     43139     43143
     43147     43144     43148     43152     43149     43153     43157     43154     43158
     43162     43159     43163     43167     43164     43168     43172     43169     43173
     43177     43174     43178     43182     43179     43183     43187     43184     43188
     43192     43189     43193     43197     43194     43198     43202     43199     43203
     43207     43204     43208     43212     43209     43213     43217     43214     43218
     43222     43219     43223     43227     43224     43228     43232     43229     43233
     43237     43234     43238     43242     43239     43243     43247     43244     43248
     43252     43249     43253     43257     43254     43258     43262     43259     43263
     43267     43264     43268     43272     43269     43273     43277     43274     43278
     43282     43279     43283     43287     43284     43288     43292     43289     43293
     43297     43294     43298     43302     43299     43303     43307     43304     43308
     43312     43309     43313     43317     43314     43318     43322     43319     43323
     43327     43324     43328     43332     43329     43333     43337     43334     43338
     43342     43339     43343     43347     43344     43348     43352     43349     43353
     43357     43354     43358     43362     43359     43363     43367     43364     43368
     43372     43369     43373     43377     43374     43378     43382     43379     43383
     43387     43384     43388     43392     43389     43393     43397     43394     43398
     43402     43399     43403     43407     43404     43408     43412     43409     43413
     43417     43414     43418     43422     43419     43423     43427     43424     43428
     43432     43429     43433     43437     43434     43438     43442     43439     43443
     43447     43444     43448     43452     43449     43453     43457     43454     43458
     43462     43459     43463     43467     43464     43468     43472     43469     43473
     43477     43474     43478     43482     43479     43483     43487     43484     43488
     43492     43489     43493     43497     43494     43498     43502     43499     43503
     43507     43504     43508     43512     43509     43513     43517     43514     43518
     43522     43519     43523     43527     43524     43528     43532     43529     43533
     43537     43534     43538     43542     43539     43543     43547     43544     43548
     43552     43549     43553     43557     43554     43558     43562     43559     43563
     43567     43564     43568     43572     43569     43573     43577     43574     43578
     43582     43579     43583     43587     43584     43588     43592     43589     43593
     43597     43594     43598     43602     43599     43603     43607     43604     43608
     43612     43609     43613     43617     43614     43618     43622     43619     43623
     43627     43624     43628     43632     43629     43633     43637     43634     43638
     43642     43639     43643     43647     43644     43648     43652     43649     43653
     43657     43654     43658     43662     43659     43663     43667     43664     43668
     43672     43669     43673     43677     43674     43678     43682     43679     43683
     43687     43684     43688     43692     43689     43693     43697     43694     43698
     43702     43699     43703     43707     43704     43708     43712     43709     43713
     43717     43714     43718     43722     43719     43723     43727     43724     43728
     43732     43729     43733     43737     43734     43738     43742     43739     43743
     43747     43744     43748     43752     43749     43753     43757     43754     43758
     43762     43759     43763     43767     43764     43768     43772     43769     43773
     43777     43774     43778     43782     43779     43783     43787     43784     43788
     43792     43789     43793     43797     43794     43798     43802     43799     43803
     43807     43804     43808     43812     43809     43813     43817     43814     43818
     43822     43819     43823     43827     43824     43828     43832     43829     43833
     43837     43834     43838     43842     43839     43843     43847     43844     43848
     43852     43849     43853     43857     43854     43858     43862     43859     43863
     43867     43864     43868     43872     43869     43873     43877     43874     43878
     43882     43879     43883     43887     43884     43888     43892     43889     43893
     43897     43894     43898     43902     43899     43903     43907     43904     43908
     43912     43909     43913     43917     43914     43918     43922     43919     43923
     43927     43924     43928     43932     43929     43933     43937     43934     43938
     43942     43939     43943     43947     43944     43948     43952     43949     43953
     43957     43954     43958     43962     43959     43963     43967     43964     43968
     43972     43969     43973     43977     43974     43978     43982     43979     43983
     43987     43984     43988     43992     43989     43993     43997     43994     43998
     44002     43999     44003     44007     44004     44008     44012     44009     44013
     44017     44014     44018     44022     44019     44023     44027     44024     44028
     44032     44029     44033     44037     44034     44038     44042     44039     44043
     44047     44044     44048     44052     44049     44053     44057     44054     44058
     44062     44059     44063     44067     44064     44068     44072     44069     44073
     44077     44074     44078     44082     44079     44083     44087     44084     44088
     44092     44089     44093     44097     44094     44098     44102     44099     44103
     44107     44104     44108     44112     44109     44113     44117     44114     44118
     44122     44119     44123     44127     44124     44128     44132     44129     44133
     44137     44134     44138     44142     44139     44143     44147     44144     44148
     44152     44149     44153     44157     44154     44158     44162     44159     44163
     44167     44164     44168     44172     44169     44173     44177     44174     44178
     44182     44179     44183     44187     44184     44188     44192     44189     44193
     44197     44194     44198     44202     44199     44203     44207     44204     44208
     44212     44209     44213     44217     44214     44218     44222     44219     44223
     44227     44224     44228     44232     44229     44233     44237     44234     44238
     44242     44239     44243     44247     44244     44248     44252     44249     44253
     44257     44254     44258     44262     44259     44263     44267     44264     44268
     44272     44269     44273     44277     44274     44278     44282     44279     44283
     44287     44284     44288     44292     44289     44293     44297     44294     44298
     44302     44299     44303     44307     44304     44308     44312     44309     44313
     44317     44314     44318     44322     44319     44323     44327     44324     44328
     44332     44329     44333     44337     44334     44338     44342     44339     44343
     44347     44344     44348     44352     44349     44353     44357     44354     44358
     44362     44359     44363     44367     44364     44368     44372     44369     44373
     44377     44374     44378     44382     44379     44383     44387     44384     44388
     44392     44389     44393     44397     44394     44398     44402     44399     44403
     44407     44404     44408     44412     44409     44413     44417     44414     44418
     44422     44419     44423     44427     44424     44428     44432     44429     44433
     44437     44434     44438     44442     44439     44443     44447     44444     44448
     44452     44449     44453     44457     44454     44458     44462     44459     44463
     44467     44464     44468     44472     44469     44473     44477     44474     44478
     44482     44479     44483     44487     44484     44488     44492     44489     44493
     44497     44494     44498     44502     44499     44503     44507     44504     44508
     44512     44509     44513     44517     44514     44518     44522     44519     44523
     44527     44524     44528     44532     44529     44533     44537     44534     44538
     44542     44539     44543     44547     44544     44548     44552     44549     44553
     44557     44554     44558     44562     44559     44563     44567     44564     44568
     44572     44569     44573     44577     44574     44578     44582     44579     44583
     44587     44584     44588     44592     44589     44593     44597     44594     44598
     44602     44599     44603     44607     44604     44608     44612     44609     44613
     44617     44614     44618     44622     44619     44623     44627     44624     44628
     44632     44629     44633     44637     44634     44638     44642     44639     44643
     44647     44644     44648     44652     44649     44653     44657     44654     44658
     44662     44659     44663     44667     44664     44668     44672     44669     44673
     44677     44674     44678     44682     44679     44683     44687     44684     44688
     44692     44689     44693     44697     44694     44698     44702     44699     44703
     44707     44704     44708     44712     44709     44713     44717     44714     44718
     44722     44719     44723     44727     44724     44728     44732     44729     44733
     44737     44734     44738     44742     44739     44743     44747     44744     44748
     44752     44749     44753     44757     44754     44758     44762     44759     44763
     44767     44764     44768     44772     44769     44773     44777     44774     44778
     44782     44779     44783     44787     44784     44788     44792     44789     44793
     44797     44794     44798     44802     44799     44803     44807     44804     44808
     44812     44809     44813     44817     44814     44818     44822     44819     44823
     44827     44824     44828     44832     44829     44833     44837     44834     44838
     44842     44839     44843     44847     44844     44848     44852     44849     44853
     44857     44854     44858     44862     44859     44863     44867     44864     44868
     44872     44869     44873     44877     44874     44878     44882     44879     44883
     44887     44884     44888     44892     44889     44893     44897     44894     44898
     44902     44899     44903     44907     44904     44908     44912     44909     44913
     44917     44914     44918     44922     44919     44923     44927     44924     44928
     44932     44929     44933     44937     44934     44938     44942     44939     44943
     44947     44944     44948     44952     44949     44953     44957     44954     44958
     44962     44959     44963     44967     44964     44968     44972     44969     44973
     44977     44974     44978     44982     44979     44983     44987     44984     44988
     44992     44989     44993     44997     44994     44998     45002     44999     45003
     45007     45004     45008     45012     45009     45013     45017     45014     45018
     45022     45019     45023     45027     45024     45028     45032     45029     45033
     45037     45034     45038     45042     45039     45043     45047     45044     45048
     45052     45049     45053     45057     45054     45058     45062     45059     45063
     45067     45064     45068     45072     45069     45073     45077     45074     45078
     45082     45079     45083     45087     45084     45088     45092     45089     45093
     45097     45094     45098     45102     45099     45103     45107     45104     45108
     45112     45109     45113     45117     45114     45118     45122     45119     45123
     45127     45124     45128     45132     45129     45133     45137     45134     45138
     45142     45139     45143     45147     45144     45148     45152     45149     45153
     45157     45154     45158     45162     45159     45163     45167     45164     45168
     45172     45169     45173     45177     45174     45178     45182     45179     45183
     45187     45184     45188     45192     45189     45193     45197     45194     45198
     45202     45199     45203     45207     45204     45208     45212     45209     45213
     45217     45214     45218     45222     45219     45223     45227     45224     45228
     45232     45229     45233     45237     45234     45238     45242     45239     45243
     45247     45244     45248     45252     45249     45253     45257     45254     45258
     45262     45259     45263     45267     45264     45268     45272     45269     45273
     45277     45274     45278     45282     45279     45283     45287     45284     45288
     45292     45289     45293     45297     45294     45298     45302     45299     45303
     45307     45304     45308     45312     45309     45313     45317     45314     45318
     45322     45319     45323     45327     45324     45328     45332     45329     45333
     45337     45334     45338     45342     45339     45343     45347     45344     45348
     45352     45349     45353     45357     45354     45358     45362     45359     45363
     45367     45364     45368     45372     45369     45373     45377     45374     45378
     45382     45379     45383     45387     45384     45388     45392     45389     45393
     45397     45394     45398     45402     45399     45403     45407     45404     45408
     45412     45409     45413     45417     45414     45418     45422     45419     45423
     45427     45424     45428     45432     45429     45433     45437     45434     45438
     45442     45439     45443     45447     45444     45448     45452     45449     45453
     45457     45454     45458     45462     45459     45463     45467     45464     45468
     45472     45469     45473     45477     45474     45478     45482     45479     45483
     45487     45484     45488     45492     45489     45493     45497     45494     45498
     45502     45499     45503     45507     45504     45508     45512     45509     45513
     45517     45514     45518     45522     45519     45523     45527     45524     45528
     45532     45529     45533     45537     45534     45538     45542     45539     45543
     45547     45544     45548     45552     45549     45553     45557     45554     45558
     45562     45559     45563     45567     45564     45568     45572     45569     45573
     45577     45574     45578     45582     45579     45583     45587     45584     45588
     45592     45589     45593     45597     45594     45598     45602     45599     45603
     45607     45604     45608     45612     45609     45613     45617     45614     45618
     45622     45619     45623     45627     45624     45628     45632     45629     45633
     45637     45634     45638     45642     45639     45643     45647     45644     45648
     45652     45649     45653     45657     45654     45658     45662     45659     45663
     45667     45664     45668     45672     45669     45673     45677     45674     45678
     45682     45679     45683     45687     45684     45688     45692     45689     45693
     45697     45694     45698     45702     45699     45703     45707     45704     45708
     45712     45709     45713     45717     45714     45718     45722     45719     45723
     45727     45724     45728     45732     45729     45733     45737     45734     45738
     45742     45739     45743     45747     45744     45748     45752     45749     45753
     45757     45754     45758     45762     45759     45763     45767     45764     45768
     45772     45769     45773     45777     45774     45778     45782     45779     45783
     45787     45784     45788     45792     45789     45793     45797     45794     45798
     45802     45799     45803     45807     45804     45808     45812     45809     45813
     45817     45814     45818     45822     45819     45823     45827     45824     45828
     45832     45829     45833     45837     45834     45838     45842     45839     45843
     45847     45844     45848     45852     45849     45853     45857     45854     45858
     45862     45859     45863     45867     45864     45868     45872     45869     45873
     45877     45874     45878     45882     45879     45883     45887     45884     45888
     45892     45889     45893     45897     45894     45898     45902     45899     45903
     45907     45904     45908     45912     45909     45913     45917     45914     45918
     45922     45919     45923     45927     45924     45928     45932     45929     45933
     45937     45934     45938     45942     45939     45943     45947     45944     45948
     45952     45949     45953     45957     45954     45958     45962     45959     45963
     45967     45964     45968     45972     45969     45973     45977     45974     45978
     45982     45979     45983     45987     45984     45988     45992     45989     45993
     45997     45994     45998     46002     45999     46003     46007     46004     46008
     46012     46009     46013     46017     46014     46018     46022     46019     46023
     46027     46024     46028     46032     46029     46033     46037     46034     46038
     46042     46039     46043     46047     46044     46048     46052     46049     46053
     46057     46054     46058     46062     46059     46063     46067     46064     46068
     46072     46069     46073     46077     46074     46078     46082     46079     46083
     46087     46084     46088     46092     46089     46093     46097     46094     46098
     46102     46099     46103     46107     46104     46108     46112     46109     46113
     46117     46114     46118     46122     46119     46123     46127     46124     46128
     46132     46129     46133     46137     46134     46138     46142     46139     46143
     46147     46144     46148     46152     46149     46153     46157     46154     46158
     46162     46159     46163     46167     46164     46168     46172     46169     46173
     46177     46174     46178     46182     46179     46183     46187     46184     46188
     46192     46189     46193     46197     46194     46198     46202     46199     46203
     46207     46204     46208     46212     46209     46213     46217     46214     46218
     46222     46219     46223     46227     46224     46228     46232     46229     46233
     46237     46234     46238     46242     46239     46243     46247     46244     46248
     46252     46249     46253     46257     46254     46258     46262     46259     46263
     46267     46264     46268     46272     46269     46273     46277     46274     46278
     46282     46279     46283     46287     46284     46288     46292     46289     46293
     46297     46294     46298     46302     46299     46303     46307     46304     46308
     46312     46309     46313     46317     46314     46318     46322     46319     46323
     46327     46324     46328     46332     46329     46333     46337     46334     46338
     46342     46339     46343     46347     46344     46348     46352     46349     46353
     46357     46354     46358     46362     46359     46363     46367     46364     46368
     46372     46369     46373     46377     46374     46378     46382     46379     46383
     46387     46384     46388     46392     46389     46393     46397     46394     46398
     46402     46399     46403     46407     46404     46408     46412     46409     46413
     46417     46414     46418     46422     46419     46423     46427     46424     46428
     46432     46429     46433     46437     46434     46438     46442     46439     46443
     46447     46444     46448     46452     46449     46453     46457     46454     46458
     46462     46459     46463     46467     46464     46468     46472     46469     46473
     46477     46474     46478     46482     46479     46483     46487     46484     46488
     46492     46489     46493     46497     46494     46498     46502     46499     46503
     46507     46504     46508     46512     46509     46513     46517     46514     46518
     46522     46519     46523     46527     46524     46528     46532     46529     46533
     46537     46534     46538     46542     46539     46543     46547     46544     46548
     46552     46549     46553     46557     46554     46558     46562     46559     46563
     46567     46564     46568     46572     46569     46573     46577     46574     46578
     46582     46579     46583     46587     46584     46588     46592     46589     46593
     46597     46594     46598     46602     46599     46603     46607     46604     46608
     46612     46609     46613     46617     46614     46618     46622     46619     46623
     46627     46624     46628     46632     46629     46633     46637     46634     46638
     46642     46639     46643     46647     46644     46648     46652     46649     46653
     46657     46654     46658     46662     46659     46663     46667     46664     46668
     46672     46669     46673     46677     46674     46678     46682     46679     46683
     46687     46684     46688     46692     46689     46693     46697     46694     46698
     46702     46699     46703     46707     46704     46708     46712     46709     46713
     46717     46714     46718     46722     46719     46723     46727     46724     46728
     46732     46729     46733     46737     46734     46738     46742     46739     46743
     46747     46744     46748     46752     46749     46753     46757     46754     46758
     46762     46759     46763     46767     46764     46768     46772     46769     46773
     46777     46774     46778     46782     46779     46783     46787     46784     46788
     46792     46789     46793     46797     46794     46798     46802     46799     46803
     46807     46804     46808     46812     46809     46813     46817     46814     46818
     46822     46819     46823     46827     46824     46828     46832     46829     46833
     46837     46834     46838     46842     46839     46843     46847     46844     46848
     46852     46849     46853     46857     46854     46858     46862     46859     46863
     46867     46864     46868     46872     46869     46873     46877     46874     46878
     46882     46879     46883     46887     46884     46888     46892     46889     46893
     46897     46894     46898     46902     46899     46903     46907     46904     46908
     46912     46909     46913     46917     46914     46918     46922     46919     46923
     46927     46924     46928     46932     46929     46933     46937     46934     46938
     46942     46939     46943     46947     46944     46948     46952     46949     46953
     46957     46954     46958     46962     46959     46963     46967     46964     46968
     46972     46969     46973     46977     46974     46978     46982     46979     46983
     46987     46984     46988     46992     46989     46993     46997     46994     46998
     47002     46999     47003     47007     47004     47008     47012     47009     47013
     47017     47014     47018     47022     47019     47023     47027     47024     47028
     47032     47029     47033     47037     47034     47038     47042     47039     47043
     47047     47044     47048     47052     47049     47053     47057     47054     47058
     47062     47059     47063     47067     47064     47068     47072     47069     47073
     47077     47074     47078     47082     47079     47083     47087     47084     47088
     47092     47089     47093     47097     47094     47098     47102     47099     47103
     47107     47104     47108     47112     47109     47113     47117     47114     47118
     47122     47119     47123     47127     47124     47128     47132     47129     47133
     47137     47134     47138     47142     47139     47143     47147     47144     47148
     47152     47149     47153     47157     47154     47158     47162     47159     47163
     47167     47164     47168     47172     47169     47173     47177     47174     47178
     47182     47179     47183     47187     47184     47188     47192     47189     47193
     47197     47194     47198     47202     47199     47203     47207     47204     47208
     47212     47209     47213     47217     47214     47218     47222     47219     47223
     47227     47224     47228     47232     47229     47233     47237     47234     47238
     47242     47239     47243     47247     47244     47248     47252     47249     47253
     47257     47254     47258     47262     47259     47263     47267     47264     47268
     47272     47269     47273     47277     47274     47278     47282     47279     47283
     47287     47284     47288     47292     47289     47293     47297     47294     47298
     47302     47299     47303     47307     47304     47308     47312     47309     47313
     47317     47314     47318     47322     47319     47323     47327     47324     47328
     47332     47329     47333     47337     47334     47338     47342     47339     47343
     47347     47344     47348     47352     47349     47353     47357     47354     47358
     47362     47359     47363     47367     47364     47368     47372     47369     47373
     47377     47374     47378     47382     47379     47383     47387     47384     47388
     47392     47389     47393     47397     47394     47398     47402     47399     47403
     47407     47404     47408     47412     47409     47413     47417     47414     47418
     47422     47419     47423     47427     47424     47428     47432     47429     47433
     47437     47434     47438     47442     47439     47443     47447     47444     47448
     47452     47449     47453     47457     47454     47458     47462     47459     47463
     47467     47464     47468     47472     47469     47473     47477     47474     47478
     47482     47479     47483     47487     47484     47488     47492     47489     47493
     47497     47494     47498     47502     47499     47503     47507     47504     47508
     47512     47509     47513     47517     47514     47518     47522     47519     47523
     47527     47524     47528     47532     47529     47533     47537     47534     47538
     47542     47539     47543     47547     47544     47548     47552     47549     47553
     47557     47554     47558     47562     47559     47563     47567     47564     47568
     47572     47569     47573     47577     47574     47578     47582     47579     47583
     47587     47584     47588     47592     47589     47593     47597     47594     47598
     47602     47599     47603     47607     47604     47608     47612     47609     47613
     47617     47614     47618     47622     47619     47623     47627     47624     47628
     47632     47629     47633     47637     47634     47638     47642     47639     47643
     47647     47644     47648     47652     47649     47653     47657     47654     47658
     47662     47659     47663     47667     47664     47668     47672     47669     47673
     47677     47674     47678     47682     47679     47683     47687     47684     47688
     47692     47689     47693     47697     47694     47698     47702     47699     47703
     47707     47704     47708     47712     47709     47713     47717     47714     47718
     47722     47719     47723     47727     47724     47728     47732     47729     47733
     47737     47734     47738     47742     47739     47743     47747     47744     47748
     47752     47749     47753     47757     47754     47758     47762     47759     47763
     47767     47764     47768     47772     47769     47773     47777     47774     47778
     47782     47779     47783     47787     47784     47788     47792     47789     47793
     47797     47794     47798     47802     47799     47803     47807     47804     47808
     47812     47809     47813     47817     47814     47818     47822     47819     47823
     47827     47824     47828     47832     47829     47833     47837     47834     47838
     47842     47839     47843     47847     47844     47848     47852     47849     47853
     47857     47854     47858     47862     47859     47863     47867     47864     47868
     47872     47869     47873     47877     47874     47878     47882     47879     47883
     47887     47884     47888     47892     47889     47893     47897     47894     47898
     47902     47899     47903     47907     47904     47908     47912     47909     47913
     47917     47914     47918     47922     47919     47923     47927     47924     47928
     47932     47929     47933     47937     47934     47938     47942     47939     47943
     47947     47944     47948     47952     47949     47953     47957     47954     47958
     47962     47959     47963     47967     47964     47968     47972     47969     47973
     47977     47974     47978     47982     47979     47983     47987     47984     47988
     47992     47989     47993     47997     47994     47998     48002     47999     48003
     48007     48004     48008     48012     48009     48013     48017     48014     48018
     48022     48019     48023     48027     48024     48028     48032     48029     48033
     48037     48034     48038     48042     48039     48043     48047     48044     48048
     48052     48049     48053     48057     48054     48058     48062     48059     48063
     48067     48064     48068     48072     48069     48073     48077     48074     48078
     48082     48079     48083     48087     48084     48088     48092     48089     48093
     48097     48094     48098     48102     48099     48103     48107     48104     48108
     48112     48109     48113     48117     48114     48118     48122     48119     48123
     48127     48124     48128     48132     48129     48133     48137     48134     48138
     48142     48139     48143     48147     48144     48148     48152     48149     48153
     48157     48154     48158     48162     48159     48163     48167     48164     48168
     48172     48169     48173     48177     48174     48178     48182     48179     48183
     48187     48184     48188     48192     48189     48193     48197     48194     48198
     48202     48199     48203     48207     48204     48208     48212     48209     48213
     48217     48214     48218     48222     48219     48223     48227     48224     48228
     48232     48229     48233     48237     48234     48238     48242     48239     48243
     48247     48244     48248     48252     48249     48253     48257     48254     48258
     48262     48259     48263     48267     48264     48268     48272     48269     48273
     48277     48274     48278     48282     48279     48283     48287     48284     48288
     48292     48289     48293     48297     48294     48298     48302     48299     48303
     48307     48304     48308     48312     48309     48313     48317     48314     48318
     48322     48319     48323     48327     48324     48328     48332     48329     48333
     48337     48334     48338     48342     48339     48343     48347     48344     48348
     48352     48349     48353     48357     48354     48358     48362     48359     48363
     48367     48364     48368     48372     48369     48373     48377     48374     48378
     48382     48379     48383     48387     48384     48388     48392     48389     48393
     48397     48394     48398     48402     48399     48403     48407     48404     48408
     48412     48409     48413     48417     48414     48418     48422     48419     48423
     48427     48424     48428     48432     48429     48433     48437     48434     48438
     48442     48439     48443     48447     48444     48448     48452     48449     48453
     48457     48454     48458     48462     48459     48463     48467     48464     48468
     48472     48469     48473     48477     48474     48478     48482     48479     48483
     48487     48484     48488     48492     48489     48493     48497     48494     48498
     48502     48499     48503     48507     48504     48508     48512     48509     48513
     48517     48514     48518     48522     48519     48523     48527     48524     48528
     48532     48529     48533     48537     48534     48538     48542     48539     48543
     48547     48544     48548     48552     48549     48553     48557     48554     48558
     48562     48559     48563     48567     48564     48568     48572     48569     48573
     48577     48574     48578     48582     48579     48583     48587     48584     48588
     48592     48589     48593     48597     48594     48598     48602     48599     48603
     48607     48604     48608     48612     48609     48613     48617     48614     48618
     48622     48619     48623     48627     48624     48628     48632     48629     48633
     48637     48634     48638     48642     48639     48643     48647     48644     48648
     48652     48649     48653     48657     48654     48658     48662     48659     48663
     48667     48664     48668     48672     48669     48673     48677     48674     48678
     48682     48679     48683     48687     48684     48688     48692     48689     48693
     48697     48694     48698     48702     48699     48703     48707     48704     48708
     48712     48709     48713     48717     48714     48718     48722     48719     48723
     48727     48724     48728     48732     48729     48733     48737     48734     48738
     48742     48739     48743     48747     48744     48748     48752     48749     48753
     48757     48754     48758     48762     48759     48763     48767     48764     48768
     48772     48769     48773     48777     48774     48778     48782     48779     48783
     48787     48784     48788     48792     48789     48793     48797     48794     48798
     48802     48799     48803     48807     48804     48808     48812     48809     48813
     48817     48814     48818     48822     48819     48823     48827     48824     48828
     48832     48829     48833     48837     48834     48838     48842     48839     48843
     48847     48844     48848     48852     48849     48853     48857     48854     48858
     48862     48859     48863     48867     48864     48868     48872     48869     48873
     48877     48874     48878     48882     48879     48883     48887     48884     48888
     48892     48889     48893     48897     48894     48898     48902     48899     48903
     48907     48904     48908     48912     48909     48913     48917     48914     48918
     48922     48919     48923     48927     48924     48928     48932     48929     48933
     48937     48934     48938     48942     48939     48943     48947     48944     48948
     48952     48949     48953     48957     48954     48958     48962     48959     48963
     48967     48964     48968     48972     48969     48973     48977     48974     48978
     48982     48979     48983     48987     48984     48988     48992     48989     48993
     48997     48994     48998     49002     48999     49003     49007     49004     49008
     49012     49009     49013     49017     49014     49018     49022     49019     49023
     49027     49024     49028     49032     49029     49033     49037     49034     49038
     49042     49039     49043     49047     49044     49048     49052     49049     49053
     49057     49054     49058     49062     49059     49063     49067     49064     49068
     49072     49069     49073     49077     49074     49078     49082     49079     49083
     49087     49084     49088     49092     49089     49093     49097     49094     49098
     49102     49099     49103     49107     49104     49108     49112     49109     49113
     49117     49114     49118     49122     49119     49123     49127     49124     49128
     49132     49129     49133     49137     49134     49138     49142     49139     49143
     49147     49144     49148     49152     49149     49153     49157     49154     49158
     49162     49159     49163     49167     49164     49168     49172     49169     49173
     49177     49174     49178     49182     49179     49183     49187     49184     49188
     49192     49189     49193     49197     49194     49198     49202     49199     49203
     49207     49204     49208     49212     49209     49213     49217     49214     49218
     49222     49219     49223     49227     49224     49228     49232     49229     49233
     49237     49234     49238     49242     49239     49243     49247     49244     49248
     49252     49249     49253     49257     49254     49258     49262     49259     49263
     49267     49264     49268     49272     49269     49273     49277     49274     49278
     49282     49279     49283     49287     49284     49288     49292     49289     49293
     49297     49294     49298     49302     49299     49303     49307     49304     49308
     49312     49309     49313     49317     49314     49318     49322     49319     49323
     49327     49324     49328     49332     49329     49333     49337     49334     49338
     49342     49339     49343     49347     49344     49348     49352     49349     49353
     49357     49354     49358     49362     49359     49363     49367     49364     49368
     49372     49369     49373     49377     49374     49378     49382     49379     49383
     49387     49384     49388     49392     49389     49393     49397     49394     49398
     49402     49399     49403     49407     49404     49408     49412     49409     49413
     49417     49414     49418     49422     49419     49423     49427     49424     49428
     49432     49429     49433     49437     49434     49438     49442     49439     49443
     49447     49444     49448     49452     49449     49453     49457     49454     49458
     49462     49459     49463     49467     49464     49468     49472     49469     49473
     49477     49474     49478     49482     49479     49483     49487     49484     49488
     49492     49489     49493     49497     49494     49498     49502     49499     49503
     49507     49504     49508     49512     49509     49513     49517     49514     49518
     49522     49519     49523     49527     49524     49528     49532     49529     49533
     49537     49534     49538     49542     49539     49543     49547     49544     49548
     49552     49549     49553     49557     49554     49558     49562     49559     49563
     49567     49564     49568     49572     49569     49573     49577     49574     49578
     49582     49579     49583     49587     49584     49588     49592     49589     49593
     49597     49594     49598     49602     49599     49603     49607     49604     49608
     49612     49609     49613     49617     49614     49618     49622     49619     49623
     49627     49624     49628     49632     49629     49633     49637     49634     49638
     49642     49639     49643     49647     49644     49648     49652     49649     49653
     49657     49654     49658     49662     49659     49663     49667     49664     49668
     49672     49669     49673     49677     49674     49678     49682     49679     49683
     49687     49684     49688     49692     49689     49693     49697     49694     49698
     49702     49699     49703     49707     49704     49708     49712     49709     49713
     49717     49714     49718     49722     49719     49723     49727     49724     49728
     49732     49729     49733     49737     49734     49738     49742     49739     49743
     49747     49744     49748     49752     49749     49753     49757     49754     49758
     49762     49759     49763     49767     49764     49768     49772     49769     49773
     49777     49774     49778     49782     49779     49783     49787     49784     49788
     49792     49789     49793     49797     49794     49798     49802     49799     49803
     49807     49804     49808     49812     49809     49813     49817     49814     49818
     49822     49819     49823     49827     49824     49828     49832     49829     49833
     49837     49834     49838     49842     49839     49843     49847     49844     49848
     49852     49849     49853     49857     49854     49858     49862     49859     49863
     49867     49864     49868     49872     49869     49873     49877     49874     49878
     49882     49879     49883     49887     49884     49888     49892     49889     49893
     49897     49894     49898     49902     49899     49903     49907     49904     49908
     49912     49909     49913     49917     49914     49918     49922     49919     49923
     49927     49924     49928     49932     49929     49933     49937     49934     49938
     49942     49939     49943     49947     49944     49948     49952     49949     49953
     49957     49954     49958     49962     49959     49963     49967     49964     49968
     49972     49969     49973     49977     49974     49978     49982     49979     49983
     49987     49984     49988     49992     49989     49993     49997     49994     49998
     50002     49999     50003     50007     50004     50008     50012     50009     50013
     50017     50014     50018     50022     50019     50023     50027     50024     50028
     50032     50029     50033     50037     50034     50038     50042     50039     50043
     50047     50044     50048     50052     50049     50053     50057     50054     50058
     50062     50059     50063     50067     50064     50068     50072     50069     50073
     50077     50074     50078     50082     50079     50083     50087     50084     50088
     50092     50089     50093     50097     50094     50098     50102     50099     50103
     50107     50104     50108     50112     50109     50113     50117     50114     50118
     50122     50119     50123     50127     50124     50128     50132     50129     50133
     50137     50134     50138     50142     50139     50143     50147     50144     50148
     50152     50149     50153     50157     50154     50158     50162     50159     50163
     50167     50164     50168     50172     50169     50173     50177     50174     50178
     50182     50179     50183     50187     50184     50188     50192     50189     50193
     50197     50194     50198     50202     50199     50203     50207     50204     50208
     50212     50209     50213     50217     50214     50218     50222     50219     50223
     50227     50224     50228     50232     50229     50233     50237     50234     50238
     50242     50239     50243     50247     50244     50248     50252     50249     50253
     50257     50254     50258     50262     50259     50263     50267     50264     50268
     50272     50269     50273     50277     50274     50278     50282     50279     50283
     50287     50284     50288     50292     50289     50293     50297     50294     50298
     50302     50299     50303     50307     50304     50308     50312     50309     50313
     50317     50314     50318     50322     50319     50323     50327     50324     50328
     50332     50329     50333     50337     50334     50338     50342     50339     50343
     50347     50344     50348     50352     50349     50353     50357     50354     50358
     50362     50359     50363     50367     50364     50368     50372     50369     50373
     50377     50374     50378     50382     50379     50383     50387     50384     50388
     50392     50389     50393     50397     50394     50398     50402     50399     50403
     50407     50404     50408     50412     50409     50413     50417     50414     50418
     50422     50419     50423     50427     50424     50428     50432     50429     50433
     50437     50434     50438     50442     50439     50443     50447     50444     50448
     50452     50449     50453     50457     50454     50458     50462     50459     50463
     50467     50464     50468     50472     50469     50473     50477     50474     50478
     50482     50479     50483     50487     50484     50488     50492     50489     50493
     50497     50494     50498     50502     50499     50503     50507     50504     50508
     50512     50509     50513     50517     50514     50518     50522     50519     50523
     50527     50524     50528     50532     50529     50533     50537     50534     50538
     50542     50539     50543     50547     50544     50548     50552     50549     50553
     50557     50554     50558     50562     50559     50563     50567     50564     50568
     50572     50569     50573     50577     50574     50578     50582     50579     50583
     50587     50584     50588     50592     50589     50593     50597     50594     50598
     50602     50599     50603     50607     50604     50608     50612     50609     50613
     50617     50614     50618     50622     50619     50623     50627     50624     50628
     50632     50629     50633     50637     50634     50638     50642     50639     50643
     50647     50644     50648     50652     50649     50653     50657     50654     50658
     50662     50659     50663     50667     50664     50668     50672     50669     50673
     50677     50674     50678     50682     50679     50683     50687     50684     50688
     50692     50689     50693     50697     50694     50698     50702     50699     50703
     50707     50704     50708     50712     50709     50713     50717     50714     50718
     50722     50719     50723     50727     50724     50728     50732     50729     50733
     50737     50734     50738     50742     50739     50743     50747     50744     50748
     50752     50749     50753     50757     50754     50758     50762     50759     50763
     50767     50764     50768     50772     50769     50773     50777     50774     50778
     50782     50779     50783     50787     50784     50788     50792     50789     50793
     50797     50794     50798     50802     50799     50803     50807     50804     50808
     50812     50809     50813     50817     50814     50818     50822     50819     50823
     50827     50824     50828     50832     50829     50833     50837     50834     50838
     50842     50839     50843     50847     50844     50848     50852     50849     50853
     50857     50854     50858     50862     50859     50863     50867     50864     50868
     50872     50869     50873     50877     50874     50878     50882     50879     50883
     50887     50884     50888     50892     50889     50893     50897     50894     50898
     50902     50899     50903     50907     50904     50908     50912     50909     50913
     50917     50914     50918     50922     50919     50923     50927     50924     50928
     50932     50929     50933     50937     50934     50938     50942     50939     50943
     50947     50944     50948     50952     50949     50953     50957     50954     50958
     50962     50959     50963     50967     50964     50968     50972     50969     50973
     50977     50974     50978     50982     50979     50983     50987     50984     50988
     50992     50989     50993     50997     50994     50998     51002     50999     51003
     51007     51004     51008     51012     51009     51013     51017     51014     51018
     51022     51019     51023     51027     51024     51028     51032     51029     51033
     51037     51034     51038     51042     51039     51043     51047     51044     51048
     51052     51049     51053     51057     51054     51058     51062     51059     51063
     51067     51064     51068     51072     51069     51073     51077     51074     51078
     51082     51079     51083     51087     51084     51088     51092     51089     51093
     51097     51094     51098     51102     51099     51103     51107     51104     51108
     51112     51109     51113     51117     51114     51118     51122     51119     51123
     51127     51124     51128     51132     51129     51133     51137     51134     51138
     51142     51139     51143     51147     51144     51148     51152     51149     51153
     51157     51154     51158     51162     51159     51163     51167     51164     51168
     51172     51169     51173     51177     51174     51178     51182     51179     51183
     51187     51184     51188     51192     51189     51193     51197     51194     51198
     51202     51199     51203     51207     51204     51208     51212     51209     51213
     51217     51214     51218     51222     51219     51223     51227     51224     51228
     51232     51229     51233     51237     51234     51238     51242     51239     51243
     51247     51244     51248     51252     51249     51253     51257     51254     51258
     51262     51259     51263     51267     51264     51268     51272     51269     51273
     51277     51274     51278     51282     51279     51283     51287     51284     51288
     51292     51289     51293     51297     51294     51298     51302     51299     51303
     51307     51304     51308     51312     51309     51313     51317     51314     51318
     51322     51319     51323     51327     51324     51328     51332     51329     51333
     51337     51334     51338     51342     51339     51343     51347     51344     51348
     51352     51349     51353     51357     51354     51358     51362     51359     51363
     51367     51364     51368     51372     51369     51373     51377     51374     51378
     51382     51379     51383     51387     51384     51388     51392     51389     51393
     51397     51394     51398     51402     51399     51403     51407     51404     51408

     47376 !NPHI: dihedrals
         1         6        10        12         1         6        10        13
         1         6        10        22         3         1         6         8
         3         1         6         9         3         1         6        10
         4         1         6         8         4         1         6         9
         4         1         6        10         5         1         6         8
         5         1         6         9         5         1         6        10
         6        10        22        14         8         6        10        12
         8         6        10        13         8         6        10        22
         9         6        10        12         9         6        10        13
         9         6        10        22        10        22        14        16
        10        22        14        18        10        22        14        20
        12        10        22        14        13        10        22        14
        14        20        24        26        14        20        24        27
        14        20        24        28        16        14        20        24
        18        14        20        24        20        24        28        30
        20        24        28        31        20        24        28        45
        22        14        20        24        24        28        31        33
        24        28        45        47        24        28        45        48
        24        28        45        49        26        24        28        30
        26        24        28        31        26        24        28        45
        27        24        28        30        27        24        28        31
        27        24        28        45        28        31        33        35
        28        31        33        37        28        45        49        51
        30        28        31        33        30        28        45        47
        30        28        45        48        30        28        45        49
        31        28        45        47        31        28        45        48
        31        28        45        49        31        33        37        39
        31        33        37        40        31        33        37        63
        33        31        28        45        33        37        63        65
        33        37        63        66        33        37        63        67
        35        33        37        39        35        33        37        40
        35        33        37        63        37        63        67        69
        37        63        67        70        37        63        67        71
        39        37        63        65        39        37        63        66
        39        37        63        67        40        37        63        65
        40        37        63        66        40        37        63        67
        45        49        51        53        45        49        51        55
        47        45        49        51        48        45        49        51
        49        51        55        57        49        51        55        58
        49        51        55       126        51        55       126       128
        51        55       126       129        51        55       126       130
        53        51        55        57        53        51        55        58
        53        51        55       126        55       126       130       132
        55       126       130       133        55       126       130       134
        57        55       126       128        57        55       126       129
        57        55       126       130        58        55       126       128
        58        55       126       129        58        55       126       130
        63        67        71        73        63        67        71        74
        63        67        71        75        65        63        67        69
        65        63        67        70        65        63        67        71
        66        63        67        69        66        63        67        70
        66        63        67        71        67        71        75        77
        67        71        75        78        67        71        75        79
        69        67        71        73        69        67        71        74
        69        67        71        75        70        67        71        73
        70        67        71        74        70        67        71        75
        71        75        79        81        71        75        79        82
        71        75        79        83        73        71        75        77
        73        71        75        78        73        71        75        79
        74        71        75        77        74        71        75        78
        74        71        75        79        75        79        83        85
        75        79        83        86        75        79        83        87
        77        75        79        81        77        75        79        82
        77        75        79        83        78        75        79        81
        78        75        79        82        78        75        79        83
        79        83        87        89        79        83        87        90
        81        79        83        85        81        79        83        86
        81        79        83        87        82        79        83        85
        82        79        83        86        82        79        83        87
        83        87        90        92        83        87        90        93
        85        83        87        89        85        83        87        90
        86        83        87        89        86        83        87        90
        87        90        93        95        87        90        93        96
        87        90        93        97        89        87        90        92
        89        87        90        93        90        93        97        99
        90        93        97       100        90        93        97       101
        92        90        93        95        92        90        93        96
        92        90        93        97        93        97       101       103
        93        97       101       104        93        97       101       105
        95        93        97        99        95        93        97       100
        95        93        97       101        96        93        97        99
        96        93        97       100        96        93        97       101
        97       101       105       107        97       101       105       108
        97       101       105       109        99        97       101       103
        99        97       101       104        99        97       101       105
       100        97       101       103       100        97       101       104
       100        97       101       105       101       105       109       111
       101       105       109       112       101       105       109       113
       103       101       105       107       103       101       105       108
       103       101       105       109       104       101       105       107
       104       101       105       108       104       101       105       109
       105       109       113       115       105       109       113       116
       105       109       113       117       107       105       109       111
       107       105       109       112       107       105       109       113
       108       105       109       111       108       105       109       112
       108       105       109       113       109       113       117       119
       109       113       117       120       109       113       117       121
       111       109       113       115       111       109       113       116
       111       109       113       117       112       109       113       115
       112       109       113       116       112       109       113       117
       113       117       121       123       113       117       121       124
       113       117       121       125       115       113       117       119
       115       113       117       120       115       113       117       121
       116       113       117       119       116       113       117       120
       116       113       117       121       119       117       121       123
       119       117       121       124       119       117       121       125
       120       117       121       123       120       117       121       124
       120       117       121       125       126       130       134       136
       126       130       134       137       126       130       134       138
       128       126       130       132       128       126       130       133
       128       126       130       134       129       126       130       132
       129       126       130       133       129       126       130       134
       130       134       138       140       130       134       138       141
       130       134       138       142       132       130       134       136
       132       130       134       137       132       130       134       138
       133       130       134       136       133       130       134       137
       133       130       134       138       134       138       142       144
       134       138       142       145       134       138       142       146
       136       134       138       140       136       134       138       141
       136       134       138       142       137       134       138       140
       137       134       138       141       137       134       138       142
       138       142       146       148       138       142       146       149
       138       142       146       150       140       138       142       144
       140       138       142       145       140       138       142       146
       141       138       142       144       141       138       142       145
       141       138       142       146       142       146       150       152
       142       146       150       153       142       146       150       154
       144       142       146       148       144       142       146       149
       144       142       146       150       145       142       146       148
       145       142       146       149       145       142       146       150
       146       150       154       156       146       150       154       157
       146       150       154       158       148       146       150       152
       148       146       150       153       148       146       150       154
       149       146       150       152       149       146       150       153
       149       146       150       154       150       154       158       160
       150       154       158       161       150       154       158       162
       152       150       154       156       152       150       154       157
       152       150       154       158       153       150       154       156
       153       150       154       157       153       150       154       158
       154       158       162       164       154       158       162       165
       154       158       162       166       156       154       158       160
       156       154       158       161       156       154       158       162
       157       154       158       160       157       154       158       161
       157       154       158       162       158       162       166       168
       158       162       166       169       158       162       166       170
       160       158       162       164       160       158       162       165
       160       158       162       166       161       158       162       164
       161       158       162       165       161       158       162       166
       162       166       170       172       162       166       170       173
       162       166       170       174       164       162       166       168
       164       162       166       169       164       162       166       170
       165       162       166       168       165       162       166       169
       165       162       166       170       166       170       174       176
       166       170       174       177       166       170       174       178
       168       166       170       172       168       166       170       173
       168       166       170       174       169       166       170       172
       169       166       170       173       169       166       170       174
       170       174       178       180       170       174       178       181
       170       174       178       182       172       170       174       176
       172       170       174       177       172       170       174       178
       173       170       174       176       173       170       174       177
       173       170       174       178       176       174       178       180
       176       174       178       181       176       174       178       182
       177       174       178       180       177       174       178       181
       177       174       178       182       183       188       192       194
       183       188       192       195       183       188       192       204
       185       183       188       190       185       183       188       191
       185       183       188       192       186       183       188       190
       186       183       188       191       186       183       188       192
       187       183       188       190       187       183       188       191
       187       183       188       192       188       192       204       196
       190       188       192       194       190       188       192       195
       190       188       192       204       191       188       192       194
       191       188       192       195       191       188       192       204
       192       204       196       198       192       204       196       200
       192       204       196       202       194       192       204       196
       195       192       204       196       196       202       206       208
       196       202       206       209       196       202       206       210
       198       196       202       206       200       196       202       206
       202       206       210       212       202       206       210       213
       202       206       210       227       204       196       202       206
       206       210       213       215       206       210       227       229
       206       210       227       230       206       210       227       231
       208       206       210       212       208       206       210       213
       208       206       210       227       209       206       210       212
       209       206       210       213       209       206       210       227
       210       213       215       217       210       213       215       219
       210       227       231       233       212       210       213       215
       212       210       227       229       212       210       227       230
       212       210       227       231       213       210       227       229
       213       210       227       230       213       210       227       231
       213       215       219       221       213       215       219       222
       213       215       219       245       215       213       210       227
       215       219       245       247       215       219       245       248
       215       219       245       249       217       215       219       221
       217       215       219       222       217       215       219       245
       219       245       249       251       219       245       249       252
       219       245       249       253       221       219       245       247
       221       219       245       248       221       219       245       249
       222       219       245       247       222       219       245       248
       222       219       245       249       227       231       233       235
       227       231       233       237       229       227       231       233
       230       227       231       233       231       233       237       239
       231       233       237       240       231       233       237       308
       233       237       308       310       233       237       308       311
       233       237       308       312       235       233       237       239
       235       233       237       240       235       233       237       308
       237       308       312       314       237       308       312       315
       237       308       312       316       239       237       308       310
       239       237       308       311       239       237       308       312
       240       237       308       310       240       237       308       311
       240       237       308       312       245       249       253       255
       245       249       253       256       245       249       253       257
       247       245       249       251       247       245       249       252
       247       245       249       253       248       245       249       251
       248       245       249       252       248       245       249       253
       249       253       257       259       249       253       257       260
       249       253       257       261       251       249       253       255
       251       249       253       256       251       249       253       257
       252       249       253       255       252       249       253       256
       252       249       253       257       253       257       261       263
       253       257       261       264       253       257       261       265
       255       253       257       259       255       253       257       260
       255       253       257       261       256       253       257       259
       256       253       257       260       256       253       257       261
       257       261       265       267       257       261       265       268
       257       261       265       269       259       257       261       263
       259       257       261       264       259       257       261       265
       260       257       261       263       260       257       261       264
       260       257       261       265       261       265       269       271
       261       265       269       272       263       261       265       267
       263       261       265       268       263       261       265       269
       264       261       265       267       264       261       265       268
       264       261       265       269       265       269       272       274
       265       269       272       275       267       265       269       271
       267       265       269       272       268       265       269       271
       268       265       269       272       269       272       275       277
       269       272       275       278       269       272       275       279
       271       269       272       274       271       269       272       275
       272       275       279       281       272       275       279       282
       272       275       279       283       274       272       275       277
       274       272       275       278       274       272       275       279
       275       279       283       285       275       279       283       286
       275       279       283       287       277       275       279       281
       277       275       279       282       277       275       279       283
       278       275       279       281       278       275       279       282
       278       275       279       283       279       283       287       289
       279       283       287       290       279       283       287       291
       281       279       283       285       281       279       283       286
       281       279       283       287       282       279       283       285
       282       279       283       286       282       279       283       287
       283       287       291       293       283       287       291       294
       283       287       291       295       285       283       287       289
       285       283       287       290       285       283       287       291
       286       283       287       289       286       283       287       290
       286       283       287       291       287       291       295       297
       287       291       295       298       287       291       295       299
       289       287       291       293       289       287       291       294
       289       287       291       295       290       287       291       293
       290       287       291       294       290       287       291       295
       291       295       299       301       291       295       299       302
       291       295       299       303       293       291       295       297
       293       291       295       298       293       291       295       299
       294       291       295       297       294       291       295       298
       294       291       295       299       295       299       303       305
       295       299       303       306       295       299       303       307
       297       295       299       301       297       295       299       302
       297       295       299       303       298       295       299       301
       298       295       299       302       298       295       299       303
       301       299       303       305       301       299       303       306
       301       299       303       307       302       299       303       305
       302       299       303       306       302       299       303       307
       308       312       316       318       308       312       316       319
       308       312       316       320       310       308       312       314
       310       308       312       315       310       308       312       316
       311       308       312       314       311       308       312       315
       311       308       312       316       312       316       320       322
       312       316       320       323       312       316       320       324
       314       312       316       318       314       312       316       319
       314       312       316       320       315       312       316       318
       315       312       316       319       315       312       316       320
       316       320       324       326       316       320       324       327
       316       320       324       328       318       316       320       322
       318       316       320       323       318       316       320       324
       319       316       320       322       319       316       320       323
       319       316       320       324       320       324       328       330
       320       324       328       331       320       324       328       332
       322       320       324       326       322       320       324       327
       322       320       324       328       323       320       324       326
       323       320       324       327       323       320       324       328
       324       328       332       334       324       328       332       335
       324       328       332       336       326       324       328       330
       326       324       328       331       326       324       328       332
       327       324       328       330       327       324       328       331
       327       324       328       332       328       332       336       338
       328       332       336       339       328       332       336       340
       330       328       332       334       330       328       332       335
       330       328       332       336       331       328       332       334
       331       328       332       335       331       328       332       336
       332       336       340       342       332       336       340       343
       332       336       340       344       334       332       336       338
       334       332       336       339       334       332       336       340
       335       332       336       338       335       332       336       339
       335       332       336       340       336       340       344       346
       336       340       344       347       336       340       344       348
       338       336       340       342       338       336       340       343
       338       336       340       344       339       336       340       342
       339       336       340       343       339       336       340       344
       340       344       348       350       340       344       348       351
       340       344       348       352       342       340       344       346
       342       340       344       347       342       340       344       348
       343       340       344       346       343       340       344       347
       343       340       344       348       344       348       352       354
       344       348       352       355       344       348       352       356
       346       344       348       350       346       344       348       351
       346       344       348       352       347       344       348       350
       347       344       348       351       347       344       348       352
       348       352       356       358       348       352       356       359
       348       352       356       360       350       348       352       354
       350       348       352       355       350       348       352       356
       351       348       352       354       351       348       352       355
       351       348       352       356       352       356       360       362
       352       356       360       363       352       356       360       364
       354       352       356       358       354       352       356       359
       354       352       356       360       355       352       356       358
       355       352       356       359       355       352       356       360
       358       356       360       362       358       356       360       363
       358       356       360       364       359       356       360       362
       359       356       360       363       359       356       360       364
       365       370       374       376       365       370       374       377
       365       370       374       386       367       365       370       372
       367       365       370       373       367       365       370       374
       368       365       370       372       368       365       370       373
       368       365       370       374       369       365       370       372
       369       365       370       373       369       365       370       374
       370       374       386       378       372       370       374       376
       372       370       374       377       372       370       374       386
       373       370       374       376       373       370       374       377
       373       370       374       386       374       386       378       380
       374       386       378       382       374       386       378       384
       376       374       386       378       377       374       386       378
       378       384       388       390       378       384       388       391
       378       384       388       392       380       378       384       388
       382       378       384       388       384       388       392       394
       384       388       392       395       384       388       392       409
       386       378       384       388       388       392       395       397
       388       392       409       411       388       392       409       412
       388       392       409       413       390       388       392       394
       390       388       392       395       390       388       392       409
       391       388       392       394       391       388       392       395
       391       388       392       409       392       395       397       399
       392       395       397       401       392       409       413       415
       394       392       395       397       394       392       409       411
       394       392       409       412       394       392       409       413
       395       392       409       411       395       392       409       412
       395       392       409       413       395       397       401       403
       395       397       401       404       395       397       401       427
       397       395       392       409       397       401       427       429
       397       401       427       430       397       401       427       431
       399       397       401       403       399       397       401       404
       399       397       401       427       401       427       431       433
       401       427       431       434       401       427       431       435
       403       401       427       429       403       401       427       430
       403       401       427       431       404       401       427       429
       404       401       427       430       404       401       427       431
       409       413       415       417       409       413       415       419
       411       409       413       415       412       409       413       415
       413       415       419       421       413       415       419       422
       413       415       419       490       415       419       490       492
       415       419       490       493       415       419       490       494
       417       415       419       421       417       415       419       422
       417       415       419       490       419       490       494       496
       419       490       494       497       419       490       494       498
       421       419       490       492       421       419       490       493
       421       419       490       494       422       419       490       492
       422       419       490       493       422       419       490       494
       427       431       435       437       427       431       435       438
       427       431       435       439       429       427       431       433
       429       427       431       434       429       427       431       435
       430       427       431       433       430       427       431       434
       430       427       431       435       431       435       439       441
       431       435       439       442       431       435       439       443
       433       431       435       437       433       431       435       438
       433       431       435       439       434       431       435       437
       434       431       435       438       434       431       435       439
       435       439       443       445       435       439       443       446
       435       439       443       447       437       435       439       441
       437       435       439       442       437       435       439       443
       438       435       439       441       438       435       439       442
       438       435       439       443       439       443       447       449
       439       443       447       450       439       443       447       451
       441       439       443       445       441       439       443       446
       441       439       443       447       442       439       443       445
       442       439       443       446       442       439       443       447
       443       447       451       453       443       447       451       454
       445       443       447       449       445       443       447       450
       445       443       447       451       446       443       447       449
       446       443       447       450       446       443       447       451
       447       451       454       456       447       451       454       457
       449       447       451       453       449       447       451       454
       450       447       451       453       450       447       451       454
       451       454       457       459       451       454       457       460
       451       454       457       461       453       451       454       456
       453       451       454       457       454       457       461       463
       454       457       461       464       454       457       461       465
       456       454       457       459       456       454       457       460
       456       454       457       461       457       461       465       467
       457       461       465       468       457       461       465       469
       459       457       461       463       459       457       461       464
       459       457       461       465       460       457       461       463
       460       457       461       464       460       457       461       465
       461       465       469       471       461       465       469       472
       461       465       469       473       463       461       465       467
       463       461       465       468       463       461       465       469
       464       461       465       467       464       461       465       468
       464       461       465       469       465       469       473       475
       465       469       473       476       465       469       473       477
       467       465       469       471       467       465       469       472
       467       465       469       473       468       465       469       471
       468       465       469       472       468       465       469       473
       469       473       477       479       469       473       477       480
       469       473       477       481       471       469       473       475
       471       469       473       476       471       469       473       477
       472       469       473       475       472       469       473       476
       472       469       473       477       473       477       481       483
       473       477       481       484       473       477       481       485
       475       473       477       479       475       473       477       480
       475       473       477       481       476       473       477       479
       476       473       477       480       476       473       477       481
       477       481       485       487       477       481       485       488
       477       481       485       489       479       477       481       483
       479       477       481       484       479       477       481       485
       480       477       481       483       480       477       481       484
       480       477       481       485       483       481       485       487
       483       481       485       488       483       481       485       489
       484       481       485       487       484       481       485       488
       484       481       485       489       490       494       498       500
       490       494       498       501       490       494       498       502
       492       490       494       496       492       490       494       497
       492       490       494       498       493       490       494       496
       493       490       494       497       493       490       494       498
       494       498       502       504       494       498       502       505
       494       498       502       506       496       494       498       500
       496       494       498       501       496       494       498       502
       497       494       498       500       497       494       498       501
       497       494       498       502       498       502       506       508
       498       502       506       509       498       502       506       510
       500       498       502       504       500       498       502       505
       500       498       502       506       501       498       502       504
       501       498       502       505       501       498       502       506
       502       506       510       512       502       506       510       513
       502       506       510       514       504       502       506       508
       504       502       506       509       504       502       506       510
       505       502       506       508       505       502       506       509
       505       502       506       510       506       510       514       516
       506       510       514       517       506       510       514       518
       508       506       510       512       508       506       510       513
       508       506       510       514       509       506       510       512
       509       506       510       513       509       506       510       514
       510       514       518       520       510       514       518       521
       510       514       518       522       512       510       514       516
       512       510       514       517       512       510       514       518
       513       510       514       516       513       510       514       517
       513       510       514       518       514       518       522       524
       514       518       522       525       514       518       522       526
       516       514       518       520       516       514       518       521
       516       514       518       522       517       514       518       520
       517       514       518       521       517       514       518       522
       518       522       526       528       518       522       526       529
       518       522       526       530       520       518       522       524
       520       518       522       525       520       518       522       526
       521       518       522       524       521       518       522       525
       521       518       522       526       522       526       530       532
       522       526       530       533       522       526       530       534
       524       522       526       528       524       522       526       529
       524       522       526       530       525       522       526       528
       525       522       526       529       525       522       526       530
       526       530       534       536       526       530       534       537
       526       530       534       538       528       526       530       532
       528       526       530       533       528       526       530       534
       529       526       530       532       529       526       530       533
       529       526       530       534       530       534       538       540
       530       534       538       541       530       534       538       542
       532       530       534       536       532       530       534       537
       532       530       534       538       533       530       534       536
       533       530       534       537       533       530       534       538
       534       538       542       544       534       538       542       545
       534       538       542       546       536       534       538       540
       536       534       538       541       536       534       538       542
       537       534       538       540       537       534       538       541
       537       534       538       542       540       538       542       544
       540       538       542       545       540       538       542       546
       541       538       542       544       541       538       542       545
       541       538       542       546       547       552       556       558
       547       552       556       559       547       552       556       568
       549       547       552       554       549       547       552       555
       549       547       552       556       550       547       552       554
       550       547       552       555       550       547       552       556
       551       547       552       554       551       547       552       555
       551       547       552       556       552       556       568       560
       554       552       556       558       554       552       556       559
       554       552       556       568       555       552       556       558
       555       552       556       559       555       552       556       568
       556       568       560       562       556       568       560       564
       556       568       560       566       558       556       568       560
       559       556       568       560       560       566       570       572
       560       566       570       573       560       566       570       574
       562       560       566       570       564       560       566       570
       566       570       574       576       566       570       574       577
       566       570       574       591       568       560       566       570
       570       574       577       579       570       574       591       593
       570       574       591       594       570       574       591       595
       572       570       574       576       572       570       574       577
       572       570       574       591       573       570       574       576
       573       570       574       577       573       570       574       591
       574       577       579       581       574       577       579       583
       574       591       595       597       576       574       577       579
       576       574       591       593       576       574       591       594
       576       574       591       595       577       574       591       593
       577       574       591       594       577       574       591       595
       577       579       583       585       577       579       583       586
       577       579       583       609       579       577       574       591
       579       583       609       611       579       583       609       612
       579       583       609       613       581       579       583       585
       581       579       583       586       581       579       583       609
       583       609       613       615       583       609       613       616
       583       609       613       617       585       583       609       611
       585       583       609       612       585       583       609       613
       586       583       609       611       586       583       609       612
       586       583       609       613       591       595       597       599
       591       595       597       601       593       591       595       597
       594       591       595       597       595       597       601       603
       595       597       601       604       595       597       601       672
       597       601       672       674       597       601       672       675
       597       601       672       676       599       597       601       603
       599       597       601       604       599       597       601       672
       601       672       676       678       601       672       676       679
       601       672       676       680       603       601       672       674
       603       601       672       675       603       601       672       676
       604       601       672       674       604       601       672       675
       604       601       672       676       609       613       617       619
       609       613       617       620       609       613       617       621
       611       609       613       615       611       609       613       616
       611       609       613       617       612       609       613       615
       612       609       613       616       612       609       613       617
       613       617       621       623       613       617       621       624
       613       617       621       625       615       613       617       619
       615       613       617       620       615       613       617       621
       616       613       617       619       616       613       617       620
       616       613       617       621       617       621       625       627
       617       621       625       628       617       621       625       629
       619       617       621       623       619       617       621       624
       619       617       621       625       620       617       621       623
       620       617       621       624       620       617       621       625
       621       625       629       631       621       625       629       632
       621       625       629       633       623       621       625       627
       623       621       625       628       623       621       625       629
       624       621       625       627       624       621       625       628
       624       621       625       629       625       629       633       635
       625       629       633       636       627       625       629       631
       627       625       629       632       627       625       629       633
       628       625       629       631       628       625       629       632
       628       625       629       633       629       633       636       638
       629       633       636       639       631       629       633       635
       631       629       633       636       632       629       633       635
       632       629       633       636       633       636       639       641
       633       636       639       642       633       636       639       643
       635       633       636       638       635       633       636       639
       636       639       643       645       636       639       643       646
       636       639       643       647       638       636       639       641
       638       636       639       642       638       636       639       643
       639       643       647       649       639       643       647       650
       639       643       647       651       641       639       643       645
       641       639       643       646       641       639       643       647
       642       639       643       645       642       639       643       646
       642       639       643       647       643       647       651       653
       643       647       651       654       643       647       651       655
       645       643       647       649       645       643       647       650
       645       643       647       651       646       643       647       649
       646       643       647       650       646       643       647       651
       647       651       655       657       647       651       655       658
       647       651       655       659       649       647       651       653
       649       647       651       654       649       647       651       655
       650       647       651       653       650       647       651       654
       650       647       651       655       651       655       659       661
       651       655       659       662       651       655       659       663
       653       651       655       657       653       651       655       658
       653       651       655       659       654       651       655       657
       654       651       655       658       654       651       655       659
       655       659       663       665       655       659       663       666
       655       659       663       667       657       655       659       661
       657       655       659       662       657       655       659       663
       658       655       659       661       658       655       659       662
       658       655       659       663       659       663       667       669
       659       663       667       670       659       663       667       671
       661       659       663       665       661       659       663       666
       661       659       663       667       662       659       663       665
       662       659       663       666       662       659       663       667
       665       663       667       669       665       663       667       670
       665       663       667       671       666       663       667       669
       666       663       667       670       666       663       667       671
       672       676       680       682       672       676       680       683
       672       676       680       684       674       672       676       678
       674       672       676       679       674       672       676       680
       675       672       676       678       675       672       676       679
       675       672       676       680       676       680       684       686
       676       680       684       687       676       680       684       688
       678       676       680       682       678       676       680       683
       678       676       680       684       679       676       680       682
       679       676       680       683       679       676       680       684
       680       684       688       690       680       684       688       691
       680       684       688       692       682       680       684       686
       682       680       684       687       682       680       684       688
       683       680       684       686       683       680       684       687
       683       680       684       688       684       688       692       694
       684       688       692       695       684       688       692       696
       686       684       688       690       686       684       688       691
       686       684       688       692       687       684       688       690
       687       684       688       691       687       684       688       692
       688       692       696       698       688       692       696       699
       688       692       696       700       690       688       692       694
       690       688       692       695       690       688       692       696
       691       688       692       694       691       688       692       695
       691       688       692       696       692       696       700       702
       692       696       700       703       692       696       700       704
       694       692       696       698       694       692       696       699
       694       692       696       700       695       692       696       698
       695       692       696       699       695       692       696       700
       696       700       704       706       696       700       704       707
       696       700       704       708       698       696       700       702
       698       696       700       703       698       696       700       704
       699       696       700       702       699       696       700       703
       699       696       700       704       700       704       708       710
       700       704       708       711       700       704       708       712
       702       700       704       706       702       700       704       707
       702       700       704       708       703       700       704       706
       703       700       704       707       703       700       704       708
       704       708       712       714       704       708       712       715
       704       708       712       716       706       704       708       710
       706       704       708       711       706       704       708       712
       707       704       708       710       707       704       708       711
       707       704       708       712       708       712       716       718
       708       712       716       719       708       712       716       720
       710       708       712       714       710       708       712       715
       710       708       712       716       711       708       712       714
       711       708       712       715       711       708       712       716
       712       716       720       722       712       716       720       723
       712       716       720       724       714       712       716       718
       714       712       716       719       714       712       716       720
       715       712       716       718       715       712       716       719
       715       712       716       720       716       720       724       726
       716       720       724       727       716       720       724       728
       718       716       720       722       718       716       720       723
       718       716       720       724       719       716       720       722
       719       716       720       723       719       716       720       724
       722       720       724       726       722       720       724       727
       722       720       724       728       723       720       724       726
       723       720       724       727       723       720       724       728
       729       734       738       740       729       734       738       741
       729       734       738       750       731       729       734       736
       731       729       734       737       731       729       734       738
       732       729       734       736       732       729       734       737
       732       729       734       738       733       729       734       736
       733       729       734       737       733       729       734       738
       734       738       750       742       736       734       738       740
       736       734       738       741       736       734       738       750
       737       734       738       740       737       734       738       741
       737       734       738       750       738       750       742       744
       738       750       742       746       738       750       742       748
       740       738       750       742       741       738       750       742
       742       748       752       754       742       748       752       755
       742       748       752       756       744       742       748       752
       746       742       748       752       748       752       756       758
       748       752       756       759       748       752       756       773
       750       742       748       752       752       756       759       761
       752       756       773       775       752       756       773       776
       752       756       773       777       754       752       756       758
       754       752       756       759       754       752       756       773
       755       752       756       758       755       752       756       759
       755       752       756       773       756       759       761       763
       756       759       761       765       756       773       777       779
       758       756       759       761       758       756       773       775
       758       756       773       776       758       756       773       777
       759       756       773       775       759       756       773       776
       759       756       773       777       759       761       765       767
       759       761       765       768       759       761       765       791
       761       759       756       773       761       765       791       793
       761       765       791       794       761       765       791       795
       763       761       765       767       763       761       765       768
       763       761       765       791       765       791       795       797
       765       791       795       798       765       791       795       799
       767       765       791       793       767       765       791       794
       767       765       791       795       768       765       791       793
       768       765       791       794       768       765       791       795
       773       777       779       781       773       777       779       783
       775       773       777       779       776       773       777       779
       777       779       783       785       777       779       783       786
       777       779       783       854       779       783       854       856
       779       783       854       857       779       783       854       858
       781       779       783       785       781       779       783       786
       781       779       783       854       783       854       858       860
       783       854       858       861       783       854       858       862
       785       783       854       856       785       783       854       857
       785       783       854       858       786       783       854       856
       786       783       854       857       786       783       854       858
       791       795       799       801       791       795       799       802
       791       795       799       803       793       791       795       797
       793       791       795       798       793       791       795       799
       794       791       795       797       794       791       795       798
       794       791       795       799       795       799       803       805
       795       799       803       806       795       799       803       807
       797       795       799       801       797       795       799       802
       797       795       799       803       798       795       799       801
       798       795       799       802       798       795       799       803
       799       803       807       809       799       803       807       810
       799       803       807       811       801       799       803       805
       801       799       803       806       801       799       803       807
       802       799       803       805       802       799       803       806
       802       799       803       807       803       807       811       813
       803       807       811       814       803       807       811       815
       805       803       807       809       805       803       807       810
       805       803       807       811       806       803       807       809
       806       803       807       810       806       803       807       811
       807       811       815       817       807       811       815       818
       809       807       811       813       809       807       811       814
       809       807       811       815       810       807       811       813
       810       807       811       814       810       807       811       815
       811       815       818       820       811       815       818       821
       813       811       815       817       813       811       815       818
       814       811       815       817       814       811       815       818
       815       818       821       823       815       818       821       824
       815       818       821       825       817       815       818       820
       817       815       818       821       818       821       825       827
       818       821       825       828       818       821       825       829
       820       818       821       823       820       818       821       824
       820       818       821       825       821       825       829       831
       821       825       829       832       821       825       829       833
       823       821       825       827       823       821       825       828
       823       821       825       829       824       821       825       827
       824       821       825       828       824       821       825       829
       825       829       833       835       825       829       833       836
       825       829       833       837       827       825       829       831
       827       825       829       832       827       825       829       833
       828       825       829       831       828       825       829       832
       828       825       829       833       829       833       837       839
       829       833       837       840       829       833       837       841
       831       829       833       835       831       829       833       836
       831       829       833       837       832       829       833       835
       832       829       833       836       832       829       833       837
       833       837       841       843       833       837       841       844
       833       837       841       845       835       833       837       839
       835       833       837       840       835       833       837       841
       836       833       837       839       836       833       837       840
       836       833       837       841       837       841       845       847
       837       841       845       848       837       841       845       849
       839       837       841       843       839       837       841       844
       839       837       841       845       840       837       841       843
       840       837       841       844       840       837       841       845
       841       845       849       851       841       845       849       852
       841       845       849       853       843       841       845       847
       843       841       845       848       843       841       845       849
       844       841       845       847       844       841       845       848
       844       841       845       849       847       845       849       851
       847       845       849       852       847       845       849       853
       848       845       849       851       848       845       849       852
       848       845       849       853       854       858       862       864
       854       858       862       865       854       858       862       866
       856       854       858       860       856       854       858       861
       856       854       858       862       857       854       858       860
       857       854       858       861       857       854       858       862
       858       862       866       868       858       862       866       869
       858       862       866       870       860       858       862       864
       860       858       862       865       860       858       862       866
       861       858       862       864       861       858       862       865
       861       858       862       866       862       866       870       872
       862       866       870       873       862       866       870       874
       864       862       866       868       864       862       866       869
       864       862       866       870       865       862       866       868
       865       862       866       869       865       862       866       870
       866       870       874       876       866       870       874       877
       866       870       874       878       868       866       870       872
       868       866       870       873       868       866       870       874
       869       866       870       872       869       866       870       873
       869       866       870       874       870       874       878       880
       870       874       878       881       870       874       878       882
       872       870       874       876       872       870       874       877
       872       870       874       878       873       870       874       876
       873       870       874       877       873       870       874       878
       874       878       882       884       874       878       882       885
       874       878       882       886       876       874       878       880
       876       874       878       881       876       874       878       882
       877       874       878       880       877       874       878       881
       877       874       878       882       878       882       886       888
       878       882       886       889       878       882       886       890
       880       878       882       884       880       878       882       885
       880       878       882       886       881       878       882       884
       881       878       882       885       881       878       882       886
       882       886       890       892       882       886       890       893
       882       886       890       894       884       882       886       888
       884       882       886       889       884       882       886       890
       885       882       886       888       885       882       886       889
       885       882       886       890       886       890       894       896
       886       890       894       897       886       890       894       898
       888       886       890       892       888       886       890       893
       888       886       890       894       889       886       890       892
       889       886       890       893       889       886       890       894
       890       894       898       900       890       894       898       901
       890       894       898       902       892       890       894       896
       892       890       894       897       892       890       894       898
       893       890       894       896       893       890       894       897
       893       890       894       898       894       898       902       904
       894       898       902       905       894       898       902       906
       896       894       898       900       896       894       898       901
       896       894       898       902       897       894       898       900
       897       894       898       901       897       894       898       902
       898       902       906       908       898       902       906       909
       898       902       906       910       900       898       902       904
       900       898       902       905       900       898       902       906
       901       898       902       904       901       898       902       905
       901       898       902       906       904       902       906       908
       904       902       906       909       904       902       906       910
       905       902       906       908       905       902       906       909
       905       902       906       910       911       916       920       922
       911       916       920       923       911       916       920       932
       913       911       916       918       913       911       916       919
       913       911       916       920       914       911       916       918
       914       911       916       919       914       911       916       920
       915       911       916       918       915       911       916       919
       915       911       916       920       916       920       932       924
       918       916       920       922       918       916       920       923
       918       916       920       932       919       916       920       922
       919       916       920       923       919       916       920       932
       920       932       924       926       920       932       924       928
       920       932       924       930       922       920       932       924
       923       920       932       924       924       930       934       936
       924       930       934       937       924       930       934       938
       926       924       930       934       928       924       930       934
       930       934       938       940       930       934       938       941
       930       934       938       955       932       924       930       934
       934       938       941       943       934       938       955       957
       934       938       955       958       934       938       955       959
       936       934       938       940       936       934       938       941
       936       934       938       955       937       934       938       940
       937       934       938       941       937       934       938       955
       938       941       943       945       938       941       943       947
       938       955       959       961       940       938       941       943
       940       938       955       957       940       938       955       958
       940       938       955       959       941       938       955       957
       941       938       955       958       941       938       955       959
       941       943       947       949       941       943       947       950
       941       943       947       973       943       941       938       955
       943       947       973       975       943       947       973       976
       943       947       973       977       945       943       947       949
       945       943       947       950       945       943       947       973
       947       973       977       979       947       973       977       980
       947       973       977       981       949       947       973       975
       949       947       973       976       949       947       973       977
       950       947       973       975       950       947       973       976
       950       947       973       977       955       959       961       963
       955       959       961       965       957       955       959       961
       958       955       959       961       959       961       965       967
       959       961       965       968       959       961       965      1036
       961       965      1036      1038       961       965      1036      1039
       961       965      1036      1040       963       961       965       967
       963       961       965       968       963       961       965      1036
       965      1036      1040      1042       965      1036      1040      1043
       965      1036      1040      1044       967       965      1036      1038
       967       965      1036      1039       967       965      1036      1040
       968       965      1036      1038       968       965      1036      1039
       968       965      1036      1040       973       977       981       983
       973       977       981       984       973       977       981       985
       975       973       977       979       975       973       977       980
       975       973       977       981       976       973       977       979
       976       973       977       980       976       973       977       981
       977       981       985       987       977       981       985       988
       977       981       985       989       979       977       981       983
       979       977       981       984       979       977       981       985
       980       977       981       983       980       977       981       984
       980       977       981       985       981       985       989       991
       981       985       989       992       981       985       989       993
       983       981       985       987       983       981       985       988
       983       981       985       989       984       981       985       987
       984       981       985       988       984       981       985       989
       985       989       993       995       985       989       993       996
       985       989       993       997       987       985       989       991
       987       985       989       992       987       985       989       993
       988       985       989       991       988       985       989       992
       988       985       989       993       989       993       997       999
       989       993       997      1000       991       989       993       995
       991       989       993       996       991       989       993       997
       992       989       993       995       992       989       993       996
       992       989       993       997       993       997      1000      1002
       993       997      1000      1003       995       993       997       999
       995       993       997      1000       996       993       997       999
       996       993       997      1000       997      1000      1003      1005
       997      1000      1003      1006       997      1000      1003      1007
       999       997      1000      1002       999       997      1000      1003
      1000      1003      1007      1009      1000      1003      1007      1010
      1000      1003      1007      1011      1002      1000      1003      1005
      1002      1000      1003      1006      1002      1000      1003      1007
      1003      1007      1011      1013      1003      1007      1011      1014
      1003      1007      1011      1015      1005      1003      1007      1009
      1005      1003      1007      1010      1005      1003      1007      1011
      1006      1003      1007      1009      1006      1003      1007      1010
      1006      1003      1007      1011      1007      1011      1015      1017
      1007      1011      1015      1018      1007      1011      1015      1019
      1009      1007      1011      1013      1009      1007      1011      1014
      1009      1007      1011      1015      1010      1007      1011      1013
      1010      1007      1011      1014      1010      1007      1011      1015
      1011      1015      1019      1021      1011      1015      1019      1022
      1011      1015      1019      1023      1013      1011      1015      1017
      1013      1011      1015      1018      1013      1011      1015      1019
      1014      1011      1015      1017      1014      1011      1015      1018
      1014      1011      1015      1019      1015      1019      1023      1025
      1015      1019      1023      1026      1015      1019      1023      1027
      1017      1015      1019      1021      1017      1015      1019      1022
      1017      1015      1019      1023      1018      1015      1019      1021
      1018      1015      1019      1022      1018      1015      1019      1023
      1019      1023      1027      1029      1019      1023      1027      1030
      1019      1023      1027      1031      1021      1019      1023      1025
      1021      1019      1023      1026      1021      1019      1023      1027
      1022      1019      1023      1025      1022      1019      1023      1026
      1022      1019      1023      1027      1023      1027      1031      1033
      1023      1027      1031      1034      1023      1027      1031      1035
      1025      1023      1027      1029      1025      1023      1027      1030
      1025      1023      1027      1031      1026      1023      1027      1029
      1026      1023      1027      1030      1026      1023      1027      1031
      1029      1027      1031      1033      1029      1027      1031      1034
      1029      1027      1031      1035      1030      1027      1031      1033
      1030      1027      1031      1034      1030      1027      1031      1035
      1036      1040      1044      1046      1036      1040      1044      1047
      1036      1040      1044      1048      1038      1036      1040      1042
      1038      1036      1040      1043      1038      1036      1040      1044
      1039      1036      1040      1042      1039      1036      1040      1043
      1039      1036      1040      1044      1040      1044      1048      1050
      1040      1044      1048      1051      1040      1044      1048      1052
      1042      1040      1044      1046      1042      1040      1044      1047
      1042      1040      1044      1048      1043      1040      1044      1046
      1043      1040      1044      1047      1043      1040      1044      1048
      1044      1048      1052      1054      1044      1048      1052      1055
      1044      1048      1052      1056      1046      1044      1048      1050
      1046      1044      1048      1051      1046      1044      1048      1052
      1047      1044      1048      1050      1047      1044      1048      1051
      1047      1044      1048      1052      1048      1052      1056      1058
      1048      1052      1056      1059      1048      1052      1056      1060
      1050      1048      1052      1054      1050      1048      1052      1055
      1050      1048      1052      1056      1051      1048      1052      1054
      1051      1048      1052      1055      1051      1048      1052      1056
      1052      1056      1060      1062      1052      1056      1060      1063
      1052      1056      1060      1064      1054      1052      1056      1058
      1054      1052      1056      1059      1054      1052      1056      1060
      1055      1052      1056      1058      1055      1052      1056      1059
      1055      1052      1056      1060      1056      1060      1064      1066
      1056      1060      1064      1067      1056      1060      1064      1068
      1058      1056      1060      1062      1058      1056      1060      1063
      1058      1056      1060      1064      1059      1056      1060      1062
      1059      1056      1060      1063      1059      1056      1060      1064
      1060      1064      1068      1070      1060      1064      1068      1071
      1060      1064      1068      1072      1062      1060      1064      1066
      1062      1060      1064      1067      1062      1060      1064      1068
      1063      1060      1064      1066      1063      1060      1064      1067
      1063      1060      1064      1068      1064      1068      1072      1074
      1064      1068      1072      1075      1064      1068      1072      1076
      1066      1064      1068      1070      1066      1064      1068      1071
      1066      1064      1068      1072      1067      1064      1068      1070
      1067      1064      1068      1071      1067      1064      1068      1072
      1068      1072      1076      1078      1068      1072      1076      1079
      1068      1072      1076      1080      1070      1068      1072      1074
      1070      1068      1072      1075      1070      1068      1072      1076
      1071      1068      1072      1074      1071      1068      1072      1075
      1071      1068      1072      1076      1072      1076      1080      1082
      1072      1076      1080      1083      1072      1076      1080      1084
      1074      1072      1076      1078      1074      1072      1076      1079
      1074      1072      1076      1080      1075      1072      1076      1078
      1075      1072      1076      1079      1075      1072      1076      1080
      1076      1080      1084      1086      1076      1080      1084      1087
      1076      1080      1084      1088      1078      1076      1080      1082
      1078      1076      1080      1083      1078      1076      1080      1084
      1079      1076      1080      1082      1079      1076      1080      1083
      1079      1076      1080      1084      1080      1084      1088      1090
      1080      1084      1088      1091      1080      1084      1088      1092
      1082      1080      1084      1086      1082      1080      1084      1087
      1082      1080      1084      1088      1083      1080      1084      1086
      1083      1080      1084      1087      1083      1080      1084      1088
      1086      1084      1088      1090      1086      1084      1088      1091
      1086      1084      1088      1092      1087      1084      1088      1090
      1087      1084      1088      1091      1087      1084      1088      1092
      1093      1098      1102      1104      1093      1098      1102      1105
      1093      1098      1102      1114      1095      1093      1098      1100
      1095      1093      1098      1101      1095      1093      1098      1102
      1096      1093      1098      1100      1096      1093      1098      1101
      1096      1093      1098      1102      1097      1093      1098      1100
      1097      1093      1098      1101      1097      1093      1098      1102
      1098      1102      1114      1106      1100      1098      1102      1104
      1100      1098      1102      1105      1100      1098      1102      1114
      1101      1098      1102      1104      1101      1098      1102      1105
      1101      1098      1102      1114      1102      1114      1106      1108
      1102      1114      1106      1110      1102      1114      1106      1112
      1104      1102      1114      1106      1105      1102      1114      1106
      1106      1112      1116      1118      1106      1112      1116      1119
      1106      1112      1116      1120      1108      1106      1112      1116
      1110      1106      1112      1116      1112      1116      1120      1122
      1112      1116      1120      1123      1112      1116      1120      1137
      1114      1106      1112      1116      1116      1120      1123      1125
      1116      1120      1137      1139      1116      1120      1137      1140
      1116      1120      1137      1141      1118      1116      1120      1122
      1118      1116      1120      1123      1118      1116      1120      1137
      1119      1116      1120      1122      1119      1116      1120      1123
      1119      1116      1120      1137      1120      1123      1125      1127
      1120      1123      1125      1129      1120      1137      1141      1143
      1122      1120      1123      1125      1122      1120      1137      1139
      1122      1120      1137      1140      1122      1120      1137      1141
      1123      1120      1137      1139      1123      1120      1137      1140
      1123      1120      1137      1141      1123      1125      1129      1131
      1123      1125      1129      1132      1123      1125      1129      1155
      1125      1123      1120      1137      1125      1129      1155      1157
      1125      1129      1155      1158      1125      1129      1155      1159
      1127      1125      1129      1131      1127      1125      1129      1132
      1127      1125      1129      1155      1129      1155      1159      1161
      1129      1155      1159      1162      1129      1155      1159      1163
      1131      1129      1155      1157      1131      1129      1155      1158
      1131      1129      1155      1159      1132      1129      1155      1157
      1132      1129      1155      1158      1132      1129      1155      1159
      1137      1141      1143      1145      1137      1141      1143      1147
      1139      1137      1141      1143      1140      1137      1141      1143
      1141      1143      1147      1149      1141      1143      1147      1150
      1141      1143      1147      1218      1143      1147      1218      1220
      1143      1147      1218      1221      1143      1147      1218      1222
      1145      1143      1147      1149      1145      1143      1147      1150
      1145      1143      1147      1218      1147      1218      1222      1224
      1147      1218      1222      1225      1147      1218      1222      1226
      1149      1147      1218      1220      1149      1147      1218      1221
      1149      1147      1218      1222      1150      1147      1218      1220
      1150      1147      1218      1221      1150      1147      1218      1222
      1155      1159      1163      1165      1155      1159      1163      1166
      1155      1159      1163      1167      1157      1155      1159      1161
      1157      1155      1159      1162      1157      1155      1159      1163
      1158      1155      1159      1161      1158      1155      1159      1162
      1158      1155      1159      1163      1159      1163      1167      1169
      1159      1163      1167      1170      1159      1163      1167      1171
      1161      1159      1163      1165      1161      1159      1163      1166
      1161      1159      1163      1167      1162      1159      1163      1165
      1162      1159      1163      1166      1162      1159      1163      1167
      1163      1167      1171      1173      1163      1167      1171      1174
      1163      1167      1171      1175      1165      1163      1167      1169
      1165      1163      1167      1170      1165      1163      1167      1171
      1166      1163      1167      1169      1166      1163      1167      1170
      1166      1163      1167      1171      1167      1171      1175      1177
      1167      1171      1175      1178      1167      1171      1175      1179
      1169      1167      1171      1173      1169      1167      1171      1174
      1169      1167      1171      1175      1170      1167      1171      1173
      1170      1167      1171      1174      1170      1167      1171      1175
      1171      1175      1179      1181      1171      1175      1179      1182
      1173      1171      1175      1177      1173      1171      1175      1178
      1173      1171      1175      1179      1174      1171      1175      1177
      1174      1171      1175      1178      1174      1171      1175      1179
      1175      1179      1182      1184      1175      1179      1182      1185
      1177      1175      1179      1181      1177      1175      1179      1182
      1178      1175      1179      1181      1178      1175      1179      1182
      1179      1182      1185      1187      1179      1182      1185      1188
      1179      1182      1185      1189      1181      1179      1182      1184
      1181      1179      1182      1185      1182      1185      1189      1191
      1182      1185      1189      1192      1182      1185      1189      1193
      1184      1182      1185      1187      1184      1182      1185      1188
      1184      1182      1185      1189      1185      1189      1193      1195
      1185      1189      1193      1196      1185      1189      1193      1197
      1187      1185      1189      1191      1187      1185      1189      1192
      1187      1185      1189      1193      1188      1185      1189      1191
      1188      1185      1189      1192      1188      1185      1189      1193
      1189      1193      1197      1199      1189      1193      1197      1200
      1189      1193      1197      1201      1191      1189      1193      1195
      1191      1189      1193      1196      1191      1189      1193      1197
      1192      1189      1193      1195      1192      1189      1193      1196
      1192      1189      1193      1197      1193      1197      1201      1203
      1193      1197      1201      1204      1193      1197      1201      1205
      1195      1193      1197      1199      1195      1193      1197      1200
      1195      1193      1197      1201      1196      1193      1197      1199
      1196      1193      1197      1200      1196      1193      1197      1201
      1197      1201      1205      1207      1197      1201      1205      1208
      1197      1201      1205      1209      1199      1197      1201      1203
      1199      1197      1201      1204      1199      1197      1201      1205
      1200      1197      1201      1203      1200      1197      1201      1204
      1200      1197      1201      1205      1201      1205      1209      1211
      1201      1205      1209      1212      1201      1205      1209      1213
      1203      1201      1205      1207      1203      1201      1205      1208
      1203      1201      1205      1209      1204      1201      1205      1207
      1204      1201      1205      1208      1204      1201      1205      1209
      1205      1209      1213      1215      1205      1209      1213      1216
      1205      1209      1213      1217      1207      1205      1209      1211
      1207      1205      1209      1212      1207      1205      1209      1213
      1208      1205      1209      1211      1208      1205      1209      1212
      1208      1205      1209      1213      1211      1209      1213      1215
      1211      1209      1213      1216      1211      1209      1213      1217
      1212      1209      1213      1215      1212      1209      1213      1216
      1212      1209      1213      1217      1218      1222      1226      1228
      1218      1222      1226      1229      1218      1222      1226      1230
      1220      1218      1222      1224      1220      1218      1222      1225
      1220      1218      1222      1226      1221      1218      1222      1224
      1221      1218      1222      1225      1221      1218      1222      1226
      1222      1226      1230      1232      1222      1226      1230      1233
      1222      1226      1230      1234      1224      1222      1226      1228
      1224      1222      1226      1229      1224      1222      1226      1230
      1225      1222      1226      1228      1225      1222      1226      1229
      1225      1222      1226      1230      1226      1230      1234      1236
      1226      1230      1234      1237      1226      1230      1234      1238
      1228      1226      1230      1232      1228      1226      1230      1233
      1228      1226      1230      1234      1229      1226      1230      1232
      1229      1226      1230      1233      1229      1226      1230      1234
      1230      1234      1238      1240      1230      1234      1238      1241
      1230      1234      1238      1242      1232      1230      1234      1236
      1232      1230      1234      1237      1232      1230      1234      1238
      1233      1230      1234      1236      1233      1230      1234      1237
      1233      1230      1234      1238      1234      1238      1242      1244
      1234      1238      1242      1245      1234      1238      1242      1246
      1236      1234      1238      1240      1236      1234      1238      1241
      1236      1234      1238      1242      1237      1234      1238      1240
      1237      1234      1238      1241      1237      1234      1238      1242
      1238      1242      1246      1248      1238      1242      1246      1249
      1238      1242      1246      1250      1240      1238      1242      1244
      1240      1238      1242      1245      1240      1238      1242      1246
      1241      1238      1242      1244      1241      1238      1242      1245
      1241      1238      1242      1246      1242      1246      1250      1252
      1242      1246      1250      1253      1242      1246      1250      1254
      1244      1242      1246      1248      1244      1242      1246      1249
      1244      1242      1246      1250      1245      1242      1246      1248
      1245      1242      1246      1249      1245      1242      1246      1250
      1246      1250      1254      1256      1246      1250      1254      1257
      1246      1250      1254      1258      1248      1246      1250      1252
      1248      1246      1250      1253      1248      1246      1250      1254
      1249      1246      1250      1252      1249      1246      1250      1253
      1249      1246      1250      1254      1250      1254      1258      1260
      1250      1254      1258      1261      1250      1254      1258      1262
      1252      1250      1254      1256      1252      1250      1254      1257
      1252      1250      1254      1258      1253      1250      1254      1256
      1253      1250      1254      1257      1253      1250      1254      1258
      1254      1258      1262      1264      1254      1258      1262      1265
      1254      1258      1262      1266      1256      1254      1258      1260
      1256      1254      1258      1261      1256      1254      1258      1262
      1257      1254      1258      1260      1257      1254      1258      1261
      1257      1254      1258      1262      1258      1262      1266      1268
      1258      1262      1266      1269      1258      1262      1266      1270
      1260      1258      1262      1264      1260      1258      1262      1265
      1260      1258      1262      1266      1261      1258      1262      1264
      1261      1258      1262      1265      1261      1258      1262      1266
      1262      1266      1270      1272      1262      1266      1270      1273
      1262      1266      1270      1274      1264      1262      1266      1268
      1264      1262      1266      1269      1264      1262      1266      1270
      1265      1262      1266      1268      1265      1262      1266      1269
      1265      1262      1266      1270      1268      1266      1270      1272
      1268      1266      1270      1273      1268      1266      1270      1274
      1269      1266      1270      1272      1269      1266      1270      1273
      1269      1266      1270      1274      1275      1280      1284      1286
      1275      1280      1284      1287      1275      1280      1284      1296
      1277      1275      1280      1282      1277      1275      1280      1283
      1277      1275      1280      1284      1278      1275      1280      1282
      1278      1275      1280      1283      1278      1275      1280      1284
      1279      1275      1280      1282      1279      1275      1280      1283
      1279      1275      1280      1284      1280      1284      1296      1288
      1282      1280      1284      1286      1282      1280      1284      1287
      1282      1280      1284      1296      1283      1280      1284      1286
      1283      1280      1284      1287      1283      1280      1284      1296
      1284      1296      1288      1290      1284      1296      1288      1292
      1284      1296      1288      1294      1286      1284      1296      1288
      1287      1284      1296      1288      1288      1294      1298      1300
      1288      1294      1298      1301      1288      1294      1298      1302
      1290      1288      1294      1298      1292      1288      1294      1298
      1294      1298      1302      1304      1294      1298      1302      1305
      1294      1298      1302      1319      1296      1288      1294      1298
      1298      1302      1305      1307      1298      1302      1319      1321
      1298      1302      1319      1322      1298      1302      1319      1323
      1300      1298      1302      1304      1300      1298      1302      1305
      1300      1298      1302      1319      1301      1298      1302      1304
      1301      1298      1302      1305      1301      1298      1302      1319
      1302      1305      1307      1309      1302      1305      1307      1311
      1302      1319      1323      1325      1304      1302      1305      1307
      1304      1302      1319      1321      1304      1302      1319      1322
      1304      1302      1319      1323      1305      1302      1319      1321
      1305      1302      1319      1322      1305      1302      1319      1323
      1305      1307      1311      1313      1305      1307      1311      1314
      1305      1307      1311      1337      1307      1305      1302      1319
      1307      1311      1337      1339      1307      1311      1337      1340
      1307      1311      1337      1341      1309      1307      1311      1313
      1309      1307      1311      1314      1309      1307      1311      1337
      1311      1337      1341      1343      1311      1337      1341      1344
      1311      1337      1341      1345      1313      1311      1337      1339
      1313      1311      1337      1340      1313      1311      1337      1341
      1314      1311      1337      1339      1314      1311      1337      1340
      1314      1311      1337      1341      1319      1323      1325      1327
      1319      1323      1325      1329      1321      1319      1323      1325
      1322      1319      1323      1325      1323      1325      1329      1331
      1323      1325      1329      1332      1323      1325      1329      1400
      1325      1329      1400      1402      1325      1329      1400      1403
      1325      1329      1400      1404      1327      1325      1329      1331
      1327      1325      1329      1332      1327      1325      1329      1400
      1329      1400      1404      1406      1329      1400      1404      1407
      1329      1400      1404      1408      1331      1329      1400      1402
      1331      1329      1400      1403      1331      1329      1400      1404
      1332      1329      1400      1402      1332      1329      1400      1403
      1332      1329      1400      1404      1337      1341      1345      1347
      1337      1341      1345      1348      1337      1341      1345      1349
      1339      1337      1341      1343      1339      1337      1341      1344
      1339      1337      1341      1345      1340      1337      1341      1343
      1340      1337      1341      1344      1340      1337      1341      1345
      1341      1345      1349      1351      1341      1345      1349      1352
      1341      1345      1349      1353      1343      1341      1345      1347
      1343      1341      1345      1348      1343      1341      1345      1349
      1344      1341      1345      1347      1344      1341      1345      1348
      1344      1341      1345      1349      1345      1349      1353      1355
      1345      1349      1353      1356      1345      1349      1353      1357
      1347      1345      1349      1351      1347      1345      1349      1352
      1347      1345      1349      1353      1348      1345      1349      1351
      1348      1345      1349      1352      1348      1345      1349      1353
      1349      1353      1357      1359      1349      1353      1357      1360
      1349      1353      1357      1361      1351      1349      1353      1355
      1351      1349      1353      1356      1351      1349      1353      1357
      1352      1349      1353      1355      1352      1349      1353      1356
      1352      1349      1353      1357      1353      1357      1361      1363
      1353      1357      1361      1364      1355      1353      1357      1359
      1355      1353      1357      1360      1355      1353      1357      1361
      1356      1353      1357      1359      1356      1353      1357      1360
      1356      1353      1357      1361      1357      1361      1364      1366
      1357      1361      1364      1367      1359      1357      1361      1363
      1359      1357      1361      1364      1360      1357      1361      1363
      1360      1357      1361      1364      1361      1364      1367      1369
      1361      1364      1367      1370      1361      1364      1367      1371
      1363      1361      1364      1366      1363      1361      1364      1367
      1364      1367      1371      1373      1364      1367      1371      1374
      1364      1367      1371      1375      1366      1364      1367      1369
      1366      1364      1367      1370      1366      1364      1367      1371
      1367      1371      1375      1377      1367      1371      1375      1378
      1367      1371      1375      1379      1369      1367      1371      1373
      1369      1367      1371      1374      1369      1367      1371      1375
      1370      1367      1371      1373      1370      1367      1371      1374
      1370      1367      1371      1375      1371      1375      1379      1381
      1371      1375      1379      1382      1371      1375      1379      1383
      1373      1371      1375      1377      1373      1371      1375      1378
      1373      1371      1375      1379      1374      1371      1375      1377
      1374      1371      1375      1378      1374      1371      1375      1379
      1375      1379      1383      1385      1375      1379      1383      1386
      1375      1379      1383      1387      1377      1375      1379      1381
      1377      1375      1379      1382      1377      1375      1379      1383
      1378      1375      1379      1381      1378      1375      1379      1382
      1378      1375      1379      1383      1379      1383      1387      1389
      1379      1383      1387      1390      1379      1383      1387      1391
      1381      1379      1383      1385      1381      1379      1383      1386
      1381      1379      1383      1387      1382      1379      1383      1385
      1382      1379      1383      1386      1382      1379      1383      1387
      1383      1387      1391      1393      1383      1387      1391      1394
      1383      1387      1391      1395      1385      1383      1387      1389
      1385      1383      1387      1390      1385      1383      1387      1391
      1386      1383      1387      1389      1386      1383      1387      1390
      1386      1383      1387      1391      1387      1391      1395      1397
      1387      1391      1395      1398      1387      1391      1395      1399
      1389      1387      1391      1393      1389      1387      1391      1394
      1389      1387      1391      1395      1390      1387      1391      1393
      1390      1387      1391      1394      1390      1387      1391      1395
      1393      1391      1395      1397      1393      1391      1395      1398
      1393      1391      1395      1399      1394      1391      1395      1397
      1394      1391      1395      1398      1394      1391      1395      1399
      1400      1404      1408      1410      1400      1404      1408      1411
      1400      1404      1408      1412      1402      1400      1404      1406
      1402      1400      1404      1407      1402      1400      1404      1408
      1403      1400      1404      1406      1403      1400      1404      1407
      1403      1400      1404      1408      1404      1408      1412      1414
      1404      1408      1412      1415      1404      1408      1412      1416
      1406      1404      1408      1410      1406      1404      1408      1411
      1406      1404      1408      1412      1407      1404      1408      1410
      1407      1404      1408      1411      1407      1404      1408      1412
      1408      1412      1416      1418      1408      1412      1416      1419
      1408      1412      1416      1420      1410      1408      1412      1414
      1410      1408      1412      1415      1410      1408      1412      1416
      1411      1408      1412      1414      1411      1408      1412      1415
      1411      1408      1412      1416      1412      1416      1420      1422
      1412      1416      1420      1423      1412      1416      1420      1424
      1414      1412      1416      1418      1414      1412      1416      1419
      1414      1412      1416      1420      1415      1412      1416      1418
      1415      1412      1416      1419      1415      1412      1416      1420
      1416      1420      1424      1426      1416      1420      1424      1427
      1416      1420      1424      1428      1418      1416      1420      1422
      1418      1416      1420      1423      1418      1416      1420      1424
      1419      1416      1420      1422      1419      1416      1420      1423
      1419      1416      1420      1424      1420      1424      1428      1430
      1420      1424      1428      1431      1420      1424      1428      1432
      1422      1420      1424      1426      1422      1420      1424      1427
      1422      1420      1424      1428      1423      1420      1424      1426
      1423      1420      1424      1427      1423      1420      1424      1428
      1424      1428      1432      1434      1424      1428      1432      1435
      1424      1428      1432      1436      1426      1424      1428      1430
      1426      1424      1428      1431      1426      1424      1428      1432
      1427      1424      1428      1430      1427      1424      1428      1431
      1427      1424      1428      1432      1428      1432      1436      1438
      1428      1432      1436      1439      1428      1432      1436      1440
      1430      1428      1432      1434      1430      1428      1432      1435
      1430      1428      1432      1436      1431      1428      1432      1434
      1431      1428      1432      1435      1431      1428      1432      1436
      1432      1436      1440      1442      1432      1436      1440      1443
      1432      1436      1440      1444      1434      1432      1436      1438
      1434      1432      1436      1439      1434      1432      1436      1440
      1435      1432      1436      1438      1435      1432      1436      1439
      1435      1432      1436      1440      1436      1440      1444      1446
      1436      1440      1444      1447      1436      1440      1444      1448
      1438      1436      1440      1442      1438      1436      1440      1443
      1438      1436      1440      1444      1439      1436      1440      1442
      1439      1436      1440      1443      1439      1436      1440      1444
      1440      1444      1448      1450      1440      1444      1448      1451
      1440      1444      1448      1452      1442      1440      1444      1446
      1442      1440      1444      1447      1442      1440      1444      1448
      1443      1440      1444      1446      1443      1440      1444      1447
      1443      1440      1444      1448      1444      1448      1452      1454
      1444      1448      1452      1455      1444      1448      1452      1456
      1446      1444      1448      1450      1446      1444      1448      1451
      1446      1444      1448      1452      1447      1444      1448      1450
      1447      1444      1448      1451      1447      1444      1448      1452
      1450      1448      1452      1454      1450      1448      1452      1455
      1450      1448      1452      1456      1451      1448      1452      1454
      1451      1448      1452      1455      1451      1448      1452      1456
      1457      1462      1466      1468      1457      1462      1466      1469
      1457      1462      1466      1478      1459      1457      1462      1464
      1459      1457      1462      1465      1459      1457      1462      1466
      1460      1457      1462      1464      1460      1457      1462      1465
      1460      1457      1462      1466      1461      1457      1462      1464
      1461      1457      1462      1465      1461      1457      1462      1466
      1462      1466      1478      1470      1464      1462      1466      1468
      1464      1462      1466      1469      1464      1462      1466      1478
      1465      1462      1466      1468      1465      1462      1466      1469
      1465      1462      1466      1478      1466      1478      1470      1472
      1466      1478      1470      1474      1466      1478      1470      1476
      1468      1466      1478      1470      1469      1466      1478      1470
      1470      1476      1480      1482      1470      1476      1480      1483
      1470      1476      1480      1484      1472      1470      1476      1480
      1474      1470      1476      1480      1476      1480      1484      1486
      1476      1480      1484      1487      1476      1480      1484      1501
      1478      1470      1476      1480      1480      1484      1487      1489
      1480      1484      1501      1503      1480      1484      1501      1504
      1480      1484      1501      1505      1482      1480      1484      1486
      1482      1480      1484      1487      1482      1480      1484      1501
      1483      1480      1484      1486      1483      1480      1484      1487
      1483      1480      1484      1501      1484      1487      1489      1491
      1484      1487      1489      1493      1484      1501      1505      1507
      1486      1484      1487      1489      1486      1484      1501      1503
      1486      1484      1501      1504      1486      1484      1501      1505
      1487      1484      1501      1503      1487      1484      1501      1504
      1487      1484      1501      1505      1487      1489      1493      1495
      1487      1489      1493      1496      1487      1489      1493      1519
      1489      1487      1484      1501      1489      1493      1519      1521
      1489      1493      1519      1522      1489      1493      1519      1523
      1491      1489      1493      1495      1491      1489      1493      1496
      1491      1489      1493      1519      1493      1519      1523      1525
      1493      1519      1523      1526      1493      1519      1523      1527
      1495      1493      1519      1521      1495      1493      1519      1522
      1495      1493      1519      1523      1496      1493      1519      1521
      1496      1493      1519      1522      1496      1493      1519      1523
      1501      1505      1507      1509      1501      1505      1507      1511
      1503      1501      1505      1507      1504      1501      1505      1507
      1505      1507      1511      1513      1505      1507      1511      1514
      1505      1507      1511      1582      1507      1511      1582      1584
      1507      1511      1582      1585      1507      1511      1582      1586
      1509      1507      1511      1513      1509      1507      1511      1514
      1509      1507      1511      1582      1511      1582      1586      1588
      1511      1582      1586      1589      1511      1582      1586      1590
      1513      1511      1582      1584      1513      1511      1582      1585
      1513      1511      1582      1586      1514      1511      1582      1584
      1514      1511      1582      1585      1514      1511      1582      1586
      1519      1523      1527      1529      1519      1523      1527      1530
      1519      1523      1527      1531      1521      1519      1523      1525
      1521      1519      1523      1526      1521      1519      1523      1527
      1522      1519      1523      1525      1522      1519      1523      1526
      1522      1519      1523      1527      1523      1527      1531      1533
      1523      1527      1531      1534      1523      1527      1531      1535
      1525      1523      1527      1529      1525      1523      1527      1530
      1525      1523      1527      1531      1526      1523      1527      1529
      1526      1523      1527      1530      1526      1523      1527      1531
      1527      1531      1535      1537      1527      1531      1535      1538
      1527      1531      1535      1539      1529      1527      1531      1533
      1529      1527      1531      1534      1529      1527      1531      1535
      1530      1527      1531      1533      1530      1527      1531      1534
      1530      1527      1531      1535      1531      1535      1539      1541
      1531      1535      1539      1542      1531      1535      1539      1543
      1533      1531      1535      1537      1533      1531      1535      1538
      1533      1531      1535      1539      1534      1531      1535      1537
      1534      1531      1535      1538      1534      1531      1535      1539
      1535      1539      1543      1545      1535      1539      1543      1546
      1537      1535      1539      1541      1537      1535      1539      1542
      1537      1535      1539      1543      1538      1535      1539      1541
      1538      1535      1539      1542      1538      1535      1539      1543
      1539      1543      1546      1548      1539      1543      1546      1549
      1541      1539      1543      1545      1541      1539      1543      1546
      1542      1539      1543      1545      1542      1539      1543      1546
      1543      1546      1549      1551      1543      1546      1549      1552
      1543      1546      1549      1553      1545      1543      1546      1548
      1545      1543      1546      1549      1546      1549      1553      1555
      1546      1549      1553      1556      1546      1549      1553      1557
      1548      1546      1549      1551      1548      1546      1549      1552
      1548      1546      1549      1553      1549      1553      1557      1559
      1549      1553      1557      1560      1549      1553      1557      1561
      1551      1549      1553      1555      1551      1549      1553      1556
      1551      1549      1553      1557      1552      1549      1553      1555
      1552      1549      1553      1556      1552      1549      1553      1557
      1553      1557      1561      1563      1553      1557      1561      1564
      1553      1557      1561      1565      1555      1553      1557      1559
      1555      1553      1557      1560      1555      1553      1557      1561
      1556      1553      1557      1559      1556      1553      1557      1560
      1556      1553      1557      1561      1557      1561      1565      1567
      1557      1561      1565      1568      1557      1561      1565      1569
      1559      1557      1561      1563      1559      1557      1561      1564
      1559      1557      1561      1565      1560      1557      1561      1563
      1560      1557      1561      1564      1560      1557      1561      1565
      1561      1565      1569      1571      1561      1565      1569      1572
      1561      1565      1569      1573      1563      1561      1565      1567
      1563      1561      1565      1568      1563      1561      1565      1569
      1564      1561      1565      1567      1564      1561      1565      1568
      1564      1561      1565      1569      1565      1569      1573      1575
      1565      1569      1573      1576      1565      1569      1573      1577
      1567      1565      1569      1571      1567      1565      1569      1572
      1567      1565      1569      1573      1568      1565      1569      1571
      1568      1565      1569      1572      1568      1565      1569      1573
      1569      1573      1577      1579      1569      1573      1577      1580
      1569      1573      1577      1581      1571      1569      1573      1575
      1571      1569      1573      1576      1571      1569      1573      1577
      1572      1569      1573      1575      1572      1569      1573      1576
      1572      1569      1573      1577      1575      1573      1577      1579
      1575      1573      1577      1580      1575      1573      1577      1581
      1576      1573      1577      1579      1576      1573      1577      1580
      1576      1573      1577      1581      1582      1586      1590      1592
      1582      1586      1590      1593      1582      1586      1590      1594
      1584      1582      1586      1588      1584      1582      1586      1589
      1584      1582      1586      1590      1585      1582      1586      1588
      1585      1582      1586      1589      1585      1582      1586      1590
      1586      1590      1594      1596      1586      1590      1594      1597
      1586      1590      1594      1598      1588      1586      1590      1592
      1588      1586      1590      1593      1588      1586      1590      1594
      1589      1586      1590      1592      1589      1586      1590      1593
      1589      1586      1590      1594      1590      1594      1598      1600
      1590      1594      1598      1601      1590      1594      1598      1602
      1592      1590      1594      1596      1592      1590      1594      1597
      1592      1590      1594      1598      1593      1590      1594      1596
      1593      1590      1594      1597      1593      1590      1594      1598
      1594      1598      1602      1604      1594      1598      1602      1605
      1594      1598      1602      1606      1596      1594      1598      1600
      1596      1594      1598      1601      1596      1594      1598      1602
      1597      1594      1598      1600      1597      1594      1598      1601
      1597      1594      1598      1602      1598      1602      1606      1608
      1598      1602      1606      1609      1598      1602      1606      1610
      1600      1598      1602      1604      1600      1598      1602      1605
      1600      1598      1602      1606      1601      1598      1602      1604
      1601      1598      1602      1605      1601      1598      1602      1606
      1602      1606      1610      1612      1602      1606      1610      1613
      1602      1606      1610      1614      1604      1602      1606      1608
      1604      1602      1606      1609      1604      1602      1606      1610
      1605      1602      1606      1608      1605      1602      1606      1609
      1605      1602      1606      1610      1606      1610      1614      1616
      1606      1610      1614      1617      1606      1610      1614      1618
      1608      1606      1610      1612      1608      1606      1610      1613
      1608      1606      1610      1614      1609      1606      1610      1612
      1609      1606      1610      1613      1609      1606      1610      1614
      1610      1614      1618      1620      1610      1614      1618      1621
      1610      1614      1618      1622      1612      1610      1614      1616
      1612      1610      1614      1617      1612      1610      1614      1618
      1613      1610      1614      1616      1613      1610      1614      1617
      1613      1610      1614      1618      1614      1618      1622      1624
      1614      1618      1622      1625      1614      1618      1622      1626
      1616      1614      1618      1620      1616      1614      1618      1621
      1616      1614      1618      1622      1617      1614      1618      1620
      1617      1614      1618      1621      1617      1614      1618      1622
      1618      1622      1626      1628      1618      1622      1626      1629
      1618      1622      1626      1630      1620      1618      1622      1624
      1620      1618      1622      1625      1620      1618      1622      1626
      1621      1618      1622      1624      1621      1618      1622      1625
      1621      1618      1622      1626      1622      1626      1630      1632
      1622      1626      1630      1633      1622      1626      1630      1634
      1624      1622      1626      1628      1624      1622      1626      1629
      1624      1622      1626      1630      1625      1622      1626      1628
      1625      1622      1626      1629      1625      1622      1626      1630
      1626      1630      1634      1636      1626      1630      1634      1637
      1626      1630      1634      1638      1628      1626      1630      1632
      1628      1626      1630      1633      1628      1626      1630      1634
      1629      1626      1630      1632      1629      1626      1630      1633
      1629      1626      1630      1634      1632      1630      1634      1636
      1632      1630      1634      1637      1632      1630      1634      1638
      1633      1630      1634      1636      1633      1630      1634      1637
      1633      1630      1634      1638      1639      1644      1648      1650
      1639      1644      1648      1651      1639      1644      1648      1660
      1641      1639      1644      1646      1641      1639      1644      1647
      1641      1639      1644      1648      1642      1639      1644      1646
      1642      1639      1644      1647      1642      1639      1644      1648
      1643      1639      1644      1646      1643      1639      1644      1647
      1643      1639      1644      1648      1644      1648      1660      1652
      1646      1644      1648      1650      1646      1644      1648      1651
      1646      1644      1648      1660      1647      1644      1648      1650
      1647      1644      1648      1651      1647      1644      1648      1660
      1648      1660      1652      1654      1648      1660      1652      1656
      1648      1660      1652      1658      1650      1648      1660      1652
      1651      1648      1660      1652      1652      1658      1662      1664
      1652      1658      1662      1665      1652      1658      1662      1666
      1654      1652      1658      1662      1656      1652      1658      1662
      1658      1662      1666      1668      1658      1662      1666      1669
      1658      1662      1666      1683      1660      1652      1658      1662
      1662      1666      1669      1671      1662      1666      1683      1685
      1662      1666      1683      1686      1662      1666      1683      1687
      1664      1662      1666      1668      1664      1662      1666      1669
      1664      1662      1666      1683      1665      1662      1666      1668
      1665      1662      1666      1669      1665      1662      1666      1683
      1666      1669      1671      1673      1666      1669      1671      1675
      1666      1683      1687      1689      1668      1666      1669      1671
      1668      1666      1683      1685      1668      1666      1683      1686
      1668      1666      1683      1687      1669      1666      1683      1685
      1669      1666      1683      1686      1669      1666      1683      1687
      1669      1671      1675      1677      1669      1671      1675      1678
      1669      1671      1675      1701      1671      1669      1666      1683
      1671      1675      1701      1703      1671      1675      1701      1704
      1671      1675      1701      1705      1673      1671      1675      1677
      1673      1671      1675      1678      1673      1671      1675      1701
      1675      1701      1705      1707      1675      1701      1705      1708
      1675      1701      1705      1709      1677      1675      1701      1703
      1677      1675      1701      1704      1677      1675      1701      1705
      1678      1675      1701      1703      1678      1675      1701      1704
      1678      1675      1701      1705      1683      1687      1689      1691
      1683      1687      1689      1693      1685      1683      1687      1689
      1686      1683      1687      1689      1687      1689      1693      1695
      1687      1689      1693      1696      1687      1689      1693      1764
      1689      1693      1764      1766      1689      1693      1764      1767
      1689      1693      1764      1768      1691      1689      1693      1695
      1691      1689      1693      1696      1691      1689      1693      1764
      1693      1764      1768      1770      1693      1764      1768      1771
      1693      1764      1768      1772      1695      1693      1764      1766
      1695      1693      1764      1767      1695      1693      1764      1768
      1696      1693      1764      1766      1696      1693      1764      1767
      1696      1693      1764      1768      1701      1705      1709      1711
      1701      1705      1709      1712      1701      1705      1709      1713
      1703      1701      1705      1707      1703      1701      1705      1708
      1703      1701      1705      1709      1704      1701      1705      1707
      1704      1701      1705      1708      1704      1701      1705      1709
      1705      1709      1713      1715      1705      1709      1713      1716
      1705      1709      1713      1717      1707      1705      1709      1711
      1707      1705      1709      1712      1707      1705      1709      1713
      1708      1705      1709      1711      1708      1705      1709      1712
      1708      1705      1709      1713      1709      1713      1717      1719
      1709      1713      1717      1720      1709      1713      1717      1721
      1711      1709      1713      1715      1711      1709      1713      1716
      1711      1709      1713      1717      1712      1709      1713      1715
      1712      1709      1713      1716      1712      1709      1713      1717
      1713      1717      1721      1723      1713      1717      1721      1724
      1713      1717      1721      1725      1715      1713      1717      1719
      1715      1713      1717      1720      1715      1713      1717      1721
      1716      1713      1717      1719      1716      1713      1717      1720
      1716      1713      1717      1721      1717      1721      1725      1727
      1717      1721      1725      1728      1719      1717      1721      1723
      1719      1717      1721      1724      1719      1717      1721      1725
      1720      1717      1721      1723      1720      1717      1721      1724
      1720      1717      1721      1725      1721      1725      1728      1730
      1721      1725      1728      1731      1723      1721      1725      1727
      1723      1721      1725      1728      1724      1721      1725      1727
      1724      1721      1725      1728      1725      1728      1731      1733
      1725      1728      1731      1734      1725      1728      1731      1735
      1727      1725      1728      1730      1727      1725      1728      1731
      1728      1731      1735      1737      1728      1731      1735      1738
      1728      1731      1735      1739      1730      1728      1731      1733
      1730      1728      1731      1734      1730      1728      1731      1735
      1731      1735      1739      1741      1731      1735      1739      1742
      1731      1735      1739      1743      1733      1731      1735      1737
      1733      1731      1735      1738      1733      1731      1735      1739
      1734      1731      1735      1737      1734      1731      1735      1738
      1734      1731      1735      1739      1735      1739      1743      1745
      1735      1739      1743      1746      1735      1739      1743      1747
      1737      1735      1739      1741      1737      1735      1739      1742
      1737      1735      1739      1743      1738      1735      1739      1741
      1738      1735      1739      1742      1738      1735      1739      1743
      1739      1743      1747      1749      1739      1743      1747      1750
      1739      1743      1747      1751      1741      1739      1743      1745
      1741      1739      1743      1746      1741      1739      1743      1747
      1742      1739      1743      1745      1742      1739      1743      1746
      1742      1739      1743      1747      1743      1747      1751      1753
      1743      1747      1751      1754      1743      1747      1751      1755
      1745      1743      1747      1749      1745      1743      1747      1750
      1745      1743      1747      1751      1746      1743      1747      1749
      1746      1743      1747      1750      1746      1743      1747      1751
      1747      1751      1755      1757      1747      1751      1755      1758
      1747      1751      1755      1759      1749      1747      1751      1753
      1749      1747      1751      1754      1749      1747      1751      1755
      1750      1747      1751      1753      1750      1747      1751      1754
      1750      1747      1751      1755      1751      1755      1759      1761
      1751      1755      1759      1762      1751      1755      1759      1763
      1753      1751      1755      1757      1753      1751      1755      1758
      1753      1751      1755      1759      1754      1751      1755      1757
      1754      1751      1755      1758      1754      1751      1755      1759
      1757      1755      1759      1761      1757      1755      1759      1762
      1757      1755      1759      1763      1758      1755      1759      1761
      1758      1755      1759      1762      1758      1755      1759      1763
      1764      1768      1772      1774      1764      1768      1772      1775
      1764      1768      1772      1776      1766      1764      1768      1770
      1766      1764      1768      1771      1766      1764      1768      1772
      1767      1764      1768      1770      1767      1764      1768      1771
      1767      1764      1768      1772      1768      1772      1776      1778
      1768      1772      1776      1779      1768      1772      1776      1780
      1770      1768      1772      1774      1770      1768      1772      1775
      1770      1768      1772      1776      1771      1768      1772      1774
      1771      1768      1772      1775      1771      1768      1772      1776
      1772      1776      1780      1782      1772      1776      1780      1783
      1772      1776      1780      1784      1774      1772      1776      1778
      1774      1772      1776      1779      1774      1772      1776      1780
      1775      1772      1776      1778      1775      1772      1776      1779
      1775      1772      1776      1780      1776      1780      1784      1786
      1776      1780      1784      1787      1776      1780      1784      1788
      1778      1776      1780      1782      1778      1776      1780      1783
      1778      1776      1780      1784      1779      1776      1780      1782
      1779      1776      1780      1783      1779      1776      1780      1784
      1780      1784      1788      1790      1780      1784      1788      1791
      1780      1784      1788      1792      1782      1780      1784      1786
      1782      1780      1784      1787      1782      1780      1784      1788
      1783      1780      1784      1786      1783      1780      1784      1787
      1783      1780      1784      1788      1784      1788      1792      1794
      1784      1788      1792      1795      1784      1788      1792      1796
      1786      1784      1788      1790      1786      1784      1788      1791
      1786      1784      1788      1792      1787      1784      1788      1790
      1787      1784      1788      1791      1787      1784      1788      1792
      1788      1792      1796      1798      1788      1792      1796      1799
      1788      1792      1796      1800      1790      1788      1792      1794
      1790      1788      1792      1795      1790      1788      1792      1796
      1791      1788      1792      1794      1791      1788      1792      1795
      1791      1788      1792      1796      1792      1796      1800      1802
      1792      1796      1800      1803      1792      1796      1800      1804
      1794      1792      1796      1798      1794      1792      1796      1799
      1794      1792      1796      1800      1795      1792      1796      1798
      1795      1792      1796      1799      1795      1792      1796      1800
      1796      1800      1804      1806      1796      1800      1804      1807
      1796      1800      1804      1808      1798      1796      1800      1802
      1798      1796      1800      1803      1798      1796      1800      1804
      1799      1796      1800      1802      1799      1796      1800      1803
      1799      1796      1800      1804      1800      1804      1808      1810
      1800      1804      1808      1811      1800      1804      1808      1812
      1802      1800      1804      1806      1802      1800      1804      1807
      1802      1800      1804      1808      1803      1800      1804      1806
      1803      1800      1804      1807      1803      1800      1804      1808
      1804      1808      1812      1814      1804      1808      1812      1815
      1804      1808      1812      1816      1806      1804      1808      1810
      1806      1804      1808      1811      1806      1804      1808      1812
      1807      1804      1808      1810      1807      1804      1808      1811
      1807      1804      1808      1812      1808      1812      1816      1818
      1808      1812      1816      1819      1808      1812      1816      1820
      1810      1808      1812      1814      1810      1808      1812      1815
      1810      1808      1812      1816      1811      1808      1812      1814
      1811      1808      1812      1815      1811      1808      1812      1816
      1814      1812      1816      1818      1814      1812      1816      1819
      1814      1812      1816      1820      1815      1812      1816      1818
      1815      1812      1816      1819      1815      1812      1816      1820
      1821      1826      1830      1832      1821      1826      1830      1833
      1821      1826      1830      1842      1823      1821      1826      1828
      1823      1821      1826      1829      1823      1821      1826      1830
      1824      1821      1826      1828      1824      1821      1826      1829
      1824      1821      1826      1830      1825      1821      1826      1828
      1825      1821      1826      1829      1825      1821      1826      1830
      1826      1830      1842      1834      1828      1826      1830      1832
      1828      1826      1830      1833      1828      1826      1830      1842
      1829      1826      1830      1832      1829      1826      1830      1833
      1829      1826      1830      1842      1830      1842      1834      1836
      1830      1842      1834      1838      1830      1842      1834      1840
      1832      1830      1842      1834      1833      1830      1842      1834
      1834      1840      1844      1846      1834      1840      1844      1847
      1834      1840      1844      1848      1836      1834      1840      1844
      1838      1834      1840      1844      1840      1844      1848      1850
      1840      1844      1848      1851      1840      1844      1848      1865
      1842      1834      1840      1844      1844      1848      1851      1853
      1844      1848      1865      1867      1844      1848      1865      1868
      1844      1848      1865      1869      1846      1844      1848      1850
      1846      1844      1848      1851      1846      1844      1848      1865
      1847      1844      1848      1850      1847      1844      1848      1851
      1847      1844      1848      1865      1848      1851      1853      1855
      1848      1851      1853      1857      1848      1865      1869      1871
      1850      1848      1851      1853      1850      1848      1865      1867
      1850      1848      1865      1868      1850      1848      1865      1869
      1851      1848      1865      1867      1851      1848      1865      1868
      1851      1848      1865      1869      1851      1853      1857      1859
      1851      1853      1857      1860      1851      1853      1857      1883
      1853      1851      1848      1865      1853      1857      1883      1885
      1853      1857      1883      1886      1853      1857      1883      1887
      1855      1853      1857      1859      1855      1853      1857      1860
      1855      1853      1857      1883      1857      1883      1887      1889
      1857      1883      1887      1890      1857      1883      1887      1891
      1859      1857      1883      1885      1859      1857      1883      1886
      1859      1857      1883      1887      1860      1857      1883      1885
      1860      1857      1883      1886      1860      1857      1883      1887
      1865      1869      1871      1873      1865      1869      1871      1875
      1867      1865      1869      1871      1868      1865      1869      1871
      1869      1871      1875      1877      1869      1871      1875      1878
      1869      1871      1875      1946      1871      1875      1946      1948
      1871      1875      1946      1949      1871      1875      1946      1950
      1873      1871      1875      1877      1873      1871      1875      1878
      1873      1871      1875      1946      1875      1946      1950      1952
      1875      1946      1950      1953      1875      1946      1950      1954
      1877      1875      1946      1948      1877      1875      1946      1949
      1877      1875      1946      1950      1878      1875      1946      1948
      1878      1875      1946      1949      1878      1875      1946      1950
      1883      1887      1891      1893      1883      1887      1891      1894
      1883      1887      1891      1895      1885      1883      1887      1889
      1885      1883      1887      1890      1885      1883      1887      1891
      1886      1883      1887      1889      1886      1883      1887      1890
      1886      1883      1887      1891      1887      1891      1895      1897
      1887      1891      1895      1898      1887      1891      1895      1899
      1889      1887      1891      1893      1889      1887      1891      1894
      1889      1887      1891      1895      1890      1887      1891      1893
      1890      1887      1891      1894      1890      1887      1891      1895
      1891      1895      1899      1901      1891      1895      1899      1902
      1891      1895      1899      1903      1893      1891      1895      1897
      1893      1891      1895      1898      1893      1891      1895      1899
      1894      1891      1895      1897      1894      1891      1895      1898
      1894      1891      1895      1899      1895      1899      1903      1905
      1895      1899      1903      1906      1895      1899      1903      1907
      1897      1895      1899      1901      1897      1895      1899      1902
      1897      1895      1899      1903      1898      1895      1899      1901
      1898      1895      1899      1902      1898      1895      1899      1903
      1899      1903      1907      1909      1899      1903      1907      1910
      1901      1899      1903      1905      1901      1899      1903      1906
      1901      1899      1903      1907      1902      1899      1903      1905
      1902      1899      1903      1906      1902      1899      1903      1907
      1903      1907      1910      1912      1903      1907      1910      1913
      1905      1903      1907      1909      1905      1903      1907      1910
      1906      1903      1907      1909      1906      1903      1907      1910
      1907      1910      1913      1915      1907      1910      1913      1916
      1907      1910      1913      1917      1909      1907      1910      1912
      1909      1907      1910      1913      1910      1913      1917      1919
      1910      1913      1917      1920      1910      1913      1917      1921
      1912      1910      1913      1915      1912      1910      1913      1916
      1912      1910      1913      1917      1913      1917      1921      1923
      1913      1917      1921      1924      1913      1917      1921      1925
      1915      1913      1917      1919      1915      1913      1917      1920
      1915      1913      1917      1921      1916      1913      1917      1919
      1916      1913      1917      1920      1916      1913      1917      1921
      1917      1921      1925      1927      1917      1921      1925      1928
      1917      1921      1925      1929      1919      1917      1921      1923
      1919      1917      1921      1924      1919      1917      1921      1925
      1920      1917      1921      1923      1920      1917      1921      1924
      1920      1917      1921      1925      1921      1925      1929      1931
      1921      1925      1929      1932      1921      1925      1929      1933
      1923      1921      1925      1927      1923      1921      1925      1928
      1923      1921      1925      1929      1924      1921      1925      1927
      1924      1921      1925      1928      1924      1921      1925      1929
      1925      1929      1933      1935      1925      1929      1933      1936
      1925      1929      1933      1937      1927      1925      1929      1931
      1927      1925      1929      1932      1927      1925      1929      1933
      1928      1925      1929      1931      1928      1925      1929      1932
      1928      1925      1929      1933      1929      1933      1937      1939
      1929      1933      1937      1940      1929      1933      1937      1941
      1931      1929      1933      1935      1931      1929      1933      1936
      1931      1929      1933      1937      1932      1929      1933      1935
      1932      1929      1933      1936      1932      1929      1933      1937
      1933      1937      1941      1943      1933      1937      1941      1944
      1933      1937      1941      1945      1935      1933      1937      1939
      1935      1933      1937      1940      1935      1933      1937      1941
      1936      1933      1937      1939      1936      1933      1937      1940
      1936      1933      1937      1941      1939      1937      1941      1943
      1939      1937      1941      1944      1939      1937      1941      1945
      1940      1937      1941      1943      1940      1937      1941      1944
      1940      1937      1941      1945      1946      1950      1954      1956
      1946      1950      1954      1957      1946      1950      1954      1958
      1948      1946      1950      1952      1948      1946      1950      1953
      1948      1946      1950      1954      1949      1946      1950      1952
      1949      1946      1950      1953      1949      1946      1950      1954
      1950      1954      1958      1960      1950      1954      1958      1961
      1950      1954      1958      1962      1952      1950      1954      1956
      1952      1950      1954      1957      1952      1950      1954      1958
      1953      1950      1954      1956      1953      1950      1954      1957
      1953      1950      1954      1958      1954      1958      1962      1964
      1954      1958      1962      1965      1954      1958      1962      1966
      1956      1954      1958      1960      1956      1954      1958      1961
      1956      1954      1958      1962      1957      1954      1958      1960
      1957      1954      1958      1961      1957      1954      1958      1962
      1958      1962      1966      1968      1958      1962      1966      1969
      1958      1962      1966      1970      1960      1958      1962      1964
      1960      1958      1962      1965      1960      1958      1962      1966
      1961      1958      1962      1964      1961      1958      1962      1965
      1961      1958      1962      1966      1962      1966      1970      1972
      1962      1966      1970      1973      1962      1966      1970      1974
      1964      1962      1966      1968      1964      1962      1966      1969
      1964      1962      1966      1970      1965      1962      1966      1968
      1965      1962      1966      1969      1965      1962      1966      1970
      1966      1970      1974      1976      1966      1970      1974      1977
      1966      1970      1974      1978      1968      1966      1970      1972
      1968      1966      1970      1973      1968      1966      1970      1974
      1969      1966      1970      1972      1969      1966      1970      1973
      1969      1966      1970      1974      1970      1974      1978      1980
      1970      1974      1978      1981      1970      1974      1978      1982
      1972      1970      1974      1976      1972      1970      1974      1977
      1972      1970      1974      1978      1973      1970      1974      1976
      1973      1970      1974      1977      1973      1970      1974      1978
      1974      1978      1982      1984      1974      1978      1982      1985
      1974      1978      1982      1986      1976      1974      1978      1980
      1976      1974      1978      1981      1976      1974      1978      1982
      1977      1974      1978      1980      1977      1974      1978      1981
      1977      1974      1978      1982      1978      1982      1986      1988
      1978      1982      1986      1989      1978      1982      1986      1990
      1980      1978      1982      1984      1980      1978      1982      1985
      1980      1978      1982      1986      1981      1978      1982      1984
      1981      1978      1982      1985      1981      1978      1982      1986
      1982      1986      1990      1992      1982      1986      1990      1993
      1982      1986      1990      1994      1984      1982      1986      1988
      1984      1982      1986      1989      1984      1982      1986      1990
      1985      1982      1986      1988      1985      1982      1986      1989
      1985      1982      1986      1990      1986      1990      1994      1996
      1986      1990      1994      1997      1986      1990      1994      1998
      1988      1986      1990      1992      1988      1986      1990      1993
      1988      1986      1990      1994      1989      1986      1990      1992
      1989      1986      1990      1993      1989      1986      1990      1994
      1990      1994      1998      2000      1990      1994      1998      2001
      1990      1994      1998      2002      1992      1990      1994      1996
      1992      1990      1994      1997      1992      1990      1994      1998
      1993      1990      1994      1996      1993      1990      1994      1997
      1993      1990      1994      1998      1996      1994      1998      2000
      1996      1994      1998      2001      1996      1994      1998      2002
      1997      1994      1998      2000      1997      1994      1998      2001
      1997      1994      1998      2002      2003      2008      2012      2014
      2003      2008      2012      2015      2003      2008      2012      2024
      2005      2003      2008      2010      2005      2003      2008      2011
      2005      2003      2008      2012      2006      2003      2008      2010
      2006      2003      2008      2011      2006      2003      2008      2012
      2007      2003      2008      2010      2007      2003      2008      2011
      2007      2003      2008      2012      2008      2012      2024      2016
      2010      2008      2012      2014      2010      2008      2012      2015
      2010      2008      2012      2024      2011      2008      2012      2014
      2011      2008      2012      2015      2011      2008      2012      2024
      2012      2024      2016      2018      2012      2024      2016      2020
      2012      2024      2016      2022      2014      2012      2024      2016
      2015      2012      2024      2016      2016      2022      2026      2028
      2016      2022      2026      2029      2016      2022      2026      2030
      2018      2016      2022      2026      2020      2016      2022      2026
      2022      2026      2030      2032      2022      2026      2030      2033
      2022      2026      2030      2047      2024      2016      2022      2026
      2026      2030      2033      2035      2026      2030      2047      2049
      2026      2030      2047      2050      2026      2030      2047      2051
      2028      2026      2030      2032      2028      2026      2030      2033
      2028      2026      2030      2047      2029      2026      2030      2032
      2029      2026      2030      2033      2029      2026      2030      2047
      2030      2033      2035      2037      2030      2033      2035      2039
      2030      2047      2051      2053      2032      2030      2033      2035
      2032      2030      2047      2049      2032      2030      2047      2050
      2032      2030      2047      2051      2033      2030      2047      2049
      2033      2030      2047      2050      2033      2030      2047      2051
      2033      2035      2039      2041      2033      2035      2039      2042
      2033      2035      2039      2065      2035      2033      2030      2047
      2035      2039      2065      2067      2035      2039      2065      2068
      2035      2039      2065      2069      2037      2035      2039      2041
      2037      2035      2039      2042      2037      2035      2039      2065
      2039      2065      2069      2071      2039      2065      2069      2072
      2039      2065      2069      2073      2041      2039      2065      2067
      2041      2039      2065      2068      2041      2039      2065      2069
      2042      2039      2065      2067      2042      2039      2065      2068
      2042      2039      2065      2069      2047      2051      2053      2055
      2047      2051      2053      2057      2049      2047      2051      2053
      2050      2047      2051      2053      2051      2053      2057      2059
      2051      2053      2057      2060      2051      2053      2057      2128
      2053      2057      2128      2130      2053      2057      2128      2131
      2053      2057      2128      2132      2055      2053      2057      2059
      2055      2053      2057      2060      2055      2053      2057      2128
      2057      2128      2132      2134      2057      2128      2132      2135
      2057      2128      2132      2136      2059      2057      2128      2130
      2059      2057      2128      2131      2059      2057      2128      2132
      2060      2057      2128      2130      2060      2057      2128      2131
      2060      2057      2128      2132      2065      2069      2073      2075
      2065      2069      2073      2076      2065      2069      2073      2077
      2067      2065      2069      2071      2067      2065      2069      2072
      2067      2065      2069      2073      2068      2065      2069      2071
      2068      2065      2069      2072      2068      2065      2069      2073
      2069      2073      2077      2079      2069      2073      2077      2080
      2069      2073      2077      2081      2071      2069      2073      2075
      2071      2069      2073      2076      2071      2069      2073      2077
      2072      2069      2073      2075      2072      2069      2073      2076
      2072      2069      2073      2077      2073      2077      2081      2083
      2073      2077      2081      2084      2073      2077      2081      2085
      2075      2073      2077      2079      2075      2073      2077      2080
      2075      2073      2077      2081      2076      2073      2077      2079
      2076      2073      2077      2080      2076      2073      2077      2081
      2077      2081      2085      2087      2077      2081      2085      2088
      2077      2081      2085      2089      2079      2077      2081      2083
      2079      2077      2081      2084      2079      2077      2081      2085
      2080      2077      2081      2083      2080      2077      2081      2084
      2080      2077      2081      2085      2081      2085      2089      2091
      2081      2085      2089      2092      2083      2081      2085      2087
      2083      2081      2085      2088      2083      2081      2085      2089
      2084      2081      2085      2087      2084      2081      2085      2088
      2084      2081      2085      2089      2085      2089      2092      2094
      2085      2089      2092      2095      2087      2085      2089      2091
      2087      2085      2089      2092      2088      2085      2089      2091
      2088      2085      2089      2092      2089      2092      2095      2097
      2089      2092      2095      2098      2089      2092      2095      2099
      2091      2089      2092      2094      2091      2089      2092      2095
      2092      2095      2099      2101      2092      2095      2099      2102
      2092      2095      2099      2103      2094      2092      2095      2097
      2094      2092      2095      2098      2094      2092      2095      2099
      2095      2099      2103      2105      2095      2099      2103      2106
      2095      2099      2103      2107      2097      2095      2099      2101
      2097      2095      2099      2102      2097      2095      2099      2103
      2098      2095      2099      2101      2098      2095      2099      2102
      2098      2095      2099      2103      2099      2103      2107      2109
      2099      2103      2107      2110      2099      2103      2107      2111
      2101      2099      2103      2105      2101      2099      2103      2106
      2101      2099      2103      2107      2102      2099      2103      2105
      2102      2099      2103      2106      2102      2099      2103      2107
      2103      2107      2111      2113      2103      2107      2111      2114
      2103      2107      2111      2115      2105      2103      2107      2109
      2105      2103      2107      2110      2105      2103      2107      2111
      2106      2103      2107      2109      2106      2103      2107      2110
      2106      2103      2107      2111      2107      2111      2115      2117
      2107      2111      2115      2118      2107      2111      2115      2119
      2109      2107      2111      2113      2109      2107      2111      2114
      2109      2107      2111      2115      2110      2107      2111      2113
      2110      2107      2111      2114      2110      2107      2111      2115
      2111      2115      2119      2121      2111      2115      2119      2122
      2111      2115      2119      2123      2113      2111      2115      2117
      2113      2111      2115      2118      2113      2111      2115      2119
      2114      2111      2115      2117      2114      2111      2115      2118
      2114      2111      2115      2119      2115      2119      2123      2125
      2115      2119      2123      2126      2115      2119      2123      2127
      2117      2115      2119      2121      2117      2115      2119      2122
      2117      2115      2119      2123      2118      2115      2119      2121
      2118      2115      2119      2122      2118      2115      2119      2123
      2121      2119      2123      2125      2121      2119      2123      2126
      2121      2119      2123      2127      2122      2119      2123      2125
      2122      2119      2123      2126      2122      2119      2123      2127
      2128      2132      2136      2138      2128      2132      2136      2139
      2128      2132      2136      2140      2130      2128      2132      2134
      2130      2128      2132      2135      2130      2128      2132      2136
      2131      2128      2132      2134      2131      2128      2132      2135
      2131      2128      2132      2136      2132      2136      2140      2142
      2132      2136      2140      2143      2132      2136      2140      2144
      2134      2132      2136      2138      2134      2132      2136      2139
      2134      2132      2136      2140      2135      2132      2136      2138
      2135      2132      2136      2139      2135      2132      2136      2140
      2136      2140      2144      2146      2136      2140      2144      2147
      2136      2140      2144      2148      2138      2136      2140      2142
      2138      2136      2140      2143      2138      2136      2140      2144
      2139      2136      2140      2142      2139      2136      2140      2143
      2139      2136      2140      2144      2140      2144      2148      2150
      2140      2144      2148      2151      2140      2144      2148      2152
      2142      2140      2144      2146      2142      2140      2144      2147
      2142      2140      2144      2148      2143      2140      2144      2146
      2143      2140      2144      2147      2143      2140      2144      2148
      2144      2148      2152      2154      2144      2148      2152      2155
      2144      2148      2152      2156      2146      2144      2148      2150
      2146      2144      2148      2151      2146      2144      2148      2152
      2147      2144      2148      2150      2147      2144      2148      2151
      2147      2144      2148      2152      2148      2152      2156      2158
      2148      2152      2156      2159      2148      2152      2156      2160
      2150      2148      2152      2154      2150      2148      2152      2155
      2150      2148      2152      2156      2151      2148      2152      2154
      2151      2148      2152      2155      2151      2148      2152      2156
      2152      2156      2160      2162      2152      2156      2160      2163
      2152      2156      2160      2164      2154      2152      2156      2158
      2154      2152      2156      2159      2154      2152      2156      2160
      2155      2152      2156      2158      2155      2152      2156      2159
      2155      2152      2156      2160      2156      2160      2164      2166
      2156      2160      2164      2167      2156      2160      2164      2168
      2158      2156      2160      2162      2158      2156      2160      2163
      2158      2156      2160      2164      2159      2156      2160      2162
      2159      2156      2160      2163      2159      2156      2160      2164
      2160      2164      2168      2170      2160      2164      2168      2171
      2160      2164      2168      2172      2162      2160      2164      2166
      2162      2160      2164      2167      2162      2160      2164      2168
      2163      2160      2164      2166      2163      2160      2164      2167
      2163      2160      2164      2168      2164      2168      2172      2174
      2164      2168      2172      2175      2164      2168      2172      2176
      2166      2164      2168      2170      2166      2164      2168      2171
      2166      2164      2168      2172      2167      2164      2168      2170
      2167      2164      2168      2171      2167      2164      2168      2172
      2168      2172      2176      2178      2168      2172      2176      2179
      2168      2172      2176      2180      2170      2168      2172      2174
      2170      2168      2172      2175      2170      2168      2172      2176
      2171      2168      2172      2174      2171      2168      2172      2175
      2171      2168      2172      2176      2172      2176      2180      2182
      2172      2176      2180      2183      2172      2176      2180      2184
      2174      2172      2176      2178      2174      2172      2176      2179
      2174      2172      2176      2180      2175      2172      2176      2178
      2175      2172      2176      2179      2175      2172      2176      2180
      2178      2176      2180      2182      2178      2176      2180      2183
      2178      2176      2180      2184      2179      2176      2180      2182
      2179      2176      2180      2183      2179      2176      2180      2184
      2185      2190      2194      2196      2185      2190      2194      2197
      2185      2190      2194      2206      2187      2185      2190      2192
      2187      2185      2190      2193      2187      2185      2190      2194
      2188      2185      2190      2192      2188      2185      2190      2193
      2188      2185      2190      2194      2189      2185      2190      2192
      2189      2185      2190      2193      2189      2185      2190      2194
      2190      2194      2206      2198      2192      2190      2194      2196
      2192      2190      2194      2197      2192      2190      2194      2206
      2193      2190      2194      2196      2193      2190      2194      2197
      2193      2190      2194      2206      2194      2206      2198      2200
      2194      2206      2198      2202      2194      2206      2198      2204
      2196      2194      2206      2198      2197      2194      2206      2198
      2198      2204      2208      2210      2198      2204      2208      2211
      2198      2204      2208      2212      2200      2198      2204      2208
      2202      2198      2204      2208      2204      2208      2212      2214
      2204      2208      2212      2215      2204      2208      2212      2229
      2206      2198      2204      2208      2208      2212      2215      2217
      2208      2212      2229      2231      2208      2212      2229      2232
      2208      2212      2229      2233      2210      2208      2212      2214
      2210      2208      2212      2215      2210      2208      2212      2229
      2211      2208      2212      2214      2211      2208      2212      2215
      2211      2208      2212      2229      2212      2215      2217      2219
      2212      2215      2217      2221      2212      2229      2233      2235
      2214      2212      2215      2217      2214      2212      2229      2231
      2214      2212      2229      2232      2214      2212      2229      2233
      2215      2212      2229      2231      2215      2212      2229      2232
      2215      2212      2229      2233      2215      2217      2221      2223
      2215      2217      2221      2224      2215      2217      2221      2247
      2217      2215      2212      2229      2217      2221      2247      2249
      2217      2221      2247      2250      2217      2221      2247      2251
      2219      2217      2221      2223      2219      2217      2221      2224
      2219      2217      2221      2247      2221      2247      2251      2253
      2221      2247      2251      2254      2221      2247      2251      2255
      2223      2221      2247      2249      2223      2221      2247      2250
      2223      2221      2247      2251      2224      2221      2247      2249
      2224      2221      2247      2250      2224      2221      2247      2251
      2229      2233      2235      2237      2229      2233      2235      2239
      2231      2229      2233      2235      2232      2229      2233      2235
      2233      2235      2239      2241      2233      2235      2239      2242
      2233      2235      2239      2310      2235      2239      2310      2312
      2235      2239      2310      2313      2235      2239      2310      2314
      2237      2235      2239      2241      2237      2235      2239      2242
      2237      2235      2239      2310      2239      2310      2314      2316
      2239      2310      2314      2317      2239      2310      2314      2318
      2241      2239      2310      2312      2241      2239      2310      2313
      2241      2239      2310      2314      2242      2239      2310      2312
      2242      2239      2310      2313      2242      2239      2310      2314
      2247      2251      2255      2257      2247      2251      2255      2258
      2247      2251      2255      2259      2249      2247      2251      2253
      2249      2247      2251      2254      2249      2247      2251      2255
      2250      2247      2251      2253      2250      2247      2251      2254
      2250      2247      2251      2255      2251      2255      2259      2261
      2251      2255      2259      2262      2251      2255      2259      2263
      2253      2251      2255      2257      2253      2251      2255      2258
      2253      2251      2255      2259      2254      2251      2255      2257
      2254      2251      2255      2258      2254      2251      2255      2259
      2255      2259      2263      2265      2255      2259      2263      2266
      2255      2259      2263      2267      2257      2255      2259      2261
      2257      2255      2259      2262      2257      2255      2259      2263
      2258      2255      2259      2261      2258      2255      2259      2262
      2258      2255      2259      2263      2259      2263      2267      2269
      2259      2263      2267      2270      2259      2263      2267      2271
      2261      2259      2263      2265      2261      2259      2263      2266
      2261      2259      2263      2267      2262      2259      2263      2265
      2262      2259      2263      2266      2262      2259      2263      2267
      2263      2267      2271      2273      2263      2267      2271      2274
      2265      2263      2267      2269      2265      2263      2267      2270
      2265      2263      2267      2271      2266      2263      2267      2269
      2266      2263      2267      2270      2266      2263      2267      2271
      2267      2271      2274      2276      2267      2271      2274      2277
      2269      2267      2271      2273      2269      2267      2271      2274
      2270      2267      2271      2273      2270      2267      2271      2274
      2271      2274      2277      2279      2271      2274      2277      2280
      2271      2274      2277      2281      2273      2271      2274      2276
      2273      2271      2274      2277      2274      2277      2281      2283
      2274      2277      2281      2284      2274      2277      2281      2285
      2276      2274      2277      2279      2276      2274      2277      2280
      2276      2274      2277      2281      2277      2281      2285      2287
      2277      2281      2285      2288      2277      2281      2285      2289
      2279      2277      2281      2283      2279      2277      2281      2284
      2279      2277      2281      2285      2280      2277      2281      2283
      2280      2277      2281      2284      2280      2277      2281      2285
      2281      2285      2289      2291      2281      2285      2289      2292
      2281      2285      2289      2293      2283      2281      2285      2287
      2283      2281      2285      2288      2283      2281      2285      2289
      2284      2281      2285      2287      2284      2281      2285      2288
      2284      2281      2285      2289      2285      2289      2293      2295
      2285      2289      2293      2296      2285      2289      2293      2297
      2287      2285      2289      2291      2287      2285      2289      2292
      2287      2285      2289      2293      2288      2285      2289      2291
      2288      2285      2289      2292      2288      2285      2289      2293
      2289      2293      2297      2299      2289      2293      2297      2300
      2289      2293      2297      2301      2291      2289      2293      2295
      2291      2289      2293      2296      2291      2289      2293      2297
      2292      2289      2293      2295      2292      2289      2293      2296
      2292      2289      2293      2297      2293      2297      2301      2303
      2293      2297      2301      2304      2293      2297      2301      2305
      2295      2293      2297      2299      2295      2293      2297      2300
      2295      2293      2297      2301      2296      2293      2297      2299
      2296      2293      2297      2300      2296      2293      2297      2301
      2297      2301      2305      2307      2297      2301      2305      2308
      2297      2301      2305      2309      2299      2297      2301      2303
      2299      2297      2301      2304      2299      2297      2301      2305
      2300      2297      2301      2303      2300      2297      2301      2304
      2300      2297      2301      2305      2303      2301      2305      2307
      2303      2301      2305      2308      2303      2301      2305      2309
      2304      2301      2305      2307      2304      2301      2305      2308
      2304      2301      2305      2309      2310      2314      2318      2320
      2310      2314      2318      2321      2310      2314      2318      2322
      2312      2310      2314      2316      2312      2310      2314      2317
      2312      2310      2314      2318      2313      2310      2314      2316
      2313      2310      2314      2317      2313      2310      2314      2318
      2314      2318      2322      2324      2314      2318      2322      2325
      2314      2318      2322      2326      2316      2314      2318      2320
      2316      2314      2318      2321      2316      2314      2318      2322
      2317      2314      2318      2320      2317      2314      2318      2321
      2317      2314      2318      2322      2318      2322      2326      2328
      2318      2322      2326      2329      2318      2322      2326      2330
      2320      2318      2322      2324      2320      2318      2322      2325
      2320      2318      2322      2326      2321      2318      2322      2324
      2321      2318      2322      2325      2321      2318      2322      2326
      2322      2326      2330      2332      2322      2326      2330      2333
      2322      2326      2330      2334      2324      2322      2326      2328
      2324      2322      2326      2329      2324      2322      2326      2330
      2325      2322      2326      2328      2325      2322      2326      2329
      2325      2322      2326      2330      2326      2330      2334      2336
      2326      2330      2334      2337      2326      2330      2334      2338
      2328      2326      2330      2332      2328      2326      2330      2333
      2328      2326      2330      2334      2329      2326      2330      2332
      2329      2326      2330      2333      2329      2326      2330      2334
      2330      2334      2338      2340      2330      2334      2338      2341
      2330      2334      2338      2342      2332      2330      2334      2336
      2332      2330      2334      2337      2332      2330      2334      2338
      2333      2330      2334      2336      2333      2330      2334      2337
      2333      2330      2334      2338      2334      2338      2342      2344
      2334      2338      2342      2345      2334      2338      2342      2346
      2336      2334      2338      2340      2336      2334      2338      2341
      2336      2334      2338      2342      2337      2334      2338      2340
      2337      2334      2338      2341      2337      2334      2338      2342
      2338      2342      2346      2348      2338      2342      2346      2349
      2338      2342      2346      2350      2340      2338      2342      2344
      2340      2338      2342      2345      2340      2338      2342      2346
      2341      2338      2342      2344      2341      2338      2342      2345
      2341      2338      2342      2346      2342      2346      2350      2352
      2342      2346      2350      2353      2342      2346      2350      2354
      2344      2342      2346      2348      2344      2342      2346      2349
      2344      2342      2346      2350      2345      2342      2346      2348
      2345      2342      2346      2349      2345      2342      2346      2350
      2346      2350      2354      2356      2346      2350      2354      2357
      2346      2350      2354      2358      2348      2346      2350      2352
      2348      2346      2350      2353      2348      2346      2350      2354
      2349      2346      2350      2352      2349      2346      2350      2353
      2349      2346      2350      2354      2350      2354      2358      2360
      2350      2354      2358      2361      2350      2354      2358      2362
      2352      2350      2354      2356      2352      2350      2354      2357
      2352      2350      2354      2358      2353      2350      2354      2356
      2353      2350      2354      2357      2353      2350      2354      2358
      2354      2358      2362      2364      2354      2358      2362      2365
      2354      2358      2362      2366      2356      2354      2358      2360
      2356      2354      2358      2361      2356      2354      2358      2362
      2357      2354      2358      2360      2357      2354      2358      2361
      2357      2354      2358      2362      2360      2358      2362      2364
      2360      2358      2362      2365      2360      2358      2362      2366
      2361      2358      2362      2364      2361      2358      2362      2365
      2361      2358      2362      2366      2367      2372      2376      2378
      2367      2372      2376      2379      2367      2372      2376      2388
      2369      2367      2372      2374      2369      2367      2372      2375
      2369      2367      2372      2376      2370      2367      2372      2374
      2370      2367      2372      2375      2370      2367      2372      2376
      2371      2367      2372      2374      2371      2367      2372      2375
      2371      2367      2372      2376      2372      2376      2388      2380
      2374      2372      2376      2378      2374      2372      2376      2379
      2374      2372      2376      2388      2375      2372      2376      2378
      2375      2372      2376      2379      2375      2372      2376      2388
      2376      2388      2380      2382      2376      2388      2380      2384
      2376      2388      2380      2386      2378      2376      2388      2380
      2379      2376      2388      2380      2380      2386      2390      2392
      2380      2386      2390      2393      2380      2386      2390      2394
      2382      2380      2386      2390      2384      2380      2386      2390
      2386      2390      2394      2396      2386      2390      2394      2397
      2386      2390      2394      2411      2388      2380      2386      2390
      2390      2394      2397      2399      2390      2394      2411      2413
      2390      2394      2411      2414      2390      2394      2411      2415
      2392      2390      2394      2396      2392      2390      2394      2397
      2392      2390      2394      2411      2393      2390      2394      2396
      2393      2390      2394      2397      2393      2390      2394      2411
      2394      2397      2399      2401      2394      2397      2399      2403
      2394      2411      2415      2417      2396      2394      2397      2399
      2396      2394      2411      2413      2396      2394      2411      2414
      2396      2394      2411      2415      2397      2394      2411      2413
      2397      2394      2411      2414      2397      2394      2411      2415
      2397      2399      2403      2405      2397      2399      2403      2406
      2397      2399      2403      2429      2399      2397      2394      2411
      2399      2403      2429      2431      2399      2403      2429      2432
      2399      2403      2429      2433      2401      2399      2403      2405
      2401      2399      2403      2406      2401      2399      2403      2429
      2403      2429      2433      2435      2403      2429      2433      2436
      2403      2429      2433      2437      2405      2403      2429      2431
      2405      2403      2429      2432      2405      2403      2429      2433
      2406      2403      2429      2431      2406      2403      2429      2432
      2406      2403      2429      2433      2411      2415      2417      2419
      2411      2415      2417      2421      2413      2411      2415      2417
      2414      2411      2415      2417      2415      2417      2421      2423
      2415      2417      2421      2424      2415      2417      2421      2492
      2417      2421      2492      2494      2417      2421      2492      2495
      2417      2421      2492      2496      2419      2417      2421      2423
      2419      2417      2421      2424      2419      2417      2421      2492
      2421      2492      2496      2498      2421      2492      2496      2499
      2421      2492      2496      2500      2423      2421      2492      2494
      2423      2421      2492      2495      2423      2421      2492      2496
      2424      2421      2492      2494      2424      2421      2492      2495
      2424      2421      2492      2496      2429      2433      2437      2439
      2429      2433      2437      2440      2429      2433      2437      2441
      2431      2429      2433      2435      2431      2429      2433      2436
      2431      2429      2433      2437      2432      2429      2433      2435
      2432      2429      2433      2436      2432      2429      2433      2437
      2433      2437      2441      2443      2433      2437      2441      2444
      2433      2437      2441      2445      2435      2433      2437      2439
      2435      2433      2437      2440      2435      2433      2437      2441
      2436      2433      2437      2439      2436      2433      2437      2440
      2436      2433      2437      2441      2437      2441      2445      2447
      2437      2441      2445      2448      2437      2441      2445      2449
      2439      2437      2441      2443      2439      2437      2441      2444
      2439      2437      2441      2445      2440      2437      2441      2443
      2440      2437      2441      2444      2440      2437      2441      2445
      2441      2445      2449      2451      2441      2445      2449      2452
      2441      2445      2449      2453      2443      2441      2445      2447
      2443      2441      2445      2448      2443      2441      2445      2449
      2444      2441      2445      2447      2444      2441      2445      2448
      2444      2441      2445      2449      2445      2449      2453      2455
      2445      2449      2453      2456      2447      2445      2449      2451
      2447      2445      2449      2452      2447      2445      2449      2453
      2448      2445      2449      2451      2448      2445      2449      2452
      2448      2445      2449      2453      2449      2453      2456      2458
      2449      2453      2456      2459      2451      2449      2453      2455
      2451      2449      2453      2456      2452      2449      2453      2455
      2452      2449      2453      2456      2453      2456      2459      2461
      2453      2456      2459      2462      2453      2456      2459      2463
      2455      2453      2456      2458      2455      2453      2456      2459
      2456      2459      2463      2465      2456      2459      2463      2466
      2456      2459      2463      2467      2458      2456      2459      2461
      2458      2456      2459      2462      2458      2456      2459      2463
      2459      2463      2467      2469      2459      2463      2467      2470
      2459      2463      2467      2471      2461      2459      2463      2465
      2461      2459      2463      2466      2461      2459      2463      2467
      2462      2459      2463      2465      2462      2459      2463      2466
      2462      2459      2463      2467      2463      2467      2471      2473
      2463      2467      2471      2474      2463      2467      2471      2475
      2465      2463      2467      2469      2465      2463      2467      2470
      2465      2463      2467      2471      2466      2463      2467      2469
      2466      2463      2467      2470      2466      2463      2467      2471
      2467      2471      2475      2477      2467      2471      2475      2478
      2467      2471      2475      2479      2469      2467      2471      2473
      2469      2467      2471      2474      2469      2467      2471      2475
      2470      2467      2471      2473      2470      2467      2471      2474
      2470      2467      2471      2475      2471      2475      2479      2481
      2471      2475      2479      2482      2471      2475      2479      2483
      2473      2471      2475      2477      2473      2471      2475      2478
      2473      2471      2475      2479      2474      2471      2475      2477
      2474      2471      2475      2478      2474      2471      2475      2479
      2475      2479      2483      2485      2475      2479      2483      2486
      2475      2479      2483      2487      2477      2475      2479      2481
      2477      2475      2479      2482      2477      2475      2479      2483
      2478      2475      2479      2481      2478      2475      2479      2482
      2478      2475      2479      2483      2479      2483      2487      2489
      2479      2483      2487      2490      2479      2483      2487      2491
      2481      2479      2483      2485      2481      2479      2483      2486
      2481      2479      2483      2487      2482      2479      2483      2485
      2482      2479      2483      2486      2482      2479      2483      2487
      2485      2483      2487      2489      2485      2483      2487      2490
      2485      2483      2487      2491      2486      2483      2487      2489
      2486      2483      2487      2490      2486      2483      2487      2491
      2492      2496      2500      2502      2492      2496      2500      2503
      2492      2496      2500      2504      2494      2492      2496      2498
      2494      2492      2496      2499      2494      2492      2496      2500
      2495      2492      2496      2498      2495      2492      2496      2499
      2495      2492      2496      2500      2496      2500      2504      2506
      2496      2500      2504      2507      2496      2500      2504      2508
      2498      2496      2500      2502      2498      2496      2500      2503
      2498      2496      2500      2504      2499      2496      2500      2502
      2499      2496      2500      2503      2499      2496      2500      2504
      2500      2504      2508      2510      2500      2504      2508      2511
      2500      2504      2508      2512      2502      2500      2504      2506
      2502      2500      2504      2507      2502      2500      2504      2508
      2503      2500      2504      2506      2503      2500      2504      2507
      2503      2500      2504      2508      2504      2508      2512      2514
      2504      2508      2512      2515      2504      2508      2512      2516
      2506      2504      2508      2510      2506      2504      2508      2511
      2506      2504      2508      2512      2507      2504      2508      2510
      2507      2504      2508      2511      2507      2504      2508      2512
      2508      2512      2516      2518      2508      2512      2516      2519
      2508      2512      2516      2520      2510      2508      2512      2514
      2510      2508      2512      2515      2510      2508      2512      2516
      2511      2508      2512      2514      2511      2508      2512      2515
      2511      2508      2512      2516      2512      2516      2520      2522
      2512      2516      2520      2523      2512      2516      2520      2524
      2514      2512      2516      2518      2514      2512      2516      2519
      2514      2512      2516      2520      2515      2512      2516      2518
      2515      2512      2516      2519      2515      2512      2516      2520
      2516      2520      2524      2526      2516      2520      2524      2527
      2516      2520      2524      2528      2518      2516      2520      2522
      2518      2516      2520      2523      2518      2516      2520      2524
      2519      2516      2520      2522      2519      2516      2520      2523
      2519      2516      2520      2524      2520      2524      2528      2530
      2520      2524      2528      2531      2520      2524      2528      2532
      2522      2520      2524      2526      2522      2520      2524      2527
      2522      2520      2524      2528      2523      2520      2524      2526
      2523      2520      2524      2527      2523      2520      2524      2528
      2524      2528      2532      2534      2524      2528      2532      2535
      2524      2528      2532      2536      2526      2524      2528      2530
      2526      2524      2528      2531      2526      2524      2528      2532
      2527      2524      2528      2530      2527      2524      2528      2531
      2527      2524      2528      2532      2528      2532      2536      2538
      2528      2532      2536      2539      2528      2532      2536      2540
      2530      2528      2532      2534      2530      2528      2532      2535
      2530      2528      2532      2536      2531      2528      2532      2534
      2531      2528      2532      2535      2531      2528      2532      2536
      2532      2536      2540      2542      2532      2536      2540      2543
      2532      2536      2540      2544      2534      2532      2536      2538
      2534      2532      2536      2539      2534      2532      2536      2540
      2535      2532      2536      2538      2535      2532      2536      2539
      2535      2532      2536      2540      2536      2540      2544      2546
      2536      2540      2544      2547      2536      2540      2544      2548
      2538      2536      2540      2542      2538      2536      2540      2543
      2538      2536      2540      2544      2539      2536      2540      2542
      2539      2536      2540      2543      2539      2536      2540      2544
      2542      2540      2544      2546      2542      2540      2544      2547
      2542      2540      2544      2548      2543      2540      2544      2546
      2543      2540      2544      2547      2543      2540      2544      2548
      2549      2554      2558      2560      2549      2554      2558      2561
      2549      2554      2558      2570      2551      2549      2554      2556
      2551      2549      2554      2557      2551      2549      2554      2558
      2552      2549      2554      2556      2552      2549      2554      2557
      2552      2549      2554      2558      2553      2549      2554      2556
      2553      2549      2554      2557      2553      2549      2554      2558
      2554      2558      2570      2562      2556      2554      2558      2560
      2556      2554      2558      2561      2556      2554      2558      2570
      2557      2554      2558      2560      2557      2554      2558      2561
      2557      2554      2558      2570      2558      2570      2562      2564
      2558      2570      2562      2566      2558      2570      2562      2568
      2560      2558      2570      2562      2561      2558      2570      2562
      2562      2568      2572      2574      2562      2568      2572      2575
      2562      2568      2572      2576      2564      2562      2568      2572
      2566      2562      2568      2572      2568      2572      2576      2578
      2568      2572      2576      2579      2568      2572      2576      2593
      2570      2562      2568      2572      2572      2576      2579      2581
      2572      2576      2593      2595      2572      2576      2593      2596
      2572      2576      2593      2597      2574      2572      2576      2578
      2574      2572      2576      2579      2574      2572      2576      2593
      2575      2572      2576      2578      2575      2572      2576      2579
      2575      2572      2576      2593      2576      2579      2581      2583
      2576      2579      2581      2585      2576      2593      2597      2599
      2578      2576      2579      2581      2578      2576      2593      2595
      2578      2576      2593      2596      2578      2576      2593      2597
      2579      2576      2593      2595      2579      2576      2593      2596
      2579      2576      2593      2597      2579      2581      2585      2587
      2579      2581      2585      2588      2579      2581      2585      2611
      2581      2579      2576      2593      2581      2585      2611      2613
      2581      2585      2611      2614      2581      2585      2611      2615
      2583      2581      2585      2587      2583      2581      2585      2588
      2583      2581      2585      2611      2585      2611      2615      2617
      2585      2611      2615      2618      2585      2611      2615      2619
      2587      2585      2611      2613      2587      2585      2611      2614
      2587      2585      2611      2615      2588      2585      2611      2613
      2588      2585      2611      2614      2588      2585      2611      2615
      2593      2597      2599      2601      2593      2597      2599      2603
      2595      2593      2597      2599      2596      2593      2597      2599
      2597      2599      2603      2605      2597      2599      2603      2606
      2597      2599      2603      2674      2599      2603      2674      2676
      2599      2603      2674      2677      2599      2603      2674      2678
      2601      2599      2603      2605      2601      2599      2603      2606
      2601      2599      2603      2674      2603      2674      2678      2680
      2603      2674      2678      2681      2603      2674      2678      2682
      2605      2603      2674      2676      2605      2603      2674      2677
      2605      2603      2674      2678      2606      2603      2674      2676
      2606      2603      2674      2677      2606      2603      2674      2678
      2611      2615      2619      2621      2611      2615      2619      2622
      2611      2615      2619      2623      2613      2611      2615      2617
      2613      2611      2615      2618      2613      2611      2615      2619
      2614      2611      2615      2617      2614      2611      2615      2618
      2614      2611      2615      2619      2615      2619      2623      2625
      2615      2619      2623      2626      2615      2619      2623      2627
      2617      2615      2619      2621      2617      2615      2619      2622
      2617      2615      2619      2623      2618      2615      2619      2621
      2618      2615      2619      2622      2618      2615      2619      2623
      2619      2623      2627      2629      2619      2623      2627      2630
      2619      2623      2627      2631      2621      2619      2623      2625
      2621      2619      2623      2626      2621      2619      2623      2627
      2622      2619      2623      2625      2622      2619      2623      2626
      2622      2619      2623      2627      2623      2627      2631      2633
      2623      2627      2631      2634      2623      2627      2631      2635
      2625      2623      2627      2629      2625      2623      2627      2630
      2625      2623      2627      2631      2626      2623      2627      2629
      2626      2623      2627      2630      2626      2623      2627      2631
      2627      2631      2635      2637      2627      2631      2635      2638
      2629      2627      2631      2633      2629      2627      2631      2634
      2629      2627      2631      2635      2630      2627      2631      2633
      2630      2627      2631      2634      2630      2627      2631      2635
      2631      2635      2638      2640      2631      2635      2638      2641
      2633      2631      2635      2637      2633      2631      2635      2638
      2634      2631      2635      2637      2634      2631      2635      2638
      2635      2638      2641      2643      2635      2638      2641      2644
      2635      2638      2641      2645      2637      2635      2638      2640
      2637      2635      2638      2641      2638      2641      2645      2647
      2638      2641      2645      2648      2638      2641      2645      2649
      2640      2638      2641      2643      2640      2638      2641      2644
      2640      2638      2641      2645      2641      2645      2649      2651
      2641      2645      2649      2652      2641      2645      2649      2653
      2643      2641      2645      2647      2643      2641      2645      2648
      2643      2641      2645      2649      2644      2641      2645      2647
      2644      2641      2645      2648      2644      2641      2645      2649
      2645      2649      2653      2655      2645      2649      2653      2656
      2645      2649      2653      2657      2647      2645      2649      2651
      2647      2645      2649      2652      2647      2645      2649      2653
      2648      2645      2649      2651      2648      2645      2649      2652
      2648      2645      2649      2653      2649      2653      2657      2659
      2649      2653      2657      2660      2649      2653      2657      2661
      2651      2649      2653      2655      2651      2649      2653      2656
      2651      2649      2653      2657      2652      2649      2653      2655
      2652      2649      2653      2656      2652      2649      2653      2657
      2653      2657      2661      2663      2653      2657      2661      2664
      2653      2657      2661      2665      2655      2653      2657      2659
      2655      2653      2657      2660      2655      2653      2657      2661
      2656      2653      2657      2659      2656      2653      2657      2660
      2656      2653      2657      2661      2657      2661      2665      2667
      2657      2661      2665      2668      2657      2661      2665      2669
      2659      2657      2661      2663      2659      2657      2661      2664
      2659      2657      2661      2665      2660      2657      2661      2663
      2660      2657      2661      2664      2660      2657      2661      2665
      2661      2665      2669      2671      2661      2665      2669      2672
      2661      2665      2669      2673      2663      2661      2665      2667
      2663      2661      2665      2668      2663      2661      2665      2669
      2664      2661      2665      2667      2664      2661      2665      2668
      2664      2661      2665      2669      2667      2665      2669      2671
      2667      2665      2669      2672      2667      2665      2669      2673
      2668      2665      2669      2671      2668      2665      2669      2672
      2668      2665      2669      2673      2674      2678      2682      2684
      2674      2678      2682      2685      2674      2678      2682      2686
      2676      2674      2678      2680      2676      2674      2678      2681
      2676      2674      2678      2682      2677      2674      2678      2680
      2677      2674      2678      2681      2677      2674      2678      2682
      2678      2682      2686      2688      2678      2682      2686      2689
      2678      2682      2686      2690      2680      2678      2682      2684
      2680      2678      2682      2685      2680      2678      2682      2686
      2681      2678      2682      2684      2681      2678      2682      2685
      2681      2678      2682      2686      2682      2686      2690      2692
      2682      2686      2690      2693      2682      2686      2690      2694
      2684      2682      2686      2688      2684      2682      2686      2689
      2684      2682      2686      2690      2685      2682      2686      2688
      2685      2682      2686      2689      2685      2682      2686      2690
      2686      2690      2694      2696      2686      2690      2694      2697
      2686      2690      2694      2698      2688      2686      2690      2692
      2688      2686      2690      2693      2688      2686      2690      2694
      2689      2686      2690      2692      2689      2686      2690      2693
      2689      2686      2690      2694      2690      2694      2698      2700
      2690      2694      2698      2701      2690      2694      2698      2702
      2692      2690      2694      2696      2692      2690      2694      2697
      2692      2690      2694      2698      2693      2690      2694      2696
      2693      2690      2694      2697      2693      2690      2694      2698
      2694      2698      2702      2704      2694      2698      2702      2705
      2694      2698      2702      2706      2696      2694      2698      2700
      2696      2694      2698      2701      2696      2694      2698      2702
      2697      2694      2698      2700      2697      2694      2698      2701
      2697      2694      2698      2702      2698      2702      2706      2708
      2698      2702      2706      2709      2698      2702      2706      2710
      2700      2698      2702      2704      2700      2698      2702      2705
      2700      2698      2702      2706      2701      2698      2702      2704
      2701      2698      2702      2705      2701      2698      2702      2706
      2702      2706      2710      2712      2702      2706      2710      2713
      2702      2706      2710      2714      2704      2702      2706      2708
      2704      2702      2706      2709      2704      2702      2706      2710
      2705      2702      2706      2708      2705      2702      2706      2709
      2705      2702      2706      2710      2706      2710      2714      2716
      2706      2710      2714      2717      2706      2710      2714      2718
      2708      2706      2710      2712      2708      2706      2710      2713
      2708      2706      2710      2714      2709      2706      2710      2712
      2709      2706      2710      2713      2709      2706      2710      2714
      2710      2714      2718      2720      2710      2714      2718      2721
      2710      2714      2718      2722      2712      2710      2714      2716
      2712      2710      2714      2717      2712      2710      2714      2718
      2713      2710      2714      2716      2713      2710      2714      2717
      2713      2710      2714      2718      2714      2718      2722      2724
      2714      2718      2722      2725      2714      2718      2722      2726
      2716      2714      2718      2720      2716      2714      2718      2721
      2716      2714      2718      2722      2717      2714      2718      2720
      2717      2714      2718      2721      2717      2714      2718      2722
      2718      2722      2726      2728      2718      2722      2726      2729
      2718      2722      2726      2730      2720      2718      2722      2724
      2720      2718      2722      2725      2720      2718      2722      2726
      2721      2718      2722      2724      2721      2718      2722      2725
      2721      2718      2722      2726      2724      2722      2726      2728
      2724      2722      2726      2729      2724      2722      2726      2730
      2725      2722      2726      2728      2725      2722      2726      2729
      2725      2722      2726      2730      2731      2736      2740      2742
      2731      2736      2740      2743      2731      2736      2740      2752
      2733      2731      2736      2738      2733      2731      2736      2739
      2733      2731      2736      2740      2734      2731      2736      2738
      2734      2731      2736      2739      2734      2731      2736      2740
      2735      2731      2736      2738      2735      2731      2736      2739
      2735      2731      2736      2740      2736      2740      2752      2744
      2738      2736      2740      2742      2738      2736      2740      2743
      2738      2736      2740      2752      2739      2736      2740      2742
      2739      2736      2740      2743      2739      2736      2740      2752
      2740      2752      2744      2746      2740      2752      2744      2748
      2740      2752      2744      2750      2742      2740      2752      2744
      2743      2740      2752      2744      2744      2750      2754      2756
      2744      2750      2754      2757      2744      2750      2754      2758
      2746      2744      2750      2754      2748      2744      2750      2754
      2750      2754      2758      2760      2750      2754      2758      2761
      2750      2754      2758      2775      2752      2744      2750      2754
      2754      2758      2761      2763      2754      2758      2775      2777
      2754      2758      2775      2778      2754      2758      2775      2779
      2756      2754      2758      2760      2756      2754      2758      2761
      2756      2754      2758      2775      2757      2754      2758      2760
      2757      2754      2758      2761      2757      2754      2758      2775
      2758      2761      2763      2765      2758      2761      2763      2767
      2758      2775      2779      2781      2760      2758      2761      2763
      2760      2758      2775      2777      2760      2758      2775      2778
      2760      2758      2775      2779      2761      2758      2775      2777
      2761      2758      2775      2778      2761      2758      2775      2779
      2761      2763      2767      2769      2761      2763      2767      2770
      2761      2763      2767      2793      2763      2761      2758      2775
      2763      2767      2793      2795      2763      2767      2793      2796
      2763      2767      2793      2797      2765      2763      2767      2769
      2765      2763      2767      2770      2765      2763      2767      2793
      2767      2793      2797      2799      2767      2793      2797      2800
      2767      2793      2797      2801      2769      2767      2793      2795
      2769      2767      2793      2796      2769      2767      2793      2797
      2770      2767      2793      2795      2770      2767      2793      2796
      2770      2767      2793      2797      2775      2779      2781      2783
      2775      2779      2781      2785      2777      2775      2779      2781
      2778      2775      2779      2781      2779      2781      2785      2787
      2779      2781      2785      2788      2779      2781      2785      2856
      2781      2785      2856      2858      2781      2785      2856      2859
      2781      2785      2856      2860      2783      2781      2785      2787
      2783      2781      2785      2788      2783      2781      2785      2856
      2785      2856      2860      2862      2785      2856      2860      2863
      2785      2856      2860      2864      2787      2785      2856      2858
      2787      2785      2856      2859      2787      2785      2856      2860
      2788      2785      2856      2858      2788      2785      2856      2859
      2788      2785      2856      2860      2793      2797      2801      2803
      2793      2797      2801      2804      2793      2797      2801      2805
      2795      2793      2797      2799      2795      2793      2797      2800
      2795      2793      2797      2801      2796      2793      2797      2799
      2796      2793      2797      2800      2796      2793      2797      2801
      2797      2801      2805      2807      2797      2801      2805      2808
      2797      2801      2805      2809      2799      2797      2801      2803
      2799      2797      2801      2804      2799      2797      2801      2805
      2800      2797      2801      2803      2800      2797      2801      2804
      2800      2797      2801      2805      2801      2805      2809      2811
      2801      2805      2809      2812      2801      2805      2809      2813
      2803      2801      2805      2807      2803      2801      2805      2808
      2803      2801      2805      2809      2804      2801      2805      2807
      2804      2801      2805      2808      2804      2801      2805      2809
      2805      2809      2813      2815      2805      2809      2813      2816
      2805      2809      2813      2817      2807      2805      2809      2811
      2807      2805      2809      2812      2807      2805      2809      2813
      2808      2805      2809      2811      2808      2805      2809      2812
      2808      2805      2809      2813      2809      2813      2817      2819
      2809      2813      2817      2820      2811      2809      2813      2815
      2811      2809      2813      2816      2811      2809      2813      2817
      2812      2809      2813      2815      2812      2809      2813      2816
      2812      2809      2813      2817      2813      2817      2820      2822
      2813      2817      2820      2823      2815      2813      2817      2819
      2815      2813      2817      2820      2816      2813      2817      2819
      2816      2813      2817      2820      2817      2820      2823      2825
      2817      2820      2823      2826      2817      2820      2823      2827
      2819      2817      2820      2822      2819      2817      2820      2823
      2820      2823      2827      2829      2820      2823      2827      2830
      2820      2823      2827      2831      2822      2820      2823      2825
      2822      2820      2823      2826      2822      2820      2823      2827
      2823      2827      2831      2833      2823      2827      2831      2834
      2823      2827      2831      2835      2825      2823      2827      2829
      2825      2823      2827      2830      2825      2823      2827      2831
      2826      2823      2827      2829      2826      2823      2827      2830
      2826      2823      2827      2831      2827      2831      2835      2837
      2827      2831      2835      2838      2827      2831      2835      2839
      2829      2827      2831      2833      2829      2827      2831      2834
      2829      2827      2831      2835      2830      2827      2831      2833
      2830      2827      2831      2834      2830      2827      2831      2835
      2831      2835      2839      2841      2831      2835      2839      2842
      2831      2835      2839      2843      2833      2831      2835      2837
      2833      2831      2835      2838      2833      2831      2835      2839
      2834      2831      2835      2837      2834      2831      2835      2838
      2834      2831      2835      2839      2835      2839      2843      2845
      2835      2839      2843      2846      2835      2839      2843      2847
      2837      2835      2839      2841      2837      2835      2839      2842
      2837      2835      2839      2843      2838      2835      2839      2841
      2838      2835      2839      2842      2838      2835      2839      2843
      2839      2843      2847      2849      2839      2843      2847      2850
      2839      2843      2847      2851      2841      2839      2843      2845
      2841      2839      2843      2846      2841      2839      2843      2847
      2842      2839      2843      2845      2842      2839      2843      2846
      2842      2839      2843      2847      2843      2847      2851      2853
      2843      2847      2851      2854      2843      2847      2851      2855
      2845      2843      2847      2849      2845      2843      2847      2850
      2845      2843      2847      2851      2846      2843      2847      2849
      2846      2843      2847      2850      2846      2843      2847      2851
      2849      2847      2851      2853      2849      2847      2851      2854
      2849      2847      2851      2855      2850      2847      2851      2853
      2850      2847      2851      2854      2850      2847      2851      2855
      2856      2860      2864      2866      2856      2860      2864      2867
      2856      2860      2864      2868      2858      2856      2860      2862
      2858      2856      2860      2863      2858      2856      2860      2864
      2859      2856      2860      2862      2859      2856      2860      2863
      2859      2856      2860      2864      2860      2864      2868      2870
      2860      2864      2868      2871      2860      2864      2868      2872
      2862      2860      2864      2866      2862      2860      2864      2867
      2862      2860      2864      2868      2863      2860      2864      2866
      2863      2860      2864      2867      2863      2860      2864      2868
      2864      2868      2872      2874      2864      2868      2872      2875
      2864      2868      2872      2876      2866      2864      2868      2870
      2866      2864      2868      2871      2866      2864      2868      2872
      2867      2864      2868      2870      2867      2864      2868      2871
      2867      2864      2868      2872      2868      2872      2876      2878
      2868      2872      2876      2879      2868      2872      2876      2880
      2870      2868      2872      2874      2870      2868      2872      2875
      2870      2868      2872      2876      2871      2868      2872      2874
      2871      2868      2872      2875      2871      2868      2872      2876
      2872      2876      2880      2882      2872      2876      2880      2883
      2872      2876      2880      2884      2874      2872      2876      2878
      2874      2872      2876      2879      2874      2872      2876      2880
      2875      2872      2876      2878      2875      2872      2876      2879
      2875      2872      2876      2880      2876      2880      2884      2886
      2876      2880      2884      2887      2876      2880      2884      2888
      2878      2876      2880      2882      2878      2876      2880      2883
      2878      2876      2880      2884      2879      2876      2880      2882
      2879      2876      2880      2883      2879      2876      2880      2884
      2880      2884      2888      2890      2880      2884      2888      2891
      2880      2884      2888      2892      2882      2880      2884      2886
      2882      2880      2884      2887      2882      2880      2884      2888
      2883      2880      2884      2886      2883      2880      2884      2887
      2883      2880      2884      2888      2884      2888      2892      2894
      2884      2888      2892      2895      2884      2888      2892      2896
      2886      2884      2888      2890      2886      2884      2888      2891
      2886      2884      2888      2892      2887      2884      2888      2890
      2887      2884      2888      2891      2887      2884      2888      2892
      2888      2892      2896      2898      2888      2892      2896      2899
      2888      2892      2896      2900      2890      2888      2892      2894
      2890      2888      2892      2895      2890      2888      2892      2896
      2891      2888      2892      2894      2891      2888      2892      2895
      2891      2888      2892      2896      2892      2896      2900      2902
      2892      2896      2900      2903      2892      2896      2900      2904
      2894      2892      2896      2898      2894      2892      2896      2899
      2894      2892      2896      2900      2895      2892      2896      2898
      2895      2892      2896      2899      2895      2892      2896      2900
      2896      2900      2904      2906      2896      2900      2904      2907
      2896      2900      2904      2908      2898      2896      2900      2902
      2898      2896      2900      2903      2898      2896      2900      2904
      2899      2896      2900      2902      2899      2896      2900      2903
      2899      2896      2900      2904      2900      2904      2908      2910
      2900      2904      2908      2911      2900      2904      2908      2912
      2902      2900      2904      2906      2902      2900      2904      2907
      2902      2900      2904      2908      2903      2900      2904      2906
      2903      2900      2904      2907      2903      2900      2904      2908
      2906      2904      2908      2910      2906      2904      2908      2911
      2906      2904      2908      2912      2907      2904      2908      2910
      2907      2904      2908      2911      2907      2904      2908      2912
      2913      2918      2922      2924      2913      2918      2922      2925
      2913      2918      2922      2934      2915      2913      2918      2920
      2915      2913      2918      2921      2915      2913      2918      2922
      2916      2913      2918      2920      2916      2913      2918      2921
      2916      2913      2918      2922      2917      2913      2918      2920
      2917      2913      2918      2921      2917      2913      2918      2922
      2918      2922      2934      2926      2920      2918      2922      2924
      2920      2918      2922      2925      2920      2918      2922      2934
      2921      2918      2922      2924      2921      2918      2922      2925
      2921      2918      2922      2934      2922      2934      2926      2928
      2922      2934      2926      2930      2922      2934      2926      2932
      2924      2922      2934      2926      2925      2922      2934      2926
      2926      2932      2936      2938      2926      2932      2936      2939
      2926      2932      2936      2940      2928      2926      2932      2936
      2930      2926      2932      2936      2932      2936      2940      2942
      2932      2936      2940      2943      2932      2936      2940      2957
      2934      2926      2932      2936      2936      2940      2943      2945
      2936      2940      2957      2959      2936      2940      2957      2960
      2936      2940      2957      2961      2938      2936      2940      2942
      2938      2936      2940      2943      2938      2936      2940      2957
      2939      2936      2940      2942      2939      2936      2940      2943
      2939      2936      2940      2957      2940      2943      2945      2947
      2940      2943      2945      2949      2940      2957      2961      2963
      2942      2940      2943      2945      2942      2940      2957      2959
      2942      2940      2957      2960      2942      2940      2957      2961
      2943      2940      2957      2959      2943      2940      2957      2960
      2943      2940      2957      2961      2943      2945      2949      2951
      2943      2945      2949      2952      2943      2945      2949      2975
      2945      2943      2940      2957      2945      2949      2975      2977
      2945      2949      2975      2978      2945      2949      2975      2979
      2947      2945      2949      2951      2947      2945      2949      2952
      2947      2945      2949      2975      2949      2975      2979      2981
      2949      2975      2979      2982      2949      2975      2979      2983
      2951      2949      2975      2977      2951      2949      2975      2978
      2951      2949      2975      2979      2952      2949      2975      2977
      2952      2949      2975      2978      2952      2949      2975      2979
      2957      2961      2963      2965      2957      2961      2963      2967
      2959      2957      2961      2963      2960      2957      2961      2963
      2961      2963      2967      2969      2961      2963      2967      2970
      2961      2963      2967      3038      2963      2967      3038      3040
      2963      2967      3038      3041      2963      2967      3038      3042
      2965      2963      2967      2969      2965      2963      2967      2970
      2965      2963      2967      3038      2967      3038      3042      3044
      2967      3038      3042      3045      2967      3038      3042      3046
      2969      2967      3038      3040      2969      2967      3038      3041
      2969      2967      3038      3042      2970      2967      3038      3040
      2970      2967      3038      3041      2970      2967      3038      3042
      2975      2979      2983      2985      2975      2979      2983      2986
      2975      2979      2983      2987      2977      2975      2979      2981
      2977      2975      2979      2982      2977      2975      2979      2983
      2978      2975      2979      2981      2978      2975      2979      2982
      2978      2975      2979      2983      2979      2983      2987      2989
      2979      2983      2987      2990      2979      2983      2987      2991
      2981      2979      2983      2985      2981      2979      2983      2986
      2981      2979      2983      2987      2982      2979      2983      2985
      2982      2979      2983      2986      2982      2979      2983      2987
      2983      2987      2991      2993      2983      2987      2991      2994
      2983      2987      2991      2995      2985      2983      2987      2989
      2985      2983      2987      2990      2985      2983      2987      2991
      2986      2983      2987      2989      2986      2983      2987      2990
      2986      2983      2987      2991      2987      2991      2995      2997
      2987      2991      2995      2998      2987      2991      2995      2999
      2989      2987      2991      2993      2989      2987      2991      2994
      2989      2987      2991      2995      2990      2987      2991      2993
      2990      2987      2991      2994      2990      2987      2991      2995
      2991      2995      2999      3001      2991      2995      2999      3002
      2993      2991      2995      2997      2993      2991      2995      2998
      2993      2991      2995      2999      2994      2991      2995      2997
      2994      2991      2995      2998      2994      2991      2995      2999
      2995      2999      3002      3004      2995      2999      3002      3005
      2997      2995      2999      3001      2997      2995      2999      3002
      2998      2995      2999      3001      2998      2995      2999      3002
      2999      3002      3005      3007      2999      3002      3005      3008
      2999      3002      3005      3009      3001      2999      3002      3004
      3001      2999      3002      3005      3002      3005      3009      3011
      3002      3005      3009      3012      3002      3005      3009      3013
      3004      3002      3005      3007      3004      3002      3005      3008
      3004      3002      3005      3009      3005      3009      3013      3015
      3005      3009      3013      3016      3005      3009      3013      3017
      3007      3005      3009      3011      3007      3005      3009      3012
      3007      3005      3009      3013      3008      3005      3009      3011
      3008      3005      3009      3012      3008      3005      3009      3013
      3009      3013      3017      3019      3009      3013      3017      3020
      3009      3013      3017      3021      3011      3009      3013      3015
      3011      3009      3013      3016      3011      3009      3013      3017
      3012      3009      3013      3015      3012      3009      3013      3016
      3012      3009      3013      3017      3013      3017      3021      3023
      3013      3017      3021      3024      3013      3017      3021      3025
      3015      3013      3017      3019      3015      3013      3017      3020
      3015      3013      3017      3021      3016      3013      3017      3019
      3016      3013      3017      3020      3016      3013      3017      3021
      3017      3021      3025      3027      3017      3021      3025      3028
      3017      3021      3025      3029      3019      3017      3021      3023
      3019      3017      3021      3024      3019      3017      3021      3025
      3020      3017      3021      3023      3020      3017      3021      3024
      3020      3017      3021      3025      3021      3025      3029      3031
      3021      3025      3029      3032      3021      3025      3029      3033
      3023      3021      3025      3027      3023      3021      3025      3028
      3023      3021      3025      3029      3024      3021      3025      3027
      3024      3021      3025      3028      3024      3021      3025      3029
      3025      3029      3033      3035      3025      3029      3033      3036
      3025      3029      3033      3037      3027      3025      3029      3031
      3027      3025      3029      3032      3027      3025      3029      3033
      3028      3025      3029      3031      3028      3025      3029      3032
      3028      3025      3029      3033      3031      3029      3033      3035
      3031      3029      3033      3036      3031      3029      3033      3037
      3032      3029      3033      3035      3032      3029      3033      3036
      3032      3029      3033      3037      3038      3042      3046      3048
      3038      3042      3046      3049      3038      3042      3046      3050
      3040      3038      3042      3044      3040      3038      3042      3045
      3040      3038      3042      3046      3041      3038      3042      3044
      3041      3038      3042      3045      3041      3038      3042      3046
      3042      3046      3050      3052      3042      3046      3050      3053
      3042      3046      3050      3054      3044      3042      3046      3048
      3044      3042      3046      3049      3044      3042      3046      3050
      3045      3042      3046      3048      3045      3042      3046      3049
      3045      3042      3046      3050      3046      3050      3054      3056
      3046      3050      3054      3057      3046      3050      3054      3058
      3048      3046      3050      3052      3048      3046      3050      3053
      3048      3046      3050      3054      3049      3046      3050      3052
      3049      3046      3050      3053      3049      3046      3050      3054
      3050      3054      3058      3060      3050      3054      3058      3061
      3050      3054      3058      3062      3052      3050      3054      3056
      3052      3050      3054      3057      3052      3050      3054      3058
      3053      3050      3054      3056      3053      3050      3054      3057
      3053      3050      3054      3058      3054      3058      3062      3064
      3054      3058      3062      3065      3054      3058      3062      3066
      3056      3054      3058      3060      3056      3054      3058      3061
      3056      3054      3058      3062      3057      3054      3058      3060
      3057      3054      3058      3061      3057      3054      3058      3062
      3058      3062      3066      3068      3058      3062      3066      3069
      3058      3062      3066      3070      3060      3058      3062      3064
      3060      3058      3062      3065      3060      3058      3062      3066
      3061      3058      3062      3064      3061      3058      3062      3065
      3061      3058      3062      3066      3062      3066      3070      3072
      3062      3066      3070      3073      3062      3066      3070      3074
      3064      3062      3066      3068      3064      3062      3066      3069
      3064      3062      3066      3070      3065      3062      3066      3068
      3065      3062      3066      3069      3065      3062      3066      3070
      3066      3070      3074      3076      3066      3070      3074      3077
      3066      3070      3074      3078      3068      3066      3070      3072
      3068      3066      3070      3073      3068      3066      3070      3074
      3069      3066      3070      3072      3069      3066      3070      3073
      3069      3066      3070      3074      3070      3074      3078      3080
      3070      3074      3078      3081      3070      3074      3078      3082
      3072      3070      3074      3076      3072      3070      3074      3077
      3072      3070      3074      3078      3073      3070      3074      3076
      3073      3070      3074      3077      3073      3070      3074      3078
      3074      3078      3082      3084      3074      3078      3082      3085
      3074      3078      3082      3086      3076      3074      3078      3080
      3076      3074      3078      3081      3076      3074      3078      3082
      3077      3074      3078      3080      3077      3074      3078      3081
      3077      3074      3078      3082      3078      3082      3086      3088
      3078      3082      3086      3089      3078      3082      3086      3090
      3080      3078      3082      3084      3080      3078      3082      3085
      3080      3078      3082      3086      3081      3078      3082      3084
      3081      3078      3082      3085      3081      3078      3082      3086
      3082      3086      3090      3092      3082      3086      3090      3093
      3082      3086      3090      3094      3084      3082      3086      3088
      3084      3082      3086      3089      3084      3082      3086      3090
      3085      3082      3086      3088      3085      3082      3086      3089
      3085      3082      3086      3090      3088      3086      3090      3092
      3088      3086      3090      3093      3088      3086      3090      3094
      3089      3086      3090      3092      3089      3086      3090      3093
      3089      3086      3090      3094      3095      3100      3104      3106
      3095      3100      3104      3107      3095      3100      3104      3116
      3097      3095      3100      3102      3097      3095      3100      3103
      3097      3095      3100      3104      3098      3095      3100      3102
      3098      3095      3100      3103      3098      3095      3100      3104
      3099      3095      3100      3102      3099      3095      3100      3103
      3099      3095      3100      3104      3100      3104      3116      3108
      3102      3100      3104      3106      3102      3100      3104      3107
      3102      3100      3104      3116      3103      3100      3104      3106
      3103      3100      3104      3107      3103      3100      3104      3116
      3104      3116      3108      3110      3104      3116      3108      3112
      3104      3116      3108      3114      3106      3104      3116      3108
      3107      3104      3116      3108      3108      3114      3118      3120
      3108      3114      3118      3121      3108      3114      3118      3122
      3110      3108      3114      3118      3112      3108      3114      3118
      3114      3118      3122      3124      3114      3118      3122      3125
      3114      3118      3122      3139      3116      3108      3114      3118
      3118      3122      3125      3127      3118      3122      3139      3141
      3118      3122      3139      3142      3118      3122      3139      3143
      3120      3118      3122      3124      3120      3118      3122      3125
      3120      3118      3122      3139      3121      3118      3122      3124
      3121      3118      3122      3125      3121      3118      3122      3139
      3122      3125      3127      3129      3122      3125      3127      3131
      3122      3139      3143      3145      3124      3122      3125      3127
      3124      3122      3139      3141      3124      3122      3139      3142
      3124      3122      3139      3143      3125      3122      3139      3141
      3125      3122      3139      3142      3125      3122      3139      3143
      3125      3127      3131      3133      3125      3127      3131      3134
      3125      3127      3131      3157      3127      3125      3122      3139
      3127      3131      3157      3159      3127      3131      3157      3160
      3127      3131      3157      3161      3129      3127      3131      3133
      3129      3127      3131      3134      3129      3127      3131      3157
      3131      3157      3161      3163      3131      3157      3161      3164
      3131      3157      3161      3165      3133      3131      3157      3159
      3133      3131      3157      3160      3133      3131      3157      3161
      3134      3131      3157      3159      3134      3131      3157      3160
      3134      3131      3157      3161      3139      3143      3145      3147
      3139      3143      3145      3149      3141      3139      3143      3145
      3142      3139      3143      3145      3143      3145      3149      3151
      3143      3145      3149      3152      3143      3145      3149      3220
      3145      3149      3220      3222      3145      3149      3220      3223
      3145      3149      3220      3224      3147      3145      3149      3151
      3147      3145      3149      3152      3147      3145      3149      3220
      3149      3220      3224      3226      3149      3220      3224      3227
      3149      3220      3224      3228      3151      3149      3220      3222
      3151      3149      3220      3223      3151      3149      3220      3224
      3152      3149      3220      3222      3152      3149      3220      3223
      3152      3149      3220      3224      3157      3161      3165      3167
      3157      3161      3165      3168      3157      3161      3165      3169
      3159      3157      3161      3163      3159      3157      3161      3164
      3159      3157      3161      3165      3160      3157      3161      3163
      3160      3157      3161      3164      3160      3157      3161      3165
      3161      3165      3169      3171      3161      3165      3169      3172
      3161      3165      3169      3173      3163      3161      3165      3167
      3163      3161      3165      3168      3163      3161      3165      3169
      3164      3161      3165      3167      3164      3161      3165      3168
      3164      3161      3165      3169      3165      3169      3173      3175
      3165      3169      3173      3176      3165      3169      3173      3177
      3167      3165      3169      3171      3167      3165      3169      3172
      3167      3165      3169      3173      3168      3165      3169      3171
      3168      3165      3169      3172      3168      3165      3169      3173
      3169      3173      3177      3179      3169      3173      3177      3180
      3169      3173      3177      3181      3171      3169      3173      3175
      3171      3169      3173      3176      3171      3169      3173      3177
      3172      3169      3173      3175      3172      3169      3173      3176
      3172      3169      3173      3177      3173      3177      3181      3183
      3173      3177      3181      3184      3175      3173      3177      3179
      3175      3173      3177      3180      3175      3173      3177      3181
      3176      3173      3177      3179      3176      3173      3177      3180
      3176      3173      3177      3181      3177      3181      3184      3186
      3177      3181      3184      3187      3179      3177      3181      3183
      3179      3177      3181      3184      3180      3177      3181      3183
      3180      3177      3181      3184      3181      3184      3187      3189
      3181      3184      3187      3190      3181      3184      3187      3191
      3183      3181      3184      3186      3183      3181      3184      3187
      3184      3187      3191      3193      3184      3187      3191      3194
      3184      3187      3191      3195      3186      3184      3187      3189
      3186      3184      3187      3190      3186      3184      3187      3191
      3187      3191      3195      3197      3187      3191      3195      3198
      3187      3191      3195      3199      3189      3187      3191      3193
      3189      3187      3191      3194      3189      3187      3191      3195
      3190      3187      3191      3193      3190      3187      3191      3194
      3190      3187      3191      3195      3191      3195      3199      3201
      3191      3195      3199      3202      3191      3195      3199      3203
      3193      3191      3195      3197      3193      3191      3195      3198
      3193      3191      3195      3199      3194      3191      3195      3197
      3194      3191      3195      3198      3194      3191      3195      3199
      3195      3199      3203      3205      3195      3199      3203      3206
      3195      3199      3203      3207      3197      3195      3199      3201
      3197      3195      3199      3202      3197      3195      3199      3203
      3198      3195      3199      3201      3198      3195      3199      3202
      3198      3195      3199      3203      3199      3203      3207      3209
      3199      3203      3207      3210      3199      3203      3207      3211
      3201      3199      3203      3205      3201      3199      3203      3206
      3201      3199      3203      3207      3202      3199      3203      3205
      3202      3199      3203      3206      3202      3199      3203      3207
      3203      3207      3211      3213      3203      3207      3211      3214
      3203      3207      3211      3215      3205      3203      3207      3209
      3205      3203      3207      3210      3205      3203      3207      3211
      3206      3203      3207      3209      3206      3203      3207      3210
      3206      3203      3207      3211      3207      3211      3215      3217
      3207      3211      3215      3218      3207      3211      3215      3219
      3209      3207      3211      3213      3209      3207      3211      3214
      3209      3207      3211      3215      3210      3207      3211      3213
      3210      3207      3211      3214      3210      3207      3211      3215
      3213      3211      3215      3217      3213      3211      3215      3218
      3213      3211      3215      3219      3214      3211      3215      3217
      3214      3211      3215      3218      3214      3211      3215      3219
      3220      3224      3228      3230      3220      3224      3228      3231
      3220      3224      3228      3232      3222      3220      3224      3226
      3222      3220      3224      3227      3222      3220      3224      3228
      3223      3220      3224      3226      3223      3220      3224      3227
      3223      3220      3224      3228      3224      3228      3232      3234
      3224      3228      3232      3235      3224      3228      3232      3236
      3226      3224      3228      3230      3226      3224      3228      3231
      3226      3224      3228      3232      3227      3224      3228      3230
      3227      3224      3228      3231      3227      3224      3228      3232
      3228      3232      3236      3238      3228      3232      3236      3239
      3228      3232      3236      3240      3230      3228      3232      3234
      3230      3228      3232      3235      3230      3228      3232      3236
      3231      3228      3232      3234      3231      3228      3232      3235
      3231      3228      3232      3236      3232      3236      3240      3242
      3232      3236      3240      3243      3232      3236      3240      3244
      3234      3232      3236      3238      3234      3232      3236      3239
      3234      3232      3236      3240      3235      3232      3236      3238
      3235      3232      3236      3239      3235      3232      3236      3240
      3236      3240      3244      3246      3236      3240      3244      3247
      3236      3240      3244      3248      3238      3236      3240      3242
      3238      3236      3240      3243      3238      3236      3240      3244
      3239      3236      3240      3242      3239      3236      3240      3243
      3239      3236      3240      3244      3240      3244      3248      3250
      3240      3244      3248      3251      3240      3244      3248      3252
      3242      3240      3244      3246      3242      3240      3244      3247
      3242      3240      3244      3248      3243      3240      3244      3246
      3243      3240      3244      3247      3243      3240      3244      3248
      3244      3248      3252      3254      3244      3248      3252      3255
      3244      3248      3252      3256      3246      3244      3248      3250
      3246      3244      3248      3251      3246      3244      3248      3252
      3247      3244      3248      3250      3247      3244      3248      3251
      3247      3244      3248      3252      3248      3252      3256      3258
      3248      3252      3256      3259      3248      3252      3256      3260
      3250      3248      3252      3254      3250      3248      3252      3255
      3250      3248      3252      3256      3251      3248      3252      3254
      3251      3248      3252      3255      3251      3248      3252      3256
      3252      3256      3260      3262      3252      3256      3260      3263
      3252      3256      3260      3264      3254      3252      3256      3258
      3254      3252      3256      3259      3254      3252      3256      3260
      3255      3252      3256      3258      3255      3252      3256      3259
      3255      3252      3256      3260      3256      3260      3264      3266
      3256      3260      3264      3267      3256      3260      3264      3268
      3258      3256      3260      3262      3258      3256      3260      3263
      3258      3256      3260      3264      3259      3256      3260      3262
      3259      3256      3260      3263      3259      3256      3260      3264
      3260      3264      3268      3270      3260      3264      3268      3271
      3260      3264      3268      3272      3262      3260      3264      3266
      3262      3260      3264      3267      3262      3260      3264      3268
      3263      3260      3264      3266      3263      3260      3264      3267
      3263      3260      3264      3268      3264      3268      3272      3274
      3264      3268      3272      3275      3264      3268      3272      3276
      3266      3264      3268      3270      3266      3264      3268      3271
      3266      3264      3268      3272      3267      3264      3268      3270
      3267      3264      3268      3271      3267      3264      3268      3272
      3270      3268      3272      3274      3270      3268      3272      3275
      3270      3268      3272      3276      3271      3268      3272      3274
      3271      3268      3272      3275      3271      3268      3272      3276
      3277      3282      3286      3288      3277      3282      3286      3289
      3277      3282      3286      3298      3279      3277      3282      3284
      3279      3277      3282      3285      3279      3277      3282      3286
      3280      3277      3282      3284      3280      3277      3282      3285
      3280      3277      3282      3286      3281      3277      3282      3284
      3281      3277      3282      3285      3281      3277      3282      3286
      3282      3286      3298      3290      3284      3282      3286      3288
      3284      3282      3286      3289      3284      3282      3286      3298
      3285      3282      3286      3288      3285      3282      3286      3289
      3285      3282      3286      3298      3286      3298      3290      3292
      3286      3298      3290      3294      3286      3298      3290      3296
      3288      3286      3298      3290      3289      3286      3298      3290
      3290      3296      3300      3302      3290      3296      3300      3303
      3290      3296      3300      3304      3292      3290      3296      3300
      3294      3290      3296      3300      3296      3300      3304      3306
      3296      3300      3304      3307      3296      3300      3304      3321
      3298      3290      3296      3300      3300      3304      3307      3309
      3300      3304      3321      3323      3300      3304      3321      3324
      3300      3304      3321      3325      3302      3300      3304      3306
      3302      3300      3304      3307      3302      3300      3304      3321
      3303      3300      3304      3306      3303      3300      3304      3307
      3303      3300      3304      3321      3304      3307      3309      3311
      3304      3307      3309      3313      3304      3321      3325      3327
      3306      3304      3307      3309      3306      3304      3321      3323
      3306      3304      3321      3324      3306      3304      3321      3325
      3307      3304      3321      3323      3307      3304      3321      3324
      3307      3304      3321      3325      3307      3309      3313      3315
      3307      3309      3313      3316      3307      3309      3313      3339
      3309      3307      3304      3321      3309      3313      3339      3341
      3309      3313      3339      3342      3309      3313      3339      3343
      3311      3309      3313      3315      3311      3309      3313      3316
      3311      3309      3313      3339      3313      3339      3343      3345
      3313      3339      3343      3346      3313      3339      3343      3347
      3315      3313      3339      3341      3315      3313      3339      3342
      3315      3313      3339      3343      3316      3313      3339      3341
      3316      3313      3339      3342      3316      3313      3339      3343
      3321      3325      3327      3329      3321      3325      3327      3331
      3323      3321      3325      3327      3324      3321      3325      3327
      3325      3327      3331      3333      3325      3327      3331      3334
      3325      3327      3331      3402      3327      3331      3402      3404
      3327      3331      3402      3405      3327      3331      3402      3406
      3329      3327      3331      3333      3329      3327      3331      3334
      3329      3327      3331      3402      3331      3402      3406      3408
      3331      3402      3406      3409      3331      3402      3406      3410
      3333      3331      3402      3404      3333      3331      3402      3405
      3333      3331      3402      3406      3334      3331      3402      3404
      3334      3331      3402      3405      3334      3331      3402      3406
      3339      3343      3347      3349      3339      3343      3347      3350
      3339      3343      3347      3351      3341      3339      3343      3345
      3341      3339      3343      3346      3341      3339      3343      3347
      3342      3339      3343      3345      3342      3339      3343      3346
      3342      3339      3343      3347      3343      3347      3351      3353
      3343      3347      3351      3354      3343      3347      3351      3355
      3345      3343      3347      3349      3345      3343      3347      3350
      3345      3343      3347      3351      3346      3343      3347      3349
      3346      3343      3347      3350      3346      3343      3347      3351
      3347      3351      3355      3357      3347      3351      3355      3358
      3347      3351      3355      3359      3349      3347      3351      3353
      3349      3347      3351      3354      3349      3347      3351      3355
      3350      3347      3351      3353      3350      3347      3351      3354
      3350      3347      3351      3355      3351      3355      3359      3361
      3351      3355      3359      3362      3351      3355      3359      3363
      3353      3351      3355      3357      3353      3351      3355      3358
      3353      3351      3355      3359      3354      3351      3355      3357
      3354      3351      3355      3358      3354      3351      3355      3359
      3355      3359      3363      3365      3355      3359      3363      3366
      3357      3355      3359      3361      3357      3355      3359      3362
      3357      3355      3359      3363      3358      3355      3359      3361
      3358      3355      3359      3362      3358      3355      3359      3363
      3359      3363      3366      3368      3359      3363      3366      3369
      3361      3359      3363      3365      3361      3359      3363      3366
      3362      3359      3363      3365      3362      3359      3363      3366
      3363      3366      3369      3371      3363      3366      3369      3372
      3363      3366      3369      3373      3365      3363      3366      3368
      3365      3363      3366      3369      3366      3369      3373      3375
      3366      3369      3373      3376      3366      3369      3373      3377
      3368      3366      3369      3371      3368      3366      3369      3372
      3368      3366      3369      3373      3369      3373      3377      3379
      3369      3373      3377      3380      3369      3373      3377      3381
      3371      3369      3373      3375      3371      3369      3373      3376
      3371      3369      3373      3377      3372      3369      3373      3375
      3372      3369      3373      3376      3372      3369      3373      3377
      3373      3377      3381      3383      3373      3377      3381      3384
      3373      3377      3381      3385      3375      3373      3377      3379
      3375      3373      3377      3380      3375      3373      3377      3381
      3376      3373      3377      3379      3376      3373      3377      3380
      3376      3373      3377      3381      3377      3381      3385      3387
      3377      3381      3385      3388      3377      3381      3385      3389
      3379      3377      3381      3383      3379      3377      3381      3384
      3379      3377      3381      3385      3380      3377      3381      3383
      3380      3377      3381      3384      3380      3377      3381      3385
      3381      3385      3389      3391      3381      3385      3389      3392
      3381      3385      3389      3393      3383      3381      3385      3387
      3383      3381      3385      3388      3383      3381      3385      3389
      3384      3381      3385      3387      3384      3381      3385      3388
      3384      3381      3385      3389      3385      3389      3393      3395
      3385      3389      3393      3396      3385      3389      3393      3397
      3387      3385      3389      3391      3387      3385      3389      3392
      3387      3385      3389      3393      3388      3385      3389      3391
      3388      3385      3389      3392      3388      3385      3389      3393
      3389      3393      3397      3399      3389      3393      3397      3400
      3389      3393      3397      3401      3391      3389      3393      3395
      3391      3389      3393      3396      3391      3389      3393      3397
      3392      3389      3393      3395      3392      3389      3393      3396
      3392      3389      3393      3397      3395      3393      3397      3399
      3395      3393      3397      3400      3395      3393      3397      3401
      3396      3393      3397      3399      3396      3393      3397      3400
      3396      3393      3397      3401      3402      3406      3410      3412
      3402      3406      3410      3413      3402      3406      3410      3414
      3404      3402      3406      3408      3404      3402      3406      3409
      3404      3402      3406      3410      3405      3402      3406      3408
      3405      3402      3406      3409      3405      3402      3406      3410
      3406      3410      3414      3416      3406      3410      3414      3417
      3406      3410      3414      3418      3408      3406      3410      3412
      3408      3406      3410      3413      3408      3406      3410      3414
      3409      3406      3410      3412      3409      3406      3410      3413
      3409      3406      3410      3414      3410      3414      3418      3420
      3410      3414      3418      3421      3410      3414      3418      3422
      3412      3410      3414      3416      3412      3410      3414      3417
      3412      3410      3414      3418      3413      3410      3414      3416
      3413      3410      3414      3417      3413      3410      3414      3418
      3414      3418      3422      3424      3414      3418      3422      3425
      3414      3418      3422      3426      3416      3414      3418      3420
      3416      3414      3418      3421      3416      3414      3418      3422
      3417      3414      3418      3420      3417      3414      3418      3421
      3417      3414      3418      3422      3418      3422      3426      3428
      3418      3422      3426      3429      3418      3422      3426      3430
      3420      3418      3422      3424      3420      3418      3422      3425
      3420      3418      3422      3426      3421      3418      3422      3424
      3421      3418      3422      3425      3421      3418      3422      3426
      3422      3426      3430      3432      3422      3426      3430      3433
      3422      3426      3430      3434      3424      3422      3426      3428
      3424      3422      3426      3429      3424      3422      3426      3430
      3425      3422      3426      3428      3425      3422      3426      3429
      3425      3422      3426      3430      3426      3430      3434      3436
      3426      3430      3434      3437      3426      3430      3434      3438
      3428      3426      3430      3432      3428      3426      3430      3433
      3428      3426      3430      3434      3429      3426      3430      3432
      3429      3426      3430      3433      3429      3426      3430      3434
      3430      3434      3438      3440      3430      3434      3438      3441
      3430      3434      3438      3442      3432      3430      3434      3436
      3432      3430      3434      3437      3432      3430      3434      3438
      3433      3430      3434      3436      3433      3430      3434      3437
      3433      3430      3434      3438      3434      3438      3442      3444
      3434      3438      3442      3445      3434      3438      3442      3446
      3436      3434      3438      3440      3436      3434      3438      3441
      3436      3434      3438      3442      3437      3434      3438      3440
      3437      3434      3438      3441      3437      3434      3438      3442
      3438      3442      3446      3448      3438      3442      3446      3449
      3438      3442      3446      3450      3440      3438      3442      3444
      3440      3438      3442      3445      3440      3438      3442      3446
      3441      3438      3442      3444      3441      3438      3442      3445
      3441      3438      3442      3446      3442      3446      3450      3452
      3442      3446      3450      3453      3442      3446      3450      3454
      3444      3442      3446      3448      3444      3442      3446      3449
      3444      3442      3446      3450      3445      3442      3446      3448
      3445      3442      3446      3449      3445      3442      3446      3450
      3446      3450      3454      3456      3446      3450      3454      3457
      3446      3450      3454      3458      3448      3446      3450      3452
      3448      3446      3450      3453      3448      3446      3450      3454
      3449      3446      3450      3452      3449      3446      3450      3453
      3449      3446      3450      3454      3452      3450      3454      3456
      3452      3450      3454      3457      3452      3450      3454      3458
      3453      3450      3454      3456      3453      3450      3454      3457
      3453      3450      3454      3458      3459      3464      3468      3470
      3459      3464      3468      3471      3459      3464      3468      3480
      3461      3459      3464      3466      3461      3459      3464      3467
      3461      3459      3464      3468      3462      3459      3464      3466
      3462      3459      3464      3467      3462      3459      3464      3468
      3463      3459      3464      3466      3463      3459      3464      3467
      3463      3459      3464      3468      3464      3468      3480      3472
      3466      3464      3468      3470      3466      3464      3468      3471
      3466      3464      3468      3480      3467      3464      3468      3470
      3467      3464      3468      3471      3467      3464      3468      3480
      3468      3480      3472      3474      3468      3480      3472      3476
      3468      3480      3472      3478      3470      3468      3480      3472
      3471      3468      3480      3472      3472      3478      3482      3484
      3472      3478      3482      3485      3472      3478      3482      3486
      3474      3472      3478      3482      3476      3472      3478      3482
      3478      3482      3486      3488      3478      3482      3486      3489
      3478      3482      3486      3503      3480      3472      3478      3482
      3482      3486      3489      3491      3482      3486      3503      3505
      3482      3486      3503      3506      3482      3486      3503      3507
      3484      3482      3486      3488      3484      3482      3486      3489
      3484      3482      3486      3503      3485      3482      3486      3488
      3485      3482      3486      3489      3485      3482      3486      3503
      3486      3489      3491      3493      3486      3489      3491      3495
      3486      3503      3507      3509      3488      3486      3489      3491
      3488      3486      3503      3505      3488      3486      3503      3506
      3488      3486      3503      3507      3489      3486      3503      3505
      3489      3486      3503      3506      3489      3486      3503      3507
      3489      3491      3495      3497      3489      3491      3495      3498
      3489      3491      3495      3521      3491      3489      3486      3503
      3491      3495      3521      3523      3491      3495      3521      3524
      3491      3495      3521      3525      3493      3491      3495      3497
      3493      3491      3495      3498      3493      3491      3495      3521
      3495      3521      3525      3527      3495      3521      3525      3528
      3495      3521      3525      3529      3497      3495      3521      3523
      3497      3495      3521      3524      3497      3495      3521      3525
      3498      3495      3521      3523      3498      3495      3521      3524
      3498      3495      3521      3525      3503      3507      3509      3511
      3503      3507      3509      3513      3505      3503      3507      3509
      3506      3503      3507      3509      3507      3509      3513      3515
      3507      3509      3513      3516      3507      3509      3513      3584
      3509      3513      3584      3586      3509      3513      3584      3587
      3509      3513      3584      3588      3511      3509      3513      3515
      3511      3509      3513      3516      3511      3509      3513      3584
      3513      3584      3588      3590      3513      3584      3588      3591
      3513      3584      3588      3592      3515      3513      3584      3586
      3515      3513      3584      3587      3515      3513      3584      3588
      3516      3513      3584      3586      3516      3513      3584      3587
      3516      3513      3584      3588      3521      3525      3529      3531
      3521      3525      3529      3532      3521      3525      3529      3533
      3523      3521      3525      3527      3523      3521      3525      3528
      3523      3521      3525      3529      3524      3521      3525      3527
      3524      3521      3525      3528      3524      3521      3525      3529
      3525      3529      3533      3535      3525      3529      3533      3536
      3525      3529      3533      3537      3527      3525      3529      3531
      3527      3525      3529      3532      3527      3525      3529      3533
      3528      3525      3529      3531      3528      3525      3529      3532
      3528      3525      3529      3533      3529      3533      3537      3539
      3529      3533      3537      3540      3529      3533      3537      3541
      3531      3529      3533      3535      3531      3529      3533      3536
      3531      3529      3533      3537      3532      3529      3533      3535
      3532      3529      3533      3536      3532      3529      3533      3537
      3533      3537      3541      3543      3533      3537      3541      3544
      3533      3537      3541      3545      3535      3533      3537      3539
      3535      3533      3537      3540      3535      3533      3537      3541
      3536      3533      3537      3539      3536      3533      3537      3540
      3536      3533      3537      3541      3537      3541      3545      3547
      3537      3541      3545      3548      3539      3537      3541      3543
      3539      3537      3541      3544      3539      3537      3541      3545
      3540      3537      3541      3543      3540      3537      3541      3544
      3540      3537      3541      3545      3541      3545      3548      3550
      3541      3545      3548      3551      3543      3541      3545      3547
      3543      3541      3545      3548      3544      3541      3545      3547
      3544      3541      3545      3548      3545      3548      3551      3553
      3545      3548      3551      3554      3545      3548      3551      3555
      3547      3545      3548      3550      3547      3545      3548      3551
      3548      3551      3555      3557      3548      3551      3555      3558
      3548      3551      3555      3559      3550      3548      3551      3553
      3550      3548      3551      3554      3550      3548      3551      3555
      3551      3555      3559      3561      3551      3555      3559      3562
      3551      3555      3559      3563      3553      3551      3555      3557
      3553      3551      3555      3558      3553      3551      3555      3559
      3554      3551      3555      3557      3554      3551      3555      3558
      3554      3551      3555      3559      3555      3559      3563      3565
      3555      3559      3563      3566      3555      3559      3563      3567
      3557      3555      3559      3561      3557      3555      3559      3562
      3557      3555      3559      3563      3558      3555      3559      3561
      3558      3555      3559      3562      3558      3555      3559      3563
      3559      3563      3567      3569      3559      3563      3567      3570
      3559      3563      3567      3571      3561      3559      3563      3565
      3561      3559      3563      3566      3561      3559      3563      3567
      3562      3559      3563      3565      3562      3559      3563      3566
      3562      3559      3563      3567      3563      3567      3571      3573
      3563      3567      3571      3574      3563      3567      3571      3575
      3565      3563      3567      3569      3565      3563      3567      3570
      3565      3563      3567      3571      3566      3563      3567      3569
      3566      3563      3567      3570      3566      3563      3567      3571
      3567      3571      3575      3577      3567      3571      3575      3578
      3567      3571      3575      3579      3569      3567      3571      3573
      3569      3567      3571      3574      3569      3567      3571      3575
      3570      3567      3571      3573      3570      3567      3571      3574
      3570      3567      3571      3575      3571      3575      3579      3581
      3571      3575      3579      3582      3571      3575      3579      3583
      3573      3571      3575      3577      3573      3571      3575      3578
      3573      3571      3575      3579      3574      3571      3575      3577
      3574      3571      3575      3578      3574      3571      3575      3579
      3577      3575      3579      3581      3577      3575      3579      3582
      3577      3575      3579      3583      3578      3575      3579      3581
      3578      3575      3579      3582      3578      3575      3579      3583
      3584      3588      3592      3594      3584      3588      3592      3595
      3584      3588      3592      3596      3586      3584      3588      3590
      3586      3584      3588      3591      3586      3584      3588      3592
      3587      3584      3588      3590      3587      3584      3588      3591
      3587      3584      3588      3592      3588      3592      3596      3598
      3588      3592      3596      3599      3588      3592      3596      3600
      3590      3588      3592      3594      3590      3588      3592      3595
      3590      3588      3592      3596      3591      3588      3592      3594
      3591      3588      3592      3595      3591      3588      3592      3596
      3592      3596      3600      3602      3592      3596      3600      3603
      3592      3596      3600      3604      3594      3592      3596      3598
      3594      3592      3596      3599      3594      3592      3596      3600
      3595      3592      3596      3598      3595      3592      3596      3599
      3595      3592      3596      3600      3596      3600      3604      3606
      3596      3600      3604      3607      3596      3600      3604      3608
      3598      3596      3600      3602      3598      3596      3600      3603
      3598      3596      3600      3604      3599      3596      3600      3602
      3599      3596      3600      3603      3599      3596      3600      3604
      3600      3604      3608      3610      3600      3604      3608      3611
      3600      3604      3608      3612      3602      3600      3604      3606
      3602      3600      3604      3607      3602      3600      3604      3608
      3603      3600      3604      3606      3603      3600      3604      3607
      3603      3600      3604      3608      3604      3608      3612      3614
      3604      3608      3612      3615      3604      3608      3612      3616
      3606      3604      3608      3610      3606      3604      3608      3611
      3606      3604      3608      3612      3607      3604      3608      3610
      3607      3604      3608      3611      3607      3604      3608      3612
      3608      3612      3616      3618      3608      3612      3616      3619
      3608      3612      3616      3620      3610      3608      3612      3614
      3610      3608      3612      3615      3610      3608      3612      3616
      3611      3608      3612      3614      3611      3608      3612      3615
      3611      3608      3612      3616      3612      3616      3620      3622
      3612      3616      3620      3623      3612      3616      3620      3624
      3614      3612      3616      3618      3614      3612      3616      3619
      3614      3612      3616      3620      3615      3612      3616      3618
      3615      3612      3616      3619      3615      3612      3616      3620
      3616      3620      3624      3626      3616      3620      3624      3627
      3616      3620      3624      3628      3618      3616      3620      3622
      3618      3616      3620      3623      3618      3616      3620      3624
      3619      3616      3620      3622      3619      3616      3620      3623
      3619      3616      3620      3624      3620      3624      3628      3630
      3620      3624      3628      3631      3620      3624      3628      3632
      3622      3620      3624      3626      3622      3620      3624      3627
      3622      3620      3624      3628      3623      3620      3624      3626
      3623      3620      3624      3627      3623      3620      3624      3628
      3624      3628      3632      3634      3624      3628      3632      3635
      3624      3628      3632      3636      3626      3624      3628      3630
      3626      3624      3628      3631      3626      3624      3628      3632
      3627      3624      3628      3630      3627      3624      3628      3631
      3627      3624      3628      3632      3628      3632      3636      3638
      3628      3632      3636      3639      3628      3632      3636      3640
      3630      3628      3632      3634      3630      3628      3632      3635
      3630      3628      3632      3636      3631      3628      3632      3634
      3631      3628      3632      3635      3631      3628      3632      3636
      3634      3632      3636      3638      3634      3632      3636      3639
      3634      3632      3636      3640      3635      3632      3636      3638
      3635      3632      3636      3639      3635      3632      3636      3640
      3641      3646      3650      3652      3641      3646      3650      3653
      3641      3646      3650      3662      3643      3641      3646      3648
      3643      3641      3646      3649      3643      3641      3646      3650
      3644      3641      3646      3648      3644      3641      3646      3649
      3644      3641      3646      3650      3645      3641      3646      3648
      3645      3641      3646      3649      3645      3641      3646      3650
      3646      3650      3662      3654      3648      3646      3650      3652
      3648      3646      3650      3653      3648      3646      3650      3662
      3649      3646      3650      3652      3649      3646      3650      3653
      3649      3646      3650      3662      3650      3662      3654      3656
      3650      3662      3654      3658      3650      3662      3654      3660
      3652      3650      3662      3654      3653      3650      3662      3654
      3654      3660      3664      3666      3654      3660      3664      3667
      3654      3660      3664      3668      3656      3654      3660      3664
      3658      3654      3660      3664      3660      3664      3668      3670
      3660      3664      3668      3671      3660      3664      3668      3685
      3662      3654      3660      3664      3664      3668      3671      3673
      3664      3668      3685      3687      3664      3668      3685      3688
      3664      3668      3685      3689      3666      3664      3668      3670
      3666      3664      3668      3671      3666      3664      3668      3685
      3667      3664      3668      3670      3667      3664      3668      3671
      3667      3664      3668      3685      3668      3671      3673      3675
      3668      3671      3673      3677      3668      3685      3689      3691
      3670      3668      3671      3673      3670      3668      3685      3687
      3670      3668      3685      3688      3670      3668      3685      3689
      3671      3668      3685      3687      3671      3668      3685      3688
      3671      3668      3685      3689      3671      3673      3677      3679
      3671      3673      3677      3680      3671      3673      3677      3703
      3673      3671      3668      3685      3673      3677      3703      3705
      3673      3677      3703      3706      3673      3677      3703      3707
      3675      3673      3677      3679      3675      3673      3677      3680
      3675      3673      3677      3703      3677      3703      3707      3709
      3677      3703      3707      3710      3677      3703      3707      3711
      3679      3677      3703      3705      3679      3677      3703      3706
      3679      3677      3703      3707      3680      3677      3703      3705
      3680      3677      3703      3706      3680      3677      3703      3707
      3685      3689      3691      3693      3685      3689      3691      3695
      3687      3685      3689      3691      3688      3685      3689      3691
      3689      3691      3695      3697      3689      3691      3695      3698
      3689      3691      3695      3766      3691      3695      3766      3768
      3691      3695      3766      3769      3691      3695      3766      3770
      3693      3691      3695      3697      3693      3691      3695      3698
      3693      3691      3695      3766      3695      3766      3770      3772
      3695      3766      3770      3773      3695      3766      3770      3774
      3697      3695      3766      3768      3697      3695      3766      3769
      3697      3695      3766      3770      3698      3695      3766      3768
      3698      3695      3766      3769      3698      3695      3766      3770
      3703      3707      3711      3713      3703      3707      3711      3714
      3703      3707      3711      3715      3705      3703      3707      3709
      3705      3703      3707      3710      3705      3703      3707      3711
      3706      3703      3707      3709      3706      3703      3707      3710
      3706      3703      3707      3711      3707      3711      3715      3717
      3707      3711      3715      3718      3707      3711      3715      3719
      3709      3707      3711      3713      3709      3707      3711      3714
      3709      3707      3711      3715      3710      3707      3711      3713
      3710      3707      3711      3714      3710      3707      3711      3715
      3711      3715      3719      3721      3711      3715      3719      3722
      3711      3715      3719      3723      3713      3711      3715      3717
      3713      3711      3715      3718      3713      3711      3715      3719
      3714      3711      3715      3717      3714      3711      3715      3718
      3714      3711      3715      3719      3715      3719      3723      3725
      3715      3719      3723      3726      3715      3719      3723      3727
      3717      3715      3719      3721      3717      3715      3719      3722
      3717      3715      3719      3723      3718      3715      3719      3721
      3718      3715      3719      3722      3718      3715      3719      3723
      3719      3723      3727      3729      3719      3723      3727      3730
      3721      3719      3723      3725      3721      3719      3723      3726
      3721      3719      3723      3727      3722      3719      3723      3725
      3722      3719      3723      3726      3722      3719      3723      3727
      3723      3727      3730      3732      3723      3727      3730      3733
      3725      3723      3727      3729      3725      3723      3727      3730
      3726      3723      3727      3729      3726      3723      3727      3730
      3727      3730      3733      3735      3727      3730      3733      3736
      3727      3730      3733      3737      3729      3727      3730      3732
      3729      3727      3730      3733      3730      3733      3737      3739
      3730      3733      3737      3740      3730      3733      3737      3741
      3732      3730      3733      3735      3732      3730      3733      3736
      3732      3730      3733      3737      3733      3737      3741      3743
      3733      3737      3741      3744      3733      3737      3741      3745
      3735      3733      3737      3739      3735      3733      3737      3740
      3735      3733      3737      3741      3736      3733      3737      3739
      3736      3733      3737      3740      3736      3733      3737      3741
      3737      3741      3745      3747      3737      3741      3745      3748
      3737      3741      3745      3749      3739      3737      3741      3743
      3739      3737      3741      3744      3739      3737      3741      3745
      3740      3737      3741      3743      3740      3737      3741      3744
      3740      3737      3741      3745      3741      3745      3749      3751
      3741      3745      3749      3752      3741      3745      3749      3753
      3743      3741      3745      3747      3743      3741      3745      3748
      3743      3741      3745      3749      3744      3741      3745      3747
      3744      3741      3745      3748      3744      3741      3745      3749
      3745      3749      3753      3755      3745      3749      3753      3756
      3745      3749      3753      3757      3747      3745      3749      3751
      3747      3745      3749      3752      3747      3745      3749      3753
      3748      3745      3749      3751      3748      3745      3749      3752
      3748      3745      3749      3753      3749      3753      3757      3759
      3749      3753      3757      3760      3749      3753      3757      3761
      3751      3749      3753      3755      3751      3749      3753      3756
      3751      3749      3753      3757      3752      3749      3753      3755
      3752      3749      3753      3756      3752      3749      3753      3757
      3753      3757      3761      3763      3753      3757      3761      3764
      3753      3757      3761      3765      3755      3753      3757      3759
      3755      3753      3757      3760      3755      3753      3757      3761
      3756      3753      3757      3759      3756      3753      3757      3760
      3756      3753      3757      3761      3759      3757      3761      3763
      3759      3757      3761      3764      3759      3757      3761      3765
      3760      3757      3761      3763      3760      3757      3761      3764
      3760      3757      3761      3765      3766      3770      3774      3776
      3766      3770      3774      3777      3766      3770      3774      3778
      3768      3766      3770      3772      3768      3766      3770      3773
      3768      3766      3770      3774      3769      3766      3770      3772
      3769      3766      3770      3773      3769      3766      3770      3774
      3770      3774      3778      3780      3770      3774      3778      3781
      3770      3774      3778      3782      3772      3770      3774      3776
      3772      3770      3774      3777      3772      3770      3774      3778
      3773      3770      3774      3776      3773      3770      3774      3777
      3773      3770      3774      3778      3774      3778      3782      3784
      3774      3778      3782      3785      3774      3778      3782      3786
      3776      3774      3778      3780      3776      3774      3778      3781
      3776      3774      3778      3782      3777      3774      3778      3780
      3777      3774      3778      3781      3777      3774      3778      3782
      3778      3782      3786      3788      3778      3782      3786      3789
      3778      3782      3786      3790      3780      3778      3782      3784
      3780      3778      3782      3785      3780      3778      3782      3786
      3781      3778      3782      3784      3781      3778      3782      3785
      3781      3778      3782      3786      3782      3786      3790      3792
      3782      3786      3790      3793      3782      3786      3790      3794
      3784      3782      3786      3788      3784      3782      3786      3789
      3784      3782      3786      3790      3785      3782      3786      3788
      3785      3782      3786      3789      3785      3782      3786      3790
      3786      3790      3794      3796      3786      3790      3794      3797
      3786      3790      3794      3798      3788      3786      3790      3792
      3788      3786      3790      3793      3788      3786      3790      3794
      3789      3786      3790      3792      3789      3786      3790      3793
      3789      3786      3790      3794      3790      3794      3798      3800
      3790      3794      3798      3801      3790      3794      3798      3802
      3792      3790      3794      3796      3792      3790      3794      3797
      3792      3790      3794      3798      3793      3790      3794      3796
      3793      3790      3794      3797      3793      3790      3794      3798
      3794      3798      3802      3804      3794      3798      3802      3805
      3794      3798      3802      3806      3796      3794      3798      3800
      3796      3794      3798      3801      3796      3794      3798      3802
      3797      3794      3798      3800      3797      3794      3798      3801
      3797      3794      3798      3802      3798      3802      3806      3808
      3798      3802      3806      3809      3798      3802      3806      3810
      3800      3798      3802      3804      3800      3798      3802      3805
      3800      3798      3802      3806      3801      3798      3802      3804
      3801      3798      3802      3805      3801      3798      3802      3806
      3802      3806      3810      3812      3802      3806      3810      3813
      3802      3806      3810      3814      3804      3802      3806      3808
      3804      3802      3806      3809      3804      3802      3806      3810
      3805      3802      3806      3808      3805      3802      3806      3809
      3805      3802      3806      3810      3806      3810      3814      3816
      3806      3810      3814      3817      3806      3810      3814      3818
      3808      3806      3810      3812      3808      3806      3810      3813
      3808      3806      3810      3814      3809      3806      3810      3812
      3809      3806      3810      3813      3809      3806      3810      3814
      3810      3814      3818      3820      3810      3814      3818      3821
      3810      3814      3818      3822      3812      3810      3814      3816
      3812      3810      3814      3817      3812      3810      3814      3818
      3813      3810      3814      3816      3813      3810      3814      3817
      3813      3810      3814      3818      3816      3814      3818      3820
      3816      3814      3818      3821      3816      3814      3818      3822
      3817      3814      3818      3820      3817      3814      3818      3821
      3817      3814      3818      3822      3823      3828      3832      3834
      3823      3828      3832      3835      3823      3828      3832      3844
      3825      3823      3828      3830      3825      3823      3828      3831
      3825      3823      3828      3832      3826      3823      3828      3830
      3826      3823      3828      3831      3826      3823      3828      3832
      3827      3823      3828      3830      3827      3823      3828      3831
      3827      3823      3828      3832      3828      3832      3844      3836
      3830      3828      3832      3834      3830      3828      3832      3835
      3830      3828      3832      3844      3831      3828      3832      3834
      3831      3828      3832      3835      3831      3828      3832      3844
      3832      3844      3836      3838      3832      3844      3836      3840
      3832      3844      3836      3842      3834      3832      3844      3836
      3835      3832      3844      3836      3836      3842      3846      3848
      3836      3842      3846      3849      3836      3842      3846      3850
      3838      3836      3842      3846      3840      3836      3842      3846
      3842      3846      3850      3852      3842      3846      3850      3853
      3842      3846      3850      3867      3844      3836      3842      3846
      3846      3850      3853      3855      3846      3850      3867      3869
      3846      3850      3867      3870      3846      3850      3867      3871
      3848      3846      3850      3852      3848      3846      3850      3853
      3848      3846      3850      3867      3849      3846      3850      3852
      3849      3846      3850      3853      3849      3846      3850      3867
      3850      3853      3855      3857      3850      3853      3855      3859
      3850      3867      3871      3873      3852      3850      3853      3855
      3852      3850      3867      3869      3852      3850      3867      3870
      3852      3850      3867      3871      3853      3850      3867      3869
      3853      3850      3867      3870      3853      3850      3867      3871
      3853      3855      3859      3861      3853      3855      3859      3862
      3853      3855      3859      3885      3855      3853      3850      3867
      3855      3859      3885      3887      3855      3859      3885      3888
      3855      3859      3885      3889      3857      3855      3859      3861
      3857      3855      3859      3862      3857      3855      3859      3885
      3859      3885      3889      3891      3859      3885      3889      3892
      3859      3885      3889      3893      3861      3859      3885      3887
      3861      3859      3885      3888      3861      3859      3885      3889
      3862      3859      3885      3887      3862      3859      3885      3888
      3862      3859      3885      3889      3867      3871      3873      3875
      3867      3871      3873      3877      3869      3867      3871      3873
      3870      3867      3871      3873      3871      3873      3877      3879
      3871      3873      3877      3880      3871      3873      3877      3948
      3873      3877      3948      3950      3873      3877      3948      3951
      3873      3877      3948      3952      3875      3873      3877      3879
      3875      3873      3877      3880      3875      3873      3877      3948
      3877      3948      3952      3954      3877      3948      3952      3955
      3877      3948      3952      3956      3879      3877      3948      3950
      3879      3877      3948      3951      3879      3877      3948      3952
      3880      3877      3948      3950      3880      3877      3948      3951
      3880      3877      3948      3952      3885      3889      3893      3895
      3885      3889      3893      3896      3885      3889      3893      3897
      3887      3885      3889      3891      3887      3885      3889      3892
      3887      3885      3889      3893      3888      3885      3889      3891
      3888      3885      3889      3892      3888      3885      3889      3893
      3889      3893      3897      3899      3889      3893      3897      3900
      3889      3893      3897      3901      3891      3889      3893      3895
      3891      3889      3893      3896      3891      3889      3893      3897
      3892      3889      3893      3895      3892      3889      3893      3896
      3892      3889      3893      3897      3893      3897      3901      3903
      3893      3897      3901      3904      3893      3897      3901      3905
      3895      3893      3897      3899      3895      3893      3897      3900
      3895      3893      3897      3901      3896      3893      3897      3899
      3896      3893      3897      3900      3896      3893      3897      3901
      3897      3901      3905      3907      3897      3901      3905      3908
      3897      3901      3905      3909      3899      3897      3901      3903
      3899      3897      3901      3904      3899      3897      3901      3905
      3900      3897      3901      3903      3900      3897      3901      3904
      3900      3897      3901      3905      3901      3905      3909      3911
      3901      3905      3909      3912      3903      3901      3905      3907
      3903      3901      3905      3908      3903      3901      3905      3909
      3904      3901      3905      3907      3904      3901      3905      3908
      3904      3901      3905      3909      3905      3909      3912      3914
      3905      3909      3912      3915      3907      3905      3909      3911
      3907      3905      3909      3912      3908      3905      3909      3911
      3908      3905      3909      3912      3909      3912      3915      3917
      3909      3912      3915      3918      3909      3912      3915      3919
      3911      3909      3912      3914      3911      3909      3912      3915
      3912      3915      3919      3921      3912      3915      3919      3922
      3912      3915      3919      3923      3914      3912      3915      3917
      3914      3912      3915      3918      3914      3912      3915      3919
      3915      3919      3923      3925      3915      3919      3923      3926
      3915      3919      3923      3927      3917      3915      3919      3921
      3917      3915      3919      3922      3917      3915      3919      3923
      3918      3915      3919      3921      3918      3915      3919      3922
      3918      3915      3919      3923      3919      3923      3927      3929
      3919      3923      3927      3930      3919      3923      3927      3931
      3921      3919      3923      3925      3921      3919      3923      3926
      3921      3919      3923      3927      3922      3919      3923      3925
      3922      3919      3923      3926      3922      3919      3923      3927
      3923      3927      3931      3933      3923      3927      3931      3934
      3923      3927      3931      3935      3925      3923      3927      3929
      3925      3923      3927      3930      3925      3923      3927      3931
      3926      3923      3927      3929      3926      3923      3927      3930
      3926      3923      3927      3931      3927      3931      3935      3937
      3927      3931      3935      3938      3927      3931      3935      3939
      3929      3927      3931      3933      3929      3927      3931      3934
      3929      3927      3931      3935      3930      3927      3931      3933
      3930      3927      3931      3934      3930      3927      3931      3935
      3931      3935      3939      3941      3931      3935      3939      3942
      3931      3935      3939      3943      3933      3931      3935      3937
      3933      3931      3935      3938      3933      3931      3935      3939
      3934      3931      3935      3937      3934      3931      3935      3938
      3934      3931      3935      3939      3935      3939      3943      3945
      3935      3939      3943      3946      3935      3939      3943      3947
      3937      3935      3939      3941      3937      3935      3939      3942
      3937      3935      3939      3943      3938      3935      3939      3941
      3938      3935      3939      3942      3938      3935      3939      3943
      3941      3939      3943      3945      3941      3939      3943      3946
      3941      3939      3943      3947      3942      3939      3943      3945
      3942      3939      3943      3946      3942      3939      3943      3947
      3948      3952      3956      3958      3948      3952      3956      3959
      3948      3952      3956      3960      3950      3948      3952      3954
      3950      3948      3952      3955      3950      3948      3952      3956
      3951      3948      3952      3954      3951      3948      3952      3955
      3951      3948      3952      3956      3952      3956      3960      3962
      3952      3956      3960      3963      3952      3956      3960      3964
      3954      3952      3956      3958      3954      3952      3956      3959
      3954      3952      3956      3960      3955      3952      3956      3958
      3955      3952      3956      3959      3955      3952      3956      3960
      3956      3960      3964      3966      3956      3960      3964      3967
      3956      3960      3964      3968      3958      3956      3960      3962
      3958      3956      3960      3963      3958      3956      3960      3964
      3959      3956      3960      3962      3959      3956      3960      3963
      3959      3956      3960      3964      3960      3964      3968      3970
      3960      3964      3968      3971      3960      3964      3968      3972
      3962      3960      3964      3966      3962      3960      3964      3967
      3962      3960      3964      3968      3963      3960      3964      3966
      3963      3960      3964      3967      3963      3960      3964      3968
      3964      3968      3972      3974      3964      3968      3972      3975
      3964      3968      3972      3976      3966      3964      3968      3970
      3966      3964      3968      3971      3966      3964      3968      3972
      3967      3964      3968      3970      3967      3964      3968      3971
      3967      3964      3968      3972      3968      3972      3976      3978
      3968      3972      3976      3979      3968      3972      3976      3980
      3970      3968      3972      3974      3970      3968      3972      3975
      3970      3968      3972      3976      3971      3968      3972      3974
      3971      3968      3972      3975      3971      3968      3972      3976
      3972      3976      3980      3982      3972      3976      3980      3983
      3972      3976      3980      3984      3974      3972      3976      3978
      3974      3972      3976      3979      3974      3972      3976      3980
      3975      3972      3976      3978      3975      3972      3976      3979
      3975      3972      3976      3980      3976      3980      3984      3986
      3976      3980      3984      3987      3976      3980      3984      3988
      3978      3976      3980      3982      3978      3976      3980      3983
      3978      3976      3980      3984      3979      3976      3980      3982
      3979      3976      3980      3983      3979      3976      3980      3984
      3980      3984      3988      3990      3980      3984      3988      3991
      3980      3984      3988      3992      3982      3980      3984      3986
      3982      3980      3984      3987      3982      3980      3984      3988
      3983      3980      3984      3986      3983      3980      3984      3987
      3983      3980      3984      3988      3984      3988      3992      3994
      3984      3988      3992      3995      3984      3988      3992      3996
      3986      3984      3988      3990      3986      3984      3988      3991
      3986      3984      3988      3992      3987      3984      3988      3990
      3987      3984      3988      3991      3987      3984      3988      3992
      3988      3992      3996      3998      3988      3992      3996      3999
      3988      3992      3996      4000      3990      3988      3992      3994
      3990      3988      3992      3995      3990      3988      3992      3996
      3991      3988      3992      3994      3991      3988      3992      3995
      3991      3988      3992      3996      3992      3996      4000      4002
      3992      3996      4000      4003      3992      3996      4000      4004
      3994      3992      3996      3998      3994      3992      3996      3999
      3994      3992      3996      4000      3995      3992      3996      3998
      3995      3992      3996      3999      3995      3992      3996      4000
      3998      3996      4000      4002      3998      3996      4000      4003
      3998      3996      4000      4004      3999      3996      4000      4002
      3999      3996      4000      4003      3999      3996      4000      4004
      4005      4010      4014      4016      4005      4010      4014      4017
      4005      4010      4014      4026      4007      4005      4010      4012
      4007      4005      4010      4013      4007      4005      4010      4014
      4008      4005      4010      4012      4008      4005      4010      4013
      4008      4005      4010      4014      4009      4005      4010      4012
      4009      4005      4010      4013      4009      4005      4010      4014
      4010      4014      4026      4018      4012      4010      4014      4016
      4012      4010      4014      4017      4012      4010      4014      4026
      4013      4010      4014      4016      4013      4010      4014      4017
      4013      4010      4014      4026      4014      4026      4018      4020
      4014      4026      4018      4022      4014      4026      4018      4024
      4016      4014      4026      4018      4017      4014      4026      4018
      4018      4024      4028      4030      4018      4024      4028      4031
      4018      4024      4028      4032      4020      4018      4024      4028
      4022      4018      4024      4028      4024      4028      4032      4034
      4024      4028      4032      4035      4024      4028      4032      4049
      4026      4018      4024      4028      4028      4032      4035      4037
      4028      4032      4049      4051      4028      4032      4049      4052
      4028      4032      4049      4053      4030      4028      4032      4034
      4030      4028      4032      4035      4030      4028      4032      4049
      4031      4028      4032      4034      4031      4028      4032      4035
      4031      4028      4032      4049      4032      4035      4037      4039
      4032      4035      4037      4041      4032      4049      4053      4055
      4034      4032      4035      4037      4034      4032      4049      4051
      4034      4032      4049      4052      4034      4032      4049      4053
      4035      4032      4049      4051      4035      4032      4049      4052
      4035      4032      4049      4053      4035      4037      4041      4043
      4035      4037      4041      4044      4035      4037      4041      4067
      4037      4035      4032      4049      4037      4041      4067      4069
      4037      4041      4067      4070      4037      4041      4067      4071
      4039      4037      4041      4043      4039      4037      4041      4044
      4039      4037      4041      4067      4041      4067      4071      4073
      4041      4067      4071      4074      4041      4067      4071      4075
      4043      4041      4067      4069      4043      4041      4067      4070
      4043      4041      4067      4071      4044      4041      4067      4069
      4044      4041      4067      4070      4044      4041      4067      4071
      4049      4053      4055      4057      4049      4053      4055      4059
      4051      4049      4053      4055      4052      4049      4053      4055
      4053      4055      4059      4061      4053      4055      4059      4062
      4053      4055      4059      4130      4055      4059      4130      4132
      4055      4059      4130      4133      4055      4059      4130      4134
      4057      4055      4059      4061      4057      4055      4059      4062
      4057      4055      4059      4130      4059      4130      4134      4136
      4059      4130      4134      4137      4059      4130      4134      4138
      4061      4059      4130      4132      4061      4059      4130      4133
      4061      4059      4130      4134      4062      4059      4130      4132
      4062      4059      4130      4133      4062      4059      4130      4134
      4067      4071      4075      4077      4067      4071      4075      4078
      4067      4071      4075      4079      4069      4067      4071      4073
      4069      4067      4071      4074      4069      4067      4071      4075
      4070      4067      4071      4073      4070      4067      4071      4074
      4070      4067      4071      4075      4071      4075      4079      4081
      4071      4075      4079      4082      4071      4075      4079      4083
      4073      4071      4075      4077      4073      4071      4075      4078
      4073      4071      4075      4079      4074      4071      4075      4077
      4074      4071      4075      4078      4074      4071      4075      4079
      4075      4079      4083      4085      4075      4079      4083      4086
      4075      4079      4083      4087      4077      4075      4079      4081
      4077      4075      4079      4082      4077      4075      4079      4083
      4078      4075      4079      4081      4078      4075      4079      4082
      4078      4075      4079      4083      4079      4083      4087      4089
      4079      4083      4087      4090      4079      4083      4087      4091
      4081      4079      4083      4085      4081      4079      4083      4086
      4081      4079      4083      4087      4082      4079      4083      4085
      4082      4079      4083      4086      4082      4079      4083      4087
      4083      4087      4091      4093      4083      4087      4091      4094
      4085      4083      4087      4089      4085      4083      4087      4090
      4085      4083      4087      4091      4086      4083      4087      4089
      4086      4083      4087      4090      4086      4083      4087      4091
      4087      4091      4094      4096      4087      4091      4094      4097
      4089      4087      4091      4093      4089      4087      4091      4094
      4090      4087      4091      4093      4090      4087      4091      4094
      4091      4094      4097      4099      4091      4094      4097      4100
      4091      4094      4097      4101      4093      4091      4094      4096
      4093      4091      4094      4097      4094      4097      4101      4103
      4094      4097      4101      4104      4094      4097      4101      4105
      4096      4094      4097      4099      4096      4094      4097      4100
      4096      4094      4097      4101      4097      4101      4105      4107
      4097      4101      4105      4108      4097      4101      4105      4109
      4099      4097      4101      4103      4099      4097      4101      4104
      4099      4097      4101      4105      4100      4097      4101      4103
      4100      4097      4101      4104      4100      4097      4101      4105
      4101      4105      4109      4111      4101      4105      4109      4112
      4101      4105      4109      4113      4103      4101      4105      4107
      4103      4101      4105      4108      4103      4101      4105      4109
      4104      4101      4105      4107      4104      4101      4105      4108
      4104      4101      4105      4109      4105      4109      4113      4115
      4105      4109      4113      4116      4105      4109      4113      4117
      4107      4105      4109      4111      4107      4105      4109      4112
      4107      4105      4109      4113      4108      4105      4109      4111
      4108      4105      4109      4112      4108      4105      4109      4113
      4109      4113      4117      4119      4109      4113      4117      4120
      4109      4113      4117      4121      4111      4109      4113      4115
      4111      4109      4113      4116      4111      4109      4113      4117
      4112      4109      4113      4115      4112      4109      4113      4116
      4112      4109      4113      4117      4113      4117      4121      4123
      4113      4117      4121      4124      4113      4117      4121      4125
      4115      4113      4117      4119      4115      4113      4117      4120
      4115      4113      4117      4121      4116      4113      4117      4119
      4116      4113      4117      4120      4116      4113      4117      4121
      4117      4121      4125      4127      4117      4121      4125      4128
      4117      4121      4125      4129      4119      4117      4121      4123
      4119      4117      4121      4124      4119      4117      4121      4125
      4120      4117      4121      4123      4120      4117      4121      4124
      4120      4117      4121      4125      4123      4121      4125      4127
      4123      4121      4125      4128      4123      4121      4125      4129
      4124      4121      4125      4127      4124      4121      4125      4128
      4124      4121      4125      4129      4130      4134      4138      4140
      4130      4134      4138      4141      4130      4134      4138      4142
      4132      4130      4134      4136      4132      4130      4134      4137
      4132      4130      4134      4138      4133      4130      4134      4136
      4133      4130      4134      4137      4133      4130      4134      4138
      4134      4138      4142      4144      4134      4138      4142      4145
      4134      4138      4142      4146      4136      4134      4138      4140
      4136      4134      4138      4141      4136      4134      4138      4142
      4137      4134      4138      4140      4137      4134      4138      4141
      4137      4134      4138      4142      4138      4142      4146      4148
      4138      4142      4146      4149      4138      4142      4146      4150
      4140      4138      4142      4144      4140      4138      4142      4145
      4140      4138      4142      4146      4141      4138      4142      4144
      4141      4138      4142      4145      4141      4138      4142      4146
      4142      4146      4150      4152      4142      4146      4150      4153
      4142      4146      4150      4154      4144      4142      4146      4148
      4144      4142      4146      4149      4144      4142      4146      4150
      4145      4142      4146      4148      4145      4142      4146      4149
      4145      4142      4146      4150      4146      4150      4154      4156
      4146      4150      4154      4157      4146      4150      4154      4158
      4148      4146      4150      4152      4148      4146      4150      4153
      4148      4146      4150      4154      4149      4146      4150      4152
      4149      4146      4150      4153      4149      4146      4150      4154
      4150      4154      4158      4160      4150      4154      4158      4161
      4150      4154      4158      4162      4152      4150      4154      4156
      4152      4150      4154      4157      4152      4150      4154      4158
      4153      4150      4154      4156      4153      4150      4154      4157
      4153      4150      4154      4158      4154      4158      4162      4164
      4154      4158      4162      4165      4154      4158      4162      4166
      4156      4154      4158      4160      4156      4154      4158      4161
      4156      4154      4158      4162      4157      4154      4158      4160
      4157      4154      4158      4161      4157      4154      4158      4162
      4158      4162      4166      4168      4158      4162      4166      4169
      4158      4162      4166      4170      4160      4158      4162      4164
      4160      4158      4162      4165      4160      4158      4162      4166
      4161      4158      4162      4164      4161      4158      4162      4165
      4161      4158      4162      4166      4162      4166      4170      4172
      4162      4166      4170      4173      4162      4166      4170      4174
      4164      4162      4166      4168      4164      4162      4166      4169
      4164      4162      4166      4170      4165      4162      4166      4168
      4165      4162      4166      4169      4165      4162      4166      4170
      4166      4170      4174      4176      4166      4170      4174      4177
      4166      4170      4174      4178      4168      4166      4170      4172
      4168      4166      4170      4173      4168      4166      4170      4174
      4169      4166      4170      4172      4169      4166      4170      4173
      4169      4166      4170      4174      4170      4174      4178      4180
      4170      4174      4178      4181      4170      4174      4178      4182
      4172      4170      4174      4176      4172      4170      4174      4177
      4172      4170      4174      4178      4173      4170      4174      4176
      4173      4170      4174      4177      4173      4170      4174      4178
      4174      4178      4182      4184      4174      4178      4182      4185
      4174      4178      4182      4186      4176      4174      4178      4180
      4176      4174      4178      4181      4176      4174      4178      4182
      4177      4174      4178      4180      4177      4174      4178      4181
      4177      4174      4178      4182      4180      4178      4182      4184
      4180      4178      4182      4185      4180      4178      4182      4186
      4181      4178      4182      4184      4181      4178      4182      4185
      4181      4178      4182      4186      4187      4192      4196      4198
      4187      4192      4196      4199      4187      4192      4196      4208
      4189      4187      4192      4194      4189      4187      4192      4195
      4189      4187      4192      4196      4190      4187      4192      4194
      4190      4187      4192      4195      4190      4187      4192      4196
      4191      4187      4192      4194      4191      4187      4192      4195
      4191      4187      4192      4196      4192      4196      4208      4200
      4194      4192      4196      4198      4194      4192      4196      4199
      4194      4192      4196      4208      4195      4192      4196      4198
      4195      4192      4196      4199      4195      4192      4196      4208
      4196      4208      4200      4202      4196      4208      4200      4204
      4196      4208      4200      4206      4198      4196      4208      4200
      4199      4196      4208      4200      4200      4206      4210      4212
      4200      4206      4210      4213      4200      4206      4210      4214
      4202      4200      4206      4210      4204      4200      4206      4210
      4206      4210      4214      4216      4206      4210      4214      4217
      4206      4210      4214      4231      4208      4200      4206      4210
      4210      4214      4217      4219      4210      4214      4231      4233
      4210      4214      4231      4234      4210      4214      4231      4235
      4212      4210      4214      4216      4212      4210      4214      4217
      4212      4210      4214      4231      4213      4210      4214      4216
      4213      4210      4214      4217      4213      4210      4214      4231
      4214      4217      4219      4221      4214      4217      4219      4223
      4214      4231      4235      4237      4216      4214      4217      4219
      4216      4214      4231      4233      4216      4214      4231      4234
      4216      4214      4231      4235      4217      4214      4231      4233
      4217      4214      4231      4234      4217      4214      4231      4235
      4217      4219      4223      4225      4217      4219      4223      4226
      4217      4219      4223      4249      4219      4217      4214      4231
      4219      4223      4249      4251      4219      4223      4249      4252
      4219      4223      4249      4253      4221      4219      4223      4225
      4221      4219      4223      4226      4221      4219      4223      4249
      4223      4249      4253      4255      4223      4249      4253      4256
      4223      4249      4253      4257      4225      4223      4249      4251
      4225      4223      4249      4252      4225      4223      4249      4253
      4226      4223      4249      4251      4226      4223      4249      4252
      4226      4223      4249      4253      4231      4235      4237      4239
      4231      4235      4237      4241      4233      4231      4235      4237
      4234      4231      4235      4237      4235      4237      4241      4243
      4235      4237      4241      4244      4235      4237      4241      4312
      4237      4241      4312      4314      4237      4241      4312      4315
      4237      4241      4312      4316      4239      4237      4241      4243
      4239      4237      4241      4244      4239      4237      4241      4312
      4241      4312      4316      4318      4241      4312      4316      4319
      4241      4312      4316      4320      4243      4241      4312      4314
      4243      4241      4312      4315      4243      4241      4312      4316
      4244      4241      4312      4314      4244      4241      4312      4315
      4244      4241      4312      4316      4249      4253      4257      4259
      4249      4253      4257      4260      4249      4253      4257      4261
      4251      4249      4253      4255      4251      4249      4253      4256
      4251      4249      4253      4257      4252      4249      4253      4255
      4252      4249      4253      4256      4252      4249      4253      4257
      4253      4257      4261      4263      4253      4257      4261      4264
      4253      4257      4261      4265      4255      4253      4257      4259
      4255      4253      4257      4260      4255      4253      4257      4261
      4256      4253      4257      4259      4256      4253      4257      4260
      4256      4253      4257      4261      4257      4261      4265      4267
      4257      4261      4265      4268      4257      4261      4265      4269
      4259      4257      4261      4263      4259      4257      4261      4264
      4259      4257      4261      4265      4260      4257      4261      4263
      4260      4257      4261      4264      4260      4257      4261      4265
      4261      4265      4269      4271      4261      4265      4269      4272
      4261      4265      4269      4273      4263      4261      4265      4267
      4263      4261      4265      4268      4263      4261      4265      4269
      4264      4261      4265      4267      4264      4261      4265      4268
      4264      4261      4265      4269      4265      4269      4273      4275
      4265      4269      4273      4276      4267      4265      4269      4271
      4267      4265      4269      4272      4267      4265      4269      4273
      4268      4265      4269      4271      4268      4265      4269      4272
      4268      4265      4269      4273      4269      4273      4276      4278
      4269      4273      4276      4279      4271      4269      4273      4275
      4271      4269      4273      4276      4272      4269      4273      4275
      4272      4269      4273      4276      4273      4276      4279      4281
      4273      4276      4279      4282      4273      4276      4279      4283
      4275      4273      4276      4278      4275      4273      4276      4279
      4276      4279      4283      4285      4276      4279      4283      4286
      4276      4279      4283      4287      4278      4276      4279      4281
      4278      4276      4279      4282      4278      4276      4279      4283
      4279      4283      4287      4289      4279      4283      4287      4290
      4279      4283      4287      4291      4281      4279      4283      4285
      4281      4279      4283      4286      4281      4279      4283      4287
      4282      4279      4283      4285      4282      4279      4283      4286
      4282      4279      4283      4287      4283      4287      4291      4293
      4283      4287      4291      4294      4283      4287      4291      4295
      4285      4283      4287      4289      4285      4283      4287      4290
      4285      4283      4287      4291      4286      4283      4287      4289
      4286      4283      4287      4290      4286      4283      4287      4291
      4287      4291      4295      4297      4287      4291      4295      4298
      4287      4291      4295      4299      4289      4287      4291      4293
      4289      4287      4291      4294      4289      4287      4291      4295
      4290      4287      4291      4293      4290      4287      4291      4294
      4290      4287      4291      4295      4291      4295      4299      4301
      4291      4295      4299      4302      4291      4295      4299      4303
      4293      4291      4295      4297      4293      4291      4295      4298
      4293      4291      4295      4299      4294      4291      4295      4297
      4294      4291      4295      4298      4294      4291      4295      4299
      4295      4299      4303      4305      4295      4299      4303      4306
      4295      4299      4303      4307      4297      4295      4299      4301
      4297      4295      4299      4302      4297      4295      4299      4303
      4298      4295      4299      4301      4298      4295      4299      4302
      4298      4295      4299      4303      4299      4303      4307      4309
      4299      4303      4307      4310      4299      4303      4307      4311
      4301      4299      4303      4305      4301      4299      4303      4306
      4301      4299      4303      4307      4302      4299      4303      4305
      4302      4299      4303      4306      4302      4299      4303      4307
      4305      4303      4307      4309      4305      4303      4307      4310
      4305      4303      4307      4311      4306      4303      4307      4309
      4306      4303      4307      4310      4306      4303      4307      4311
      4312      4316      4320      4322      4312      4316      4320      4323
      4312      4316      4320      4324      4314      4312      4316      4318
      4314      4312      4316      4319      4314      4312      4316      4320
      4315      4312      4316      4318      4315      4312      4316      4319
      4315      4312      4316      4320      4316      4320      4324      4326
      4316      4320      4324      4327      4316      4320      4324      4328
      4318      4316      4320      4322      4318      4316      4320      4323
      4318      4316      4320      4324      4319      4316      4320      4322
      4319      4316      4320      4323      4319      4316      4320      4324
      4320      4324      4328      4330      4320      4324      4328      4331
      4320      4324      4328      4332      4322      4320      4324      4326
      4322      4320      4324      4327      4322      4320      4324      4328
      4323      4320      4324      4326      4323      4320      4324      4327
      4323      4320      4324      4328      4324      4328      4332      4334
      4324      4328      4332      4335      4324      4328      4332      4336
      4326      4324      4328      4330      4326      4324      4328      4331
      4326      4324      4328      4332      4327      4324      4328      4330
      4327      4324      4328      4331      4327      4324      4328      4332
      4328      4332      4336      4338      4328      4332      4336      4339
      4328      4332      4336      4340      4330      4328      4332      4334
      4330      4328      4332      4335      4330      4328      4332      4336
      4331      4328      4332      4334      4331      4328      4332      4335
      4331      4328      4332      4336      4332      4336      4340      4342
      4332      4336      4340      4343      4332      4336      4340      4344
      4334      4332      4336      4338      4334      4332      4336      4339
      4334      4332      4336      4340      4335      4332      4336      4338
      4335      4332      4336      4339      4335      4332      4336      4340
      4336      4340      4344      4346      4336      4340      4344      4347
      4336      4340      4344      4348      4338      4336      4340      4342
      4338      4336      4340      4343      4338      4336      4340      4344
      4339      4336      4340      4342      4339      4336      4340      4343
      4339      4336      4340      4344      4340      4344      4348      4350
      4340      4344      4348      4351      4340      4344      4348      4352
      4342      4340      4344      4346      4342      4340      4344      4347
      4342      4340      4344      4348      4343      4340      4344      4346
      4343      4340      4344      4347      4343      4340      4344      4348
      4344      4348      4352      4354      4344      4348      4352      4355
      4344      4348      4352      4356      4346      4344      4348      4350
      4346      4344      4348      4351      4346      4344      4348      4352
      4347      4344      4348      4350      4347      4344      4348      4351
      4347      4344      4348      4352      4348      4352      4356      4358
      4348      4352      4356      4359      4348      4352      4356      4360
      4350      4348      4352      4354      4350      4348      4352      4355
      4350      4348      4352      4356      4351      4348      4352      4354
      4351      4348      4352      4355      4351      4348      4352      4356
      4352      4356      4360      4362      4352      4356      4360      4363
      4352      4356      4360      4364      4354      4352      4356      4358
      4354      4352      4356      4359      4354      4352      4356      4360
      4355      4352      4356      4358      4355      4352      4356      4359
      4355      4352      4356      4360      4356      4360      4364      4366
      4356      4360      4364      4367      4356      4360      4364      4368
      4358      4356      4360      4362      4358      4356      4360      4363
      4358      4356      4360      4364      4359      4356      4360      4362
      4359      4356      4360      4363      4359      4356      4360      4364
      4362      4360      4364      4366      4362      4360      4364      4367
      4362      4360      4364      4368      4363      4360      4364      4366
      4363      4360      4364      4367      4363      4360      4364      4368
      4369      4374      4378      4380      4369      4374      4378      4381
      4369      4374      4378      4390      4371      4369      4374      4376
      4371      4369      4374      4377      4371      4369      4374      4378
      4372      4369      4374      4376      4372      4369      4374      4377
      4372      4369      4374      4378      4373      4369      4374      4376
      4373      4369      4374      4377      4373      4369      4374      4378
      4374      4378      4390      4382      4376      4374      4378      4380
      4376      4374      4378      4381      4376      4374      4378      4390
      4377      4374      4378      4380      4377      4374      4378      4381
      4377      4374      4378      4390      4378      4390      4382      4384
      4378      4390      4382      4386      4378      4390      4382      4388
      4380      4378      4390      4382      4381      4378      4390      4382
      4382      4388      4392      4394      4382      4388      4392      4395
      4382      4388      4392      4396      4384      4382      4388      4392
      4386      4382      4388      4392      4388      4392      4396      4398
      4388      4392      4396      4399      4388      4392      4396      4413
      4390      4382      4388      4392      4392      4396      4399      4401
      4392      4396      4413      4415      4392      4396      4413      4416
      4392      4396      4413      4417      4394      4392      4396      4398
      4394      4392      4396      4399      4394      4392      4396      4413
      4395      4392      4396      4398      4395      4392      4396      4399
      4395      4392      4396      4413      4396      4399      4401      4403
      4396      4399      4401      4405      4396      4413      4417      4419
      4398      4396      4399      4401      4398      4396      4413      4415
      4398      4396      4413      4416      4398      4396      4413      4417
      4399      4396      4413      4415      4399      4396      4413      4416
      4399      4396      4413      4417      4399      4401      4405      4407
      4399      4401      4405      4408      4399      4401      4405      4431
      4401      4399      4396      4413      4401      4405      4431      4433
      4401      4405      4431      4434      4401      4405      4431      4435
      4403      4401      4405      4407      4403      4401      4405      4408
      4403      4401      4405      4431      4405      4431      4435      4437
      4405      4431      4435      4438      4405      4431      4435      4439
      4407      4405      4431      4433      4407      4405      4431      4434
      4407      4405      4431      4435      4408      4405      4431      4433
      4408      4405      4431      4434      4408      4405      4431      4435
      4413      4417      4419      4421      4413      4417      4419      4423
      4415      4413      4417      4419      4416      4413      4417      4419
      4417      4419      4423      4425      4417      4419      4423      4426
      4417      4419      4423      4494      4419      4423      4494      4496
      4419      4423      4494      4497      4419      4423      4494      4498
      4421      4419      4423      4425      4421      4419      4423      4426
      4421      4419      4423      4494      4423      4494      4498      4500
      4423      4494      4498      4501      4423      4494      4498      4502
      4425      4423      4494      4496      4425      4423      4494      4497
      4425      4423      4494      4498      4426      4423      4494      4496
      4426      4423      4494      4497      4426      4423      4494      4498
      4431      4435      4439      4441      4431      4435      4439      4442
      4431      4435      4439      4443      4433      4431      4435      4437
      4433      4431      4435      4438      4433      4431      4435      4439
      4434      4431      4435      4437      4434      4431      4435      4438
      4434      4431      4435      4439      4435      4439      4443      4445
      4435      4439      4443      4446      4435      4439      4443      4447
      4437      4435      4439      4441      4437      4435      4439      4442
      4437      4435      4439      4443      4438      4435      4439      4441
      4438      4435      4439      4442      4438      4435      4439      4443
      4439      4443      4447      4449      4439      4443      4447      4450
      4439      4443      4447      4451      4441      4439      4443      4445
      4441      4439      4443      4446      4441      4439      4443      4447
      4442      4439      4443      4445      4442      4439      4443      4446
      4442      4439      4443      4447      4443      4447      4451      4453
      4443      4447      4451      4454      4443      4447      4451      4455
      4445      4443      4447      4449      4445      4443      4447      4450
      4445      4443      4447      4451      4446      4443      4447      4449
      4446      4443      4447      4450      4446      4443      4447      4451
      4447      4451      4455      4457      4447      4451      4455      4458
      4449      4447      4451      4453      4449      4447      4451      4454
      4449      4447      4451      4455      4450      4447      4451      4453
      4450      4447      4451      4454      4450      4447      4451      4455
      4451      4455      4458      4460      4451      4455      4458      4461
      4453      4451      4455      4457      4453      4451      4455      4458
      4454      4451      4455      4457      4454      4451      4455      4458
      4455      4458      4461      4463      4455      4458      4461      4464
      4455      4458      4461      4465      4457      4455      4458      4460
      4457      4455      4458      4461      4458      4461      4465      4467
      4458      4461      4465      4468      4458      4461      4465      4469
      4460      4458      4461      4463      4460      4458      4461      4464
      4460      4458      4461      4465      4461      4465      4469      4471
      4461      4465      4469      4472      4461      4465      4469      4473
      4463      4461      4465      4467      4463      4461      4465      4468
      4463      4461      4465      4469      4464      4461      4465      4467
      4464      4461      4465      4468      4464      4461      4465      4469
      4465      4469      4473      4475      4465      4469      4473      4476
      4465      4469      4473      4477      4467      4465      4469      4471
      4467      4465      4469      4472      4467      4465      4469      4473
      4468      4465      4469      4471      4468      4465      4469      4472
      4468      4465      4469      4473      4469      4473      4477      4479
      4469      4473      4477      4480      4469      4473      4477      4481
      4471      4469      4473      4475      4471      4469      4473      4476
      4471      4469      4473      4477      4472      4469      4473      4475
      4472      4469      4473      4476      4472      4469      4473      4477
      4473      4477      4481      4483      4473      4477      4481      4484
      4473      4477      4481      4485      4475      4473      4477      4479
      4475      4473      4477      4480      4475      4473      4477      4481
      4476      4473      4477      4479      4476      4473      4477      4480
      4476      4473      4477      4481      4477      4481      4485      4487
      4477      4481      4485      4488      4477      4481      4485      4489
      4479      4477      4481      4483      4479      4477      4481      4484
      4479      4477      4481      4485      4480      4477      4481      4483
      4480      4477      4481      4484      4480      4477      4481      4485
      4481      4485      4489      4491      4481      4485      4489      4492
      4481      4485      4489      4493      4483      4481      4485      4487
      4483      4481      4485      4488      4483      4481      4485      4489
      4484      4481      4485      4487      4484      4481      4485      4488
      4484      4481      4485      4489      4487      4485      4489      4491
      4487      4485      4489      4492      4487      4485      4489      4493
      4488      4485      4489      4491      4488      4485      4489      4492
      4488      4485      4489      4493      4494      4498      4502      4504
      4494      4498      4502      4505      4494      4498      4502      4506
      4496      4494      4498      4500      4496      4494      4498      4501
      4496      4494      4498      4502      4497      4494      4498      4500
      4497      4494      4498      4501      4497      4494      4498      4502
      4498      4502      4506      4508      4498      4502      4506      4509
      4498      4502      4506      4510      4500      4498      4502      4504
      4500      4498      4502      4505      4500      4498      4502      4506
      4501      4498      4502      4504      4501      4498      4502      4505
      4501      4498      4502      4506      4502      4506      4510      4512
      4502      4506      4510      4513      4502      4506      4510      4514
      4504      4502      4506      4508      4504      4502      4506      4509
      4504      4502      4506      4510      4505      4502      4506      4508
      4505      4502      4506      4509      4505      4502      4506      4510
      4506      4510      4514      4516      4506      4510      4514      4517
      4506      4510      4514      4518      4508      4506      4510      4512
      4508      4506      4510      4513      4508      4506      4510      4514
      4509      4506      4510      4512      4509      4506      4510      4513
      4509      4506      4510      4514      4510      4514      4518      4520
      4510      4514      4518      4521      4510      4514      4518      4522
      4512      4510      4514      4516      4512      4510      4514      4517
      4512      4510      4514      4518      4513      4510      4514      4516
      4513      4510      4514      4517      4513      4510      4514      4518
      4514      4518      4522      4524      4514      4518      4522      4525
      4514      4518      4522      4526      4516      4514      4518      4520
      4516      4514      4518      4521      4516      4514      4518      4522
      4517      4514      4518      4520      4517      4514      4518      4521
      4517      4514      4518      4522      4518      4522      4526      4528
      4518      4522      4526      4529      4518      4522      4526      4530
      4520      4518      4522      4524      4520      4518      4522      4525
      4520      4518      4522      4526      4521      4518      4522      4524
      4521      4518      4522      4525      4521      4518      4522      4526
      4522      4526      4530      4532      4522      4526      4530      4533
      4522      4526      4530      4534      4524      4522      4526      4528
      4524      4522      4526      4529      4524      4522      4526      4530
      4525      4522      4526      4528      4525      4522      4526      4529
      4525      4522      4526      4530      4526      4530      4534      4536
      4526      4530      4534      4537      4526      4530      4534      4538
      4528      4526      4530      4532      4528      4526      4530      4533
      4528      4526      4530      4534      4529      4526      4530      4532
      4529      4526      4530      4533      4529      4526      4530      4534
      4530      4534      4538      4540      4530      4534      4538      4541
      4530      4534      4538      4542      4532      4530      4534      4536
      4532      4530      4534      4537      4532      4530      4534      4538
      4533      4530      4534      4536      4533      4530      4534      4537
      4533      4530      4534      4538      4534      4538      4542      4544
      4534      4538      4542      4545      4534      4538      4542      4546
      4536      4534      4538      4540      4536      4534      4538      4541
      4536      4534      4538      4542      4537      4534      4538      4540
      4537      4534      4538      4541      4537      4534      4538      4542
      4538      4542      4546      4548      4538      4542      4546      4549
      4538      4542      4546      4550      4540      4538      4542      4544
      4540      4538      4542      4545      4540      4538      4542      4546
      4541      4538      4542      4544      4541      4538      4542      4545
      4541      4538      4542      4546      4544      4542      4546      4548
      4544      4542      4546      4549      4544      4542      4546      4550
      4545      4542      4546      4548      4545      4542      4546      4549
      4545      4542      4546      4550      4551      4556      4560      4562
      4551      4556      4560      4563      4551      4556      4560      4572
      4553      4551      4556      4558      4553      4551      4556      4559
      4553      4551      4556      4560      4554      4551      4556      4558
      4554      4551      4556      4559      4554      4551      4556      4560
      4555      4551      4556      4558      4555      4551      4556      4559
      4555      4551      4556      4560      4556      4560      4572      4564
      4558      4556      4560      4562      4558      4556      4560      4563
      4558      4556      4560      4572      4559      4556      4560      4562
      4559      4556      4560      4563      4559      4556      4560      4572
      4560      4572      4564      4566      4560      4572      4564      4568
      4560      4572      4564      4570      4562      4560      4572      4564
      4563      4560      4572      4564      4564      4570      4574      4576
      4564      4570      4574      4577      4564      4570      4574      4578
      4566      4564      4570      4574      4568      4564      4570      4574
      4570      4574      4578      4580      4570      4574      4578      4581
      4570      4574      4578      4595      4572      4564      4570      4574
      4574      4578      4581      4583      4574      4578      4595      4597
      4574      4578      4595      4598      4574      4578      4595      4599
      4576      4574      4578      4580      4576      4574      4578      4581
      4576      4574      4578      4595      4577      4574      4578      4580
      4577      4574      4578      4581      4577      4574      4578      4595
      4578      4581      4583      4585      4578      4581      4583      4587
      4578      4595      4599      4601      4580      4578      4581      4583
      4580      4578      4595      4597      4580      4578      4595      4598
      4580      4578      4595      4599      4581      4578      4595      4597
      4581      4578      4595      4598      4581      4578      4595      4599
      4581      4583      4587      4589      4581      4583      4587      4590
      4581      4583      4587      4613      4583      4581      4578      4595
      4583      4587      4613      4615      4583      4587      4613      4616
      4583      4587      4613      4617      4585      4583      4587      4589
      4585      4583      4587      4590      4585      4583      4587      4613
      4587      4613      4617      4619      4587      4613      4617      4620
      4587      4613      4617      4621      4589      4587      4613      4615
      4589      4587      4613      4616      4589      4587      4613      4617
      4590      4587      4613      4615      4590      4587      4613      4616
      4590      4587      4613      4617      4595      4599      4601      4603
      4595      4599      4601      4605      4597      4595      4599      4601
      4598      4595      4599      4601      4599      4601      4605      4607
      4599      4601      4605      4608      4599      4601      4605      4676
      4601      4605      4676      4678      4601      4605      4676      4679
      4601      4605      4676      4680      4603      4601      4605      4607
      4603      4601      4605      4608      4603      4601      4605      4676
      4605      4676      4680      4682      4605      4676      4680      4683
      4605      4676      4680      4684      4607      4605      4676      4678
      4607      4605      4676      4679      4607      4605      4676      4680
      4608      4605      4676      4678      4608      4605      4676      4679
      4608      4605      4676      4680      4613      4617      4621      4623
      4613      4617      4621      4624      4613      4617      4621      4625
      4615      4613      4617      4619      4615      4613      4617      4620
      4615      4613      4617      4621      4616      4613      4617      4619
      4616      4613      4617      4620      4616      4613      4617      4621
      4617      4621      4625      4627      4617      4621      4625      4628
      4617      4621      4625      4629      4619      4617      4621      4623
      4619      4617      4621      4624      4619      4617      4621      4625
      4620      4617      4621      4623      4620      4617      4621      4624
      4620      4617      4621      4625      4621      4625      4629      4631
      4621      4625      4629      4632      4621      4625      4629      4633
      4623      4621      4625      4627      4623      4621      4625      4628
      4623      4621      4625      4629      4624      4621      4625      4627
      4624      4621      4625      4628      4624      4621      4625      4629
      4625      4629      4633      4635      4625      4629      4633      4636
      4625      4629      4633      4637      4627      4625      4629      4631
      4627      4625      4629      4632      4627      4625      4629      4633
      4628      4625      4629      4631      4628      4625      4629      4632
      4628      4625      4629      4633      4629      4633      4637      4639
      4629      4633      4637      4640      4631      4629      4633      4635
      4631      4629      4633      4636      4631      4629      4633      4637
      4632      4629      4633      4635      4632      4629      4633      4636
      4632      4629      4633      4637      4633      4637      4640      4642
      4633      4637      4640      4643      4635      4633      4637      4639
      4635      4633      4637      4640      4636      4633      4637      4639
      4636      4633      4637      4640      4637      4640      4643      4645
      4637      4640      4643      4646      4637      4640      4643      4647
      4639      4637      4640      4642      4639      4637      4640      4643
      4640      4643      4647      4649      4640      4643      4647      4650
      4640      4643      4647      4651      4642      4640      4643      4645
      4642      4640      4643      4646      4642      4640      4643      4647
      4643      4647      4651      4653      4643      4647      4651      4654
      4643      4647      4651      4655      4645      4643      4647      4649
      4645      4643      4647      4650      4645      4643      4647      4651
      4646      4643      4647      4649      4646      4643      4647      4650
      4646      4643      4647      4651      4647      4651      4655      4657
      4647      4651      4655      4658      4647      4651      4655      4659
      4649      4647      4651      4653      4649      4647      4651      4654
      4649      4647      4651      4655      4650      4647      4651      4653
      4650      4647      4651      4654      4650      4647      4651      4655
      4651      4655      4659      4661      4651      4655      4659      4662
      4651      4655      4659      4663      4653      4651      4655      4657
      4653      4651      4655      4658      4653      4651      4655      4659
      4654      4651      4655      4657      4654      4651      4655      4658
      4654      4651      4655      4659      4655      4659      4663      4665
      4655      4659      4663      4666      4655      4659      4663      4667
      4657      4655      4659      4661      4657      4655      4659      4662
      4657      4655      4659      4663      4658      4655      4659      4661
      4658      4655      4659      4662      4658      4655      4659      4663
      4659      4663      4667      4669      4659      4663      4667      4670
      4659      4663      4667      4671      4661      4659      4663      4665
      4661      4659      4663      4666      4661      4659      4663      4667
      4662      4659      4663      4665      4662      4659      4663      4666
      4662      4659      4663      4667      4663      4667      4671      4673
      4663      4667      4671      4674      4663      4667      4671      4675
      4665      4663      4667      4669      4665      4663      4667      4670
      4665      4663      4667      4671      4666      4663      4667      4669
      4666      4663      4667      4670      4666      4663      4667      4671
      4669      4667      4671      4673      4669      4667      4671      4674
      4669      4667      4671      4675      4670      4667      4671      4673
      4670      4667      4671      4674      4670      4667      4671      4675
      4676      4680      4684      4686      4676      4680      4684      4687
      4676      4680      4684      4688      4678      4676      4680      4682
      4678      4676      4680      4683      4678      4676      4680      4684
      4679      4676      4680      4682      4679      4676      4680      4683
      4679      4676      4680      4684      4680      4684      4688      4690
      4680      4684      4688      4691      4680      4684      4688      4692
      4682      4680      4684      4686      4682      4680      4684      4687
      4682      4680      4684      4688      4683      4680      4684      4686
      4683      4680      4684      4687      4683      4680      4684      4688
      4684      4688      4692      4694      4684      4688      4692      4695
      4684      4688      4692      4696      4686      4684      4688      4690
      4686      4684      4688      4691      4686      4684      4688      4692
      4687      4684      4688      4690      4687      4684      4688      4691
      4687      4684      4688      4692      4688      4692      4696      4698
      4688      4692      4696      4699      4688      4692      4696      4700
      4690      4688      4692      4694      4690      4688      4692      4695
      4690      4688      4692      4696      4691      4688      4692      4694
      4691      4688      4692      4695      4691      4688      4692      4696
      4692      4696      4700      4702      4692      4696      4700      4703
      4692      4696      4700      4704      4694      4692      4696      4698
      4694      4692      4696      4699      4694      4692      4696      4700
      4695      4692      4696      4698      4695      4692      4696      4699
      4695      4692      4696      4700      4696      4700      4704      4706
      4696      4700      4704      4707      4696      4700      4704      4708
      4698      4696      4700      4702      4698      4696      4700      4703
      4698      4696      4700      4704      4699      4696      4700      4702
      4699      4696      4700      4703      4699      4696      4700      4704
      4700      4704      4708      4710      4700      4704      4708      4711
      4700      4704      4708      4712      4702      4700      4704      4706
      4702      4700      4704      4707      4702      4700      4704      4708
      4703      4700      4704      4706      4703      4700      4704      4707
      4703      4700      4704      4708      4704      4708      4712      4714
      4704      4708      4712      4715      4704      4708      4712      4716
      4706      4704      4708      4710      4706      4704      4708      4711
      4706      4704      4708      4712      4707      4704      4708      4710
      4707      4704      4708      4711      4707      4704      4708      4712
      4708      4712      4716      4718      4708      4712      4716      4719
      4708      4712      4716      4720      4710      4708      4712      4714
      4710      4708      4712      4715      4710      4708      4712      4716
      4711      4708      4712      4714      4711      4708      4712      4715
      4711      4708      4712      4716      4712      4716      4720      4722
      4712      4716      4720      4723      4712      4716      4720      4724
      4714      4712      4716      4718      4714      4712      4716      4719
      4714      4712      4716      4720      4715      4712      4716      4718
      4715      4712      4716      4719      4715      4712      4716      4720
      4716      4720      4724      4726      4716      4720      4724      4727
      4716      4720      4724      4728      4718      4716      4720      4722
      4718      4716      4720      4723      4718      4716      4720      4724
      4719      4716      4720      4722      4719      4716      4720      4723
      4719      4716      4720      4724      4720      4724      4728      4730
      4720      4724      4728      4731      4720      4724      4728      4732
      4722      4720      4724      4726      4722      4720      4724      4727
      4722      4720      4724      4728      4723      4720      4724      4726
      4723      4720      4724      4727      4723      4720      4724      4728
      4726      4724      4728      4730      4726      4724      4728      4731
      4726      4724      4728      4732      4727      4724      4728      4730
      4727      4724      4728      4731      4727      4724      4728      4732
      4733      4738      4742      4744      4733      4738      4742      4745
      4733      4738      4742      4754      4735      4733      4738      4740
      4735      4733      4738      4741      4735      4733      4738      4742
      4736      4733      4738      4740      4736      4733      4738      4741
      4736      4733      4738      4742      4737      4733      4738      4740
      4737      4733      4738      4741      4737      4733      4738      4742
      4738      4742      4754      4746      4740      4738      4742      4744
      4740      4738      4742      4745      4740      4738      4742      4754
      4741      4738      4742      4744      4741      4738      4742      4745
      4741      4738      4742      4754      4742      4754      4746      4748
      4742      4754      4746      4750      4742      4754      4746      4752
      4744      4742      4754      4746      4745      4742      4754      4746
      4746      4752      4756      4758      4746      4752      4756      4759
      4746      4752      4756      4760      4748      4746      4752      4756
      4750      4746      4752      4756      4752      4756      4760      4762
      4752      4756      4760      4763      4752      4756      4760      4777
      4754      4746      4752      4756      4756      4760      4763      4765
      4756      4760      4777      4779      4756      4760      4777      4780
      4756      4760      4777      4781      4758      4756      4760      4762
      4758      4756      4760      4763      4758      4756      4760      4777
      4759      4756      4760      4762      4759      4756      4760      4763
      4759      4756      4760      4777      4760      4763      4765      4767
      4760      4763      4765      4769      4760      4777      4781      4783
      4762      4760      4763      4765      4762      4760      4777      4779
      4762      4760      4777      4780      4762      4760      4777      4781
      4763      4760      4777      4779      4763      4760      4777      4780
      4763      4760      4777      4781      4763      4765      4769      4771
      4763      4765      4769      4772      4763      4765      4769      4795
      4765      4763      4760      4777      4765      4769      4795      4797
      4765      4769      4795      4798      4765      4769      4795      4799
      4767      4765      4769      4771      4767      4765      4769      4772
      4767      4765      4769      4795      4769      4795      4799      4801
      4769      4795      4799      4802      4769      4795      4799      4803
      4771      4769      4795      4797      4771      4769      4795      4798
      4771      4769      4795      4799      4772      4769      4795      4797
      4772      4769      4795      4798      4772      4769      4795      4799
      4777      4781      4783      4785      4777      4781      4783      4787
      4779      4777      4781      4783      4780      4777      4781      4783
      4781      4783      4787      4789      4781      4783      4787      4790
      4781      4783      4787      4858      4783      4787      4858      4860
      4783      4787      4858      4861      4783      4787      4858      4862
      4785      4783      4787      4789      4785      4783      4787      4790
      4785      4783      4787      4858      4787      4858      4862      4864
      4787      4858      4862      4865      4787      4858      4862      4866
      4789      4787      4858      4860      4789      4787      4858      4861
      4789      4787      4858      4862      4790      4787      4858      4860
      4790      4787      4858      4861      4790      4787      4858      4862
      4795      4799      4803      4805      4795      4799      4803      4806
      4795      4799      4803      4807      4797      4795      4799      4801
      4797      4795      4799      4802      4797      4795      4799      4803
      4798      4795      4799      4801      4798      4795      4799      4802
      4798      4795      4799      4803      4799      4803      4807      4809
      4799      4803      4807      4810      4799      4803      4807      4811
      4801      4799      4803      4805      4801      4799      4803      4806
      4801      4799      4803      4807      4802      4799      4803      4805
      4802      4799      4803      4806      4802      4799      4803      4807
      4803      4807      4811      4813      4803      4807      4811      4814
      4803      4807      4811      4815      4805      4803      4807      4809
      4805      4803      4807      4810      4805      4803      4807      4811
      4806      4803      4807      4809      4806      4803      4807      4810
      4806      4803      4807      4811      4807      4811      4815      4817
      4807      4811      4815      4818      4807      4811      4815      4819
      4809      4807      4811      4813      4809      4807      4811      4814
      4809      4807      4811      4815      4810      4807      4811      4813
      4810      4807      4811      4814      4810      4807      4811      4815
      4811      4815      4819      4821      4811      4815      4819      4822
      4813      4811      4815      4817      4813      4811      4815      4818
      4813      4811      4815      4819      4814      4811      4815      4817
      4814      4811      4815      4818      4814      4811      4815      4819
      4815      4819      4822      4824      4815      4819      4822      4825
      4817      4815      4819      4821      4817      4815      4819      4822
      4818      4815      4819      4821      4818      4815      4819      4822
      4819      4822      4825      4827      4819      4822      4825      4828
      4819      4822      4825      4829      4821      4819      4822      4824
      4821      4819      4822      4825      4822      4825      4829      4831
      4822      4825      4829      4832      4822      4825      4829      4833
      4824      4822      4825      4827      4824      4822      4825      4828
      4824      4822      4825      4829      4825      4829      4833      4835
      4825      4829      4833      4836      4825      4829      4833      4837
      4827      4825      4829      4831      4827      4825      4829      4832
      4827      4825      4829      4833      4828      4825      4829      4831
      4828      4825      4829      4832      4828      4825      4829      4833
      4829      4833      4837      4839      4829      4833      4837      4840
      4829      4833      4837      4841      4831      4829      4833      4835
      4831      4829      4833      4836      4831      4829      4833      4837
      4832      4829      4833      4835      4832      4829      4833      4836
      4832      4829      4833      4837      4833      4837      4841      4843
      4833      4837      4841      4844      4833      4837      4841      4845
      4835      4833      4837      4839      4835      4833      4837      4840
      4835      4833      4837      4841      4836      4833      4837      4839
      4836      4833      4837      4840      4836      4833      4837      4841
      4837      4841      4845      4847      4837      4841      4845      4848
      4837      4841      4845      4849      4839      4837      4841      4843
      4839      4837      4841      4844      4839      4837      4841      4845
      4840      4837      4841      4843      4840      4837      4841      4844
      4840      4837      4841      4845      4841      4845      4849      4851
      4841      4845      4849      4852      4841      4845      4849      4853
      4843      4841      4845      4847      4843      4841      4845      4848
      4843      4841      4845      4849      4844      4841      4845      4847
      4844      4841      4845      4848      4844      4841      4845      4849
      4845      4849      4853      4855      4845      4849      4853      4856
      4845      4849      4853      4857      4847      4845      4849      4851
      4847      4845      4849      4852      4847      4845      4849      4853
      4848      4845      4849      4851      4848      4845      4849      4852
      4848      4845      4849      4853      4851      4849      4853      4855
      4851      4849      4853      4856      4851      4849      4853      4857
      4852      4849      4853      4855      4852      4849      4853      4856
      4852      4849      4853      4857      4858      4862      4866      4868
      4858      4862      4866      4869      4858      4862      4866      4870
      4860      4858      4862      4864      4860      4858      4862      4865
      4860      4858      4862      4866      4861      4858      4862      4864
      4861      4858      4862      4865      4861      4858      4862      4866
      4862      4866      4870      4872      4862      4866      4870      4873
      4862      4866      4870      4874      4864      4862      4866      4868
      4864      4862      4866      4869      4864      4862      4866      4870
      4865      4862      4866      4868      4865      4862      4866      4869
      4865      4862      4866      4870      4866      4870      4874      4876
      4866      4870      4874      4877      4866      4870      4874      4878
      4868      4866      4870      4872      4868      4866      4870      4873
      4868      4866      4870      4874      4869      4866      4870      4872
      4869      4866      4870      4873      4869      4866      4870      4874
      4870      4874      4878      4880      4870      4874      4878      4881
      4870      4874      4878      4882      4872      4870      4874      4876
      4872      4870      4874      4877      4872      4870      4874      4878
      4873      4870      4874      4876      4873      4870      4874      4877
      4873      4870      4874      4878      4874      4878      4882      4884
      4874      4878      4882      4885      4874      4878      4882      4886
      4876      4874      4878      4880      4876      4874      4878      4881
      4876      4874      4878      4882      4877      4874      4878      4880
      4877      4874      4878      4881      4877      4874      4878      4882
      4878      4882      4886      4888      4878      4882      4886      4889
      4878      4882      4886      4890      4880      4878      4882      4884
      4880      4878      4882      4885      4880      4878      4882      4886
      4881      4878      4882      4884      4881      4878      4882      4885
      4881      4878      4882      4886      4882      4886      4890      4892
      4882      4886      4890      4893      4882      4886      4890      4894
      4884      4882      4886      4888      4884      4882      4886      4889
      4884      4882      4886      4890      4885      4882      4886      4888
      4885      4882      4886      4889      4885      4882      4886      4890
      4886      4890      4894      4896      4886      4890      4894      4897
      4886      4890      4894      4898      4888      4886      4890      4892
      4888      4886      4890      4893      4888      4886      4890      4894
      4889      4886      4890      4892      4889      4886      4890      4893
      4889      4886      4890      4894      4890      4894      4898      4900
      4890      4894      4898      4901      4890      4894      4898      4902
      4892      4890      4894      4896      4892      4890      4894      4897
      4892      4890      4894      4898      4893      4890      4894      4896
      4893      4890      4894      4897      4893      4890      4894      4898
      4894      4898      4902      4904      4894      4898      4902      4905
      4894      4898      4902      4906      4896      4894      4898      4900
      4896      4894      4898      4901      4896      4894      4898      4902
      4897      4894      4898      4900      4897      4894      4898      4901
      4897      4894      4898      4902      4898      4902      4906      4908
      4898      4902      4906      4909      4898      4902      4906      4910
      4900      4898      4902      4904      4900      4898      4902      4905
      4900      4898      4902      4906      4901      4898      4902      4904
      4901      4898      4902      4905      4901      4898      4902      4906
      4902      4906      4910      4912      4902      4906      4910      4913
      4902      4906      4910      4914      4904      4902      4906      4908
      4904      4902      4906      4909      4904      4902      4906      4910
      4905      4902      4906      4908      4905      4902      4906      4909
      4905      4902      4906      4910      4908      4906      4910      4912
      4908      4906      4910      4913      4908      4906      4910      4914
      4909      4906      4910      4912      4909      4906      4910      4913
      4909      4906      4910      4914      4915      4920      4924      4926
      4915      4920      4924      4927      4915      4920      4924      4936
      4917      4915      4920      4922      4917      4915      4920      4923
      4917      4915      4920      4924      4918      4915      4920      4922
      4918      4915      4920      4923      4918      4915      4920      4924
      4919      4915      4920      4922      4919      4915      4920      4923
      4919      4915      4920      4924      4920      4924      4936      4928
      4922      4920      4924      4926      4922      4920      4924      4927
      4922      4920      4924      4936      4923      4920      4924      4926
      4923      4920      4924      4927      4923      4920      4924      4936
      4924      4936      4928      4930      4924      4936      4928      4932
      4924      4936      4928      4934      4926      4924      4936      4928
      4927      4924      4936      4928      4928      4934      4938      4940
      4928      4934      4938      4941      4928      4934      4938      4942
      4930      4928      4934      4938      4932      4928      4934      4938
      4934      4938      4942      4944      4934      4938      4942      4945
      4934      4938      4942      4959      4936      4928      4934      4938
      4938      4942      4945      4947      4938      4942      4959      4961
      4938      4942      4959      4962      4938      4942      4959      4963
      4940      4938      4942      4944      4940      4938      4942      4945
      4940      4938      4942      4959      4941      4938      4942      4944
      4941      4938      4942      4945      4941      4938      4942      4959
      4942      4945      4947      4949      4942      4945      4947      4951
      4942      4959      4963      4965      4944      4942      4945      4947
      4944      4942      4959      4961      4944      4942      4959      4962
      4944      4942      4959      4963      4945      4942      4959      4961
      4945      4942      4959      4962      4945      4942      4959      4963
      4945      4947      4951      4953      4945      4947      4951      4954
      4945      4947      4951      4977      4947      4945      4942      4959
      4947      4951      4977      4979      4947      4951      4977      4980
      4947      4951      4977      4981      4949      4947      4951      4953
      4949      4947      4951      4954      4949      4947      4951      4977
      4951      4977      4981      4983      4951      4977      4981      4984
      4951      4977      4981      4985      4953      4951      4977      4979
      4953      4951      4977      4980      4953      4951      4977      4981
      4954      4951      4977      4979      4954      4951      4977      4980
      4954      4951      4977      4981      4959      4963      4965      4967
      4959      4963      4965      4969      4961      4959      4963      4965
      4962      4959      4963      4965      4963      4965      4969      4971
      4963      4965      4969      4972      4963      4965      4969      5040
      4965      4969      5040      5042      4965      4969      5040      5043
      4965      4969      5040      5044      4967      4965      4969      4971
      4967      4965      4969      4972      4967      4965      4969      5040
      4969      5040      5044      5046      4969      5040      5044      5047
      4969      5040      5044      5048      4971      4969      5040      5042
      4971      4969      5040      5043      4971      4969      5040      5044
      4972      4969      5040      5042      4972      4969      5040      5043
      4972      4969      5040      5044      4977      4981      4985      4987
      4977      4981      4985      4988      4977      4981      4985      4989
      4979      4977      4981      4983      4979      4977      4981      4984
      4979      4977      4981      4985      4980      4977      4981      4983
      4980      4977      4981      4984      4980      4977      4981      4985
      4981      4985      4989      4991      4981      4985      4989      4992
      4981      4985      4989      4993      4983      4981      4985      4987
      4983      4981      4985      4988      4983      4981      4985      4989
      4984      4981      4985      4987      4984      4981      4985      4988
      4984      4981      4985      4989      4985      4989      4993      4995
      4985      4989      4993      4996      4985      4989      4993      4997
      4987      4985      4989      4991      4987      4985      4989      4992
      4987      4985      4989      4993      4988      4985      4989      4991
      4988      4985      4989      4992      4988      4985      4989      4993
      4989      4993      4997      4999      4989      4993      4997      5000
      4989      4993      4997      5001      4991      4989      4993      4995
      4991      4989      4993      4996      4991      4989      4993      4997
      4992      4989      4993      4995      4992      4989      4993      4996
      4992      4989      4993      4997      4993      4997      5001      5003
      4993      4997      5001      5004      4995      4993      4997      4999
      4995      4993      4997      5000      4995      4993      4997      5001
      4996      4993      4997      4999      4996      4993      4997      5000
      4996      4993      4997      5001      4997      5001      5004      5006
      4997      5001      5004      5007      4999      4997      5001      5003
      4999      4997      5001      5004      5000      4997      5001      5003
      5000      4997      5001      5004      5001      5004      5007      5009
      5001      5004      5007      5010      5001      5004      5007      5011
      5003      5001      5004      5006      5003      5001      5004      5007
      5004      5007      5011      5013      5004      5007      5011      5014
      5004      5007      5011      5015      5006      5004      5007      5009
      5006      5004      5007      5010      5006      5004      5007      5011
      5007      5011      5015      5017      5007      5011      5015      5018
      5007      5011      5015      5019      5009      5007      5011      5013
      5009      5007      5011      5014      5009      5007      5011      5015
      5010      5007      5011      5013      5010      5007      5011      5014
      5010      5007      5011      5015      5011      5015      5019      5021
      5011      5015      5019      5022      5011      5015      5019      5023
      5013      5011      5015      5017      5013      5011      5015      5018
      5013      5011      5015      5019      5014      5011      5015      5017
      5014      5011      5015      5018      5014      5011      5015      5019
      5015      5019      5023      5025      5015      5019      5023      5026
      5015      5019      5023      5027      5017      5015      5019      5021
      5017      5015      5019      5022      5017      5015      5019      5023
      5018      5015      5019      5021      5018      5015      5019      5022
      5018      5015      5019      5023      5019      5023      5027      5029
      5019      5023      5027      5030      5019      5023      5027      5031
      5021      5019      5023      5025      5021      5019      5023      5026
      5021      5019      5023      5027      5022      5019      5023      5025
      5022      5019      5023      5026      5022      5019      5023      5027
      5023      5027      5031      5033      5023      5027      5031      5034
      5023      5027      5031      5035      5025      5023      5027      5029
      5025      5023      5027      5030      5025      5023      5027      5031
      5026      5023      5027      5029      5026      5023      5027      5030
      5026      5023      5027      5031      5027      5031      5035      5037
      5027      5031      5035      5038      5027      5031      5035      5039
      5029      5027      5031      5033      5029      5027      5031      5034
      5029      5027      5031      5035      5030      5027      5031      5033
      5030      5027      5031      5034      5030      5027      5031      5035
      5033      5031      5035      5037      5033      5031      5035      5038
      5033      5031      5035      5039      5034      5031      5035      5037
      5034      5031      5035      5038      5034      5031      5035      5039
      5040      5044      5048      5050      5040      5044      5048      5051
      5040      5044      5048      5052      5042      5040      5044      5046
      5042      5040      5044      5047      5042      5040      5044      5048
      5043      5040      5044      5046      5043      5040      5044      5047
      5043      5040      5044      5048      5044      5048      5052      5054
      5044      5048      5052      5055      5044      5048      5052      5056
      5046      5044      5048      5050      5046      5044      5048      5051
      5046      5044      5048      5052      5047      5044      5048      5050
      5047      5044      5048      5051      5047      5044      5048      5052
      5048      5052      5056      5058      5048      5052      5056      5059
      5048      5052      5056      5060      5050      5048      5052      5054
      5050      5048      5052      5055      5050      5048      5052      5056
      5051      5048      5052      5054      5051      5048      5052      5055
      5051      5048      5052      5056      5052      5056      5060      5062
      5052      5056      5060      5063      5052      5056      5060      5064
      5054      5052      5056      5058      5054      5052      5056      5059
      5054      5052      5056      5060      5055      5052      5056      5058
      5055      5052      5056      5059      5055      5052      5056      5060
      5056      5060      5064      5066      5056      5060      5064      5067
      5056      5060      5064      5068      5058      5056      5060      5062
      5058      5056      5060      5063      5058      5056      5060      5064
      5059      5056      5060      5062      5059      5056      5060      5063
      5059      5056      5060      5064      5060      5064      5068      5070
      5060      5064      5068      5071      5060      5064      5068      5072
      5062      5060      5064      5066      5062      5060      5064      5067
      5062      5060      5064      5068      5063      5060      5064      5066
      5063      5060      5064      5067      5063      5060      5064      5068
      5064      5068      5072      5074      5064      5068      5072      5075
      5064      5068      5072      5076      5066      5064      5068      5070
      5066      5064      5068      5071      5066      5064      5068      5072
      5067      5064      5068      5070      5067      5064      5068      5071
      5067      5064      5068      5072      5068      5072      5076      5078
      5068      5072      5076      5079      5068      5072      5076      5080
      5070      5068      5072      5074      5070      5068      5072      5075
      5070      5068      5072      5076      5071      5068      5072      5074
      5071      5068      5072      5075      5071      5068      5072      5076
      5072      5076      5080      5082      5072      5076      5080      5083
      5072      5076      5080      5084      5074      5072      5076      5078
      5074      5072      5076      5079      5074      5072      5076      5080
      5075      5072      5076      5078      5075      5072      5076      5079
      5075      5072      5076      5080      5076      5080      5084      5086
      5076      5080      5084      5087      5076      5080      5084      5088
      5078      5076      5080      5082      5078      5076      5080      5083
      5078      5076      5080      5084      5079      5076      5080      5082
      5079      5076      5080      5083      5079      5076      5080      5084
      5080      5084      5088      5090      5080      5084      5088      5091
      5080      5084      5088      5092      5082      5080      5084      5086
      5082      5080      5084      5087      5082      5080      5084      5088
      5083      5080      5084      5086      5083      5080      5084      5087
      5083      5080      5084      5088      5084      5088      5092      5094
      5084      5088      5092      5095      5084      5088      5092      5096
      5086      5084      5088      5090      5086      5084      5088      5091
      5086      5084      5088      5092      5087      5084      5088      5090
      5087      5084      5088      5091      5087      5084      5088      5092
      5090      5088      5092      5094      5090      5088      5092      5095
      5090      5088      5092      5096      5091      5088      5092      5094
      5091      5088      5092      5095      5091      5088      5092      5096
      5097      5102      5106      5108      5097      5102      5106      5109
      5097      5102      5106      5118      5099      5097      5102      5104
      5099      5097      5102      5105      5099      5097      5102      5106
      5100      5097      5102      5104      5100      5097      5102      5105
      5100      5097      5102      5106      5101      5097      5102      5104
      5101      5097      5102      5105      5101      5097      5102      5106
      5102      5106      5118      5110      5104      5102      5106      5108
      5104      5102      5106      5109      5104      5102      5106      5118
      5105      5102      5106      5108      5105      5102      5106      5109
      5105      5102      5106      5118      5106      5118      5110      5112
      5106      5118      5110      5114      5106      5118      5110      5116
      5108      5106      5118      5110      5109      5106      5118      5110
      5110      5116      5120      5122      5110      5116      5120      5123
      5110      5116      5120      5124      5112      5110      5116      5120
      5114      5110      5116      5120      5116      5120      5124      5126
      5116      5120      5124      5127      5116      5120      5124      5141
      5118      5110      5116      5120      5120      5124      5127      5129
      5120      5124      5141      5143      5120      5124      5141      5144
      5120      5124      5141      5145      5122      5120      5124      5126
      5122      5120      5124      5127      5122      5120      5124      5141
      5123      5120      5124      5126      5123      5120      5124      5127
      5123      5120      5124      5141      5124      5127      5129      5131
      5124      5127      5129      5133      5124      5141      5145      5147
      5126      5124      5127      5129      5126      5124      5141      5143
      5126      5124      5141      5144      5126      5124      5141      5145
      5127      5124      5141      5143      5127      5124      5141      5144
      5127      5124      5141      5145      5127      5129      5133      5135
      5127      5129      5133      5136      5127      5129      5133      5159
      5129      5127      5124      5141      5129      5133      5159      5161
      5129      5133      5159      5162      5129      5133      5159      5163
      5131      5129      5133      5135      5131      5129      5133      5136
      5131      5129      5133      5159      5133      5159      5163      5165
      5133      5159      5163      5166      5133      5159      5163      5167
      5135      5133      5159      5161      5135      5133      5159      5162
      5135      5133      5159      5163      5136      5133      5159      5161
      5136      5133      5159      5162      5136      5133      5159      5163
      5141      5145      5147      5149      5141      5145      5147      5151
      5143      5141      5145      5147      5144      5141      5145      5147
      5145      5147      5151      5153      5145      5147      5151      5154
      5145      5147      5151      5222      5147      5151      5222      5224
      5147      5151      5222      5225      5147      5151      5222      5226
      5149      5147      5151      5153      5149      5147      5151      5154
      5149      5147      5151      5222      5151      5222      5226      5228
      5151      5222      5226      5229      5151      5222      5226      5230
      5153      5151      5222      5224      5153      5151      5222      5225
      5153      5151      5222      5226      5154      5151      5222      5224
      5154      5151      5222      5225      5154      5151      5222      5226
      5159      5163      5167      5169      5159      5163      5167      5170
      5159      5163      5167      5171      5161      5159      5163      5165
      5161      5159      5163      5166      5161      5159      5163      5167
      5162      5159      5163      5165      5162      5159      5163      5166
      5162      5159      5163      5167      5163      5167      5171      5173
      5163      5167      5171      5174      5163      5167      5171      5175
      5165      5163      5167      5169      5165      5163      5167      5170
      5165      5163      5167      5171      5166      5163      5167      5169
      5166      5163      5167      5170      5166      5163      5167      5171
      5167      5171      5175      5177      5167      5171      5175      5178
      5167      5171      5175      5179      5169      5167      5171      5173
      5169      5167      5171      5174      5169      5167      5171      5175
      5170      5167      5171      5173      5170      5167      5171      5174
      5170      5167      5171      5175      5171      5175      5179      5181
      5171      5175      5179      5182      5171      5175      5179      5183
      5173      5171      5175      5177      5173      5171      5175      5178
      5173      5171      5175      5179      5174      5171      5175      5177
      5174      5171      5175      5178      5174      5171      5175      5179
      5175      5179      5183      5185      5175      5179      5183      5186
      5177      5175      5179      5181      5177      5175      5179      5182
      5177      5175      5179      5183      5178      5175      5179      5181
      5178      5175      5179      5182      5178      5175      5179      5183
      5179      5183      5186      5188      5179      5183      5186      5189
      5181      5179      5183      5185      5181      5179      5183      5186
      5182      5179      5183      5185      5182      5179      5183      5186
      5183      5186      5189      5191      5183      5186      5189      5192
      5183      5186      5189      5193      5185      5183      5186      5188
      5185      5183      5186      5189      5186      5189      5193      5195
      5186      5189      5193      5196      5186      5189      5193      5197
      5188      5186      5189      5191      5188      5186      5189      5192
      5188      5186      5189      5193      5189      5193      5197      5199
      5189      5193      5197      5200      5189      5193      5197      5201
      5191      5189      5193      5195      5191      5189      5193      5196
      5191      5189      5193      5197      5192      5189      5193      5195
      5192      5189      5193      5196      5192      5189      5193      5197
      5193      5197      5201      5203      5193      5197      5201      5204
      5193      5197      5201      5205      5195      5193      5197      5199
      5195      5193      5197      5200      5195      5193      5197      5201
      5196      5193      5197      5199      5196      5193      5197      5200
      5196      5193      5197      5201      5197      5201      5205      5207
      5197      5201      5205      5208      5197      5201      5205      5209
      5199      5197      5201      5203      5199      5197      5201      5204
      5199      5197      5201      5205      5200      5197      5201      5203
      5200      5197      5201      5204      5200      5197      5201      5205
      5201      5205      5209      5211      5201      5205      5209      5212
      5201      5205      5209      5213      5203      5201      5205      5207
      5203      5201      5205      5208      5203      5201      5205      5209
      5204      5201      5205      5207      5204      5201      5205      5208
      5204      5201      5205      5209      5205      5209      5213      5215
      5205      5209      5213      5216      5205      5209      5213      5217
      5207      5205      5209      5211      5207      5205      5209      5212
      5207      5205      5209      5213      5208      5205      5209      5211
      5208      5205      5209      5212      5208      5205      5209      5213
      5209      5213      5217      5219      5209      5213      5217      5220
      5209      5213      5217      5221      5211      5209      5213      5215
      5211      5209      5213      5216      5211      5209      5213      5217
      5212      5209      5213      5215      5212      5209      5213      5216
      5212      5209      5213      5217      5215      5213      5217      5219
      5215      5213      5217      5220      5215      5213      5217      5221
      5216      5213      5217      5219      5216      5213      5217      5220
      5216      5213      5217      5221      5222      5226      5230      5232
      5222      5226      5230      5233      5222      5226      5230      5234
      5224      5222      5226      5228      5224      5222      5226      5229
      5224      5222      5226      5230      5225      5222      5226      5228
      5225      5222      5226      5229      5225      5222      5226      5230
      5226      5230      5234      5236      5226      5230      5234      5237
      5226      5230      5234      5238      5228      5226      5230      5232
      5228      5226      5230      5233      5228      5226      5230      5234
      5229      5226      5230      5232      5229      5226      5230      5233
      5229      5226      5230      5234      5230      5234      5238      5240
      5230      5234      5238      5241      5230      5234      5238      5242
      5232      5230      5234      5236      5232      5230      5234      5237
      5232      5230      5234      5238      5233      5230      5234      5236
      5233      5230      5234      5237      5233      5230      5234      5238
      5234      5238      5242      5244      5234      5238      5242      5245
      5234      5238      5242      5246      5236      5234      5238      5240
      5236      5234      5238      5241      5236      5234      5238      5242
      5237      5234      5238      5240      5237      5234      5238      5241
      5237      5234      5238      5242      5238      5242      5246      5248
      5238      5242      5246      5249      5238      5242      5246      5250
      5240      5238      5242      5244      5240      5238      5242      5245
      5240      5238      5242      5246      5241      5238      5242      5244
      5241      5238      5242      5245      5241      5238      5242      5246
      5242      5246      5250      5252      5242      5246      5250      5253
      5242      5246      5250      5254      5244      5242      5246      5248
      5244      5242      5246      5249      5244      5242      5246      5250
      5245      5242      5246      5248      5245      5242      5246      5249
      5245      5242      5246      5250      5246      5250      5254      5256
      5246      5250      5254      5257      5246      5250      5254      5258
      5248      5246      5250      5252      5248      5246      5250      5253
      5248      5246      5250      5254      5249      5246      5250      5252
      5249      5246      5250      5253      5249      5246      5250      5254
      5250      5254      5258      5260      5250      5254      5258      5261
      5250      5254      5258      5262      5252      5250      5254      5256
      5252      5250      5254      5257      5252      5250      5254      5258
      5253      5250      5254      5256      5253      5250      5254      5257
      5253      5250      5254      5258      5254      5258      5262      5264
      5254      5258      5262      5265      5254      5258      5262      5266
      5256      5254      5258      5260      5256      5254      5258      5261
      5256      5254      5258      5262      5257      5254      5258      5260
      5257      5254      5258      5261      5257      5254      5258      5262
      5258      5262      5266      5268      5258      5262      5266      5269
      5258      5262      5266      5270      5260      5258      5262      5264
      5260      5258      5262      5265      5260      5258      5262      5266
      5261      5258      5262      5264      5261      5258      5262      5265
      5261      5258      5262      5266      5262      5266      5270      5272
      5262      5266      5270      5273      5262      5266      5270      5274
      5264      5262      5266      5268      5264      5262      5266      5269
      5264      5262      5266      5270      5265      5262      5266      5268
      5265      5262      5266      5269      5265      5262      5266      5270
      5266      5270      5274      5276      5266      5270      5274      5277
      5266      5270      5274      5278      5268      5266      5270      5272
      5268      5266      5270      5273      5268      5266      5270      5274
      5269      5266      5270      5272      5269      5266      5270      5273
      5269      5266      5270      5274      5272      5270      5274      5276
      5272      5270      5274      5277      5272      5270      5274      5278
      5273      5270      5274      5276      5273      5270      5274      5277
      5273      5270      5274      5278      5279      5284      5288      5290
      5279      5284      5288      5291      5279      5284      5288      5300
      5281      5279      5284      5286      5281      5279      5284      5287
      5281      5279      5284      5288      5282      5279      5284      5286
      5282      5279      5284      5287      5282      5279      5284      5288
      5283      5279      5284      5286      5283      5279      5284      5287
      5283      5279      5284      5288      5284      5288      5300      5292
      5286      5284      5288      5290      5286      5284      5288      5291
      5286      5284      5288      5300      5287      5284      5288      5290
      5287      5284      5288      5291      5287      5284      5288      5300
      5288      5300      5292      5294      5288      5300      5292      5296
      5288      5300      5292      5298      5290      5288      5300      5292
      5291      5288      5300      5292      5292      5298      5302      5304
      5292      5298      5302      5305      5292      5298      5302      5306
      5294      5292      5298      5302      5296      5292      5298      5302
      5298      5302      5306      5308      5298      5302      5306      5309
      5298      5302      5306      5323      5300      5292      5298      5302
      5302      5306      5309      5311      5302      5306      5323      5325
      5302      5306      5323      5326      5302      5306      5323      5327
      5304      5302      5306      5308      5304      5302      5306      5309
      5304      5302      5306      5323      5305      5302      5306      5308
      5305      5302      5306      5309      5305      5302      5306      5323
      5306      5309      5311      5313      5306      5309      5311      5315
      5306      5323      5327      5329      5308      5306      5309      5311
      5308      5306      5323      5325      5308      5306      5323      5326
      5308      5306      5323      5327      5309      5306      5323      5325
      5309      5306      5323      5326      5309      5306      5323      5327
      5309      5311      5315      5317      5309      5311      5315      5318
      5309      5311      5315      5341      5311      5309      5306      5323
      5311      5315      5341      5343      5311      5315      5341      5344
      5311      5315      5341      5345      5313      5311      5315      5317
      5313      5311      5315      5318      5313      5311      5315      5341
      5315      5341      5345      5347      5315      5341      5345      5348
      5315      5341      5345      5349      5317      5315      5341      5343
      5317      5315      5341      5344      5317      5315      5341      5345
      5318      5315      5341      5343      5318      5315      5341      5344
      5318      5315      5341      5345      5323      5327      5329      5331
      5323      5327      5329      5333      5325      5323      5327      5329
      5326      5323      5327      5329      5327      5329      5333      5335
      5327      5329      5333      5336      5327      5329      5333      5404
      5329      5333      5404      5406      5329      5333      5404      5407
      5329      5333      5404      5408      5331      5329      5333      5335
      5331      5329      5333      5336      5331      5329      5333      5404
      5333      5404      5408      5410      5333      5404      5408      5411
      5333      5404      5408      5412      5335      5333      5404      5406
      5335      5333      5404      5407      5335      5333      5404      5408
      5336      5333      5404      5406      5336      5333      5404      5407
      5336      5333      5404      5408      5341      5345      5349      5351
      5341      5345      5349      5352      5341      5345      5349      5353
      5343      5341      5345      5347      5343      5341      5345      5348
      5343      5341      5345      5349      5344      5341      5345      5347
      5344      5341      5345      5348      5344      5341      5345      5349
      5345      5349      5353      5355      5345      5349      5353      5356
      5345      5349      5353      5357      5347      5345      5349      5351
      5347      5345      5349      5352      5347      5345      5349      5353
      5348      5345      5349      5351      5348      5345      5349      5352
      5348      5345      5349      5353      5349      5353      5357      5359
      5349      5353      5357      5360      5349      5353      5357      5361
      5351      5349      5353      5355      5351      5349      5353      5356
      5351      5349      5353      5357      5352      5349      5353      5355
      5352      5349      5353      5356      5352      5349      5353      5357
      5353      5357      5361      5363      5353      5357      5361      5364
      5353      5357      5361      5365      5355      5353      5357      5359
      5355      5353      5357      5360      5355      5353      5357      5361
      5356      5353      5357      5359      5356      5353      5357      5360
      5356      5353      5357      5361      5357      5361      5365      5367
      5357      5361      5365      5368      5359      5357      5361      5363
      5359      5357      5361      5364      5359      5357      5361      5365
      5360      5357      5361      5363      5360      5357      5361      5364
      5360      5357      5361      5365      5361      5365      5368      5370
      5361      5365      5368      5371      5363      5361      5365      5367
      5363      5361      5365      5368      5364      5361      5365      5367
      5364      5361      5365      5368      5365      5368      5371      5373
      5365      5368      5371      5374      5365      5368      5371      5375
      5367      5365      5368      5370      5367      5365      5368      5371
      5368      5371      5375      5377      5368      5371      5375      5378
      5368      5371      5375      5379      5370      5368      5371      5373
      5370      5368      5371      5374      5370      5368      5371      5375
      5371      5375      5379      5381      5371      5375      5379      5382
      5371      5375      5379      5383      5373      5371      5375      5377
      5373      5371      5375      5378      5373      5371      5375      5379
      5374      5371      5375      5377      5374      5371      5375      5378
      5374      5371      5375      5379      5375      5379      5383      5385
      5375      5379      5383      5386      5375      5379      5383      5387
      5377      5375      5379      5381      5377      5375      5379      5382
      5377      5375      5379      5383      5378      5375      5379      5381
      5378      5375      5379      5382      5378      5375      5379      5383
      5379      5383      5387      5389      5379      5383      5387      5390
      5379      5383      5387      5391      5381      5379      5383      5385
      5381      5379      5383      5386      5381      5379      5383      5387
      5382      5379      5383      5385      5382      5379      5383      5386
      5382      5379      5383      5387      5383      5387      5391      5393
      5383      5387      5391      5394      5383      5387      5391      5395
      5385      5383      5387      5389      5385      5383      5387      5390
      5385      5383      5387      5391      5386      5383      5387      5389
      5386      5383      5387      5390      5386      5383      5387      5391
      5387      5391      5395      5397      5387      5391      5395      5398
      5387      5391      5395      5399      5389      5387      5391      5393
      5389      5387      5391      5394      5389      5387      5391      5395
      5390      5387      5391      5393      5390      5387      5391      5394
      5390      5387      5391      5395      5391      5395      5399      5401
      5391      5395      5399      5402      5391      5395      5399      5403
      5393      5391      5395      5397      5393      5391      5395      5398
      5393      5391      5395      5399      5394      5391      5395      5397
      5394      5391      5395      5398      5394      5391      5395      5399
      5397      5395      5399      5401      5397      5395      5399      5402
      5397      5395      5399      5403      5398      5395      5399      5401
      5398      5395      5399      5402      5398      5395      5399      5403
      5404      5408      5412      5414      5404      5408      5412      5415
      5404      5408      5412      5416      5406      5404      5408      5410
      5406      5404      5408      5411      5406      5404      5408      5412
      5407      5404      5408      5410      5407      5404      5408      5411
      5407      5404      5408      5412      5408      5412      5416      5418
      5408      5412      5416      5419      5408      5412      5416      5420
      5410      5408      5412      5414      5410      5408      5412      5415
      5410      5408      5412      5416      5411      5408      5412      5414
      5411      5408      5412      5415      5411      5408      5412      5416
      5412      5416      5420      5422      5412      5416      5420      5423
      5412      5416      5420      5424      5414      5412      5416      5418
      5414      5412      5416      5419      5414      5412      5416      5420
      5415      5412      5416      5418      5415      5412      5416      5419
      5415      5412      5416      5420      5416      5420      5424      5426
      5416      5420      5424      5427      5416      5420      5424      5428
      5418      5416      5420      5422      5418      5416      5420      5423
      5418      5416      5420      5424      5419      5416      5420      5422
      5419      5416      5420      5423      5419      5416      5420      5424
      5420      5424      5428      5430      5420      5424      5428      5431
      5420      5424      5428      5432      5422      5420      5424      5426
      5422      5420      5424      5427      5422      5420      5424      5428
      5423      5420      5424      5426      5423      5420      5424      5427
      5423      5420      5424      5428      5424      5428      5432      5434
      5424      5428      5432      5435      5424      5428      5432      5436
      5426      5424      5428      5430      5426      5424      5428      5431
      5426      5424      5428      5432      5427      5424      5428      5430
      5427      5424      5428      5431      5427      5424      5428      5432
      5428      5432      5436      5438      5428      5432      5436      5439
      5428      5432      5436      5440      5430      5428      5432      5434
      5430      5428      5432      5435      5430      5428      5432      5436
      5431      5428      5432      5434      5431      5428      5432      5435
      5431      5428      5432      5436      5432      5436      5440      5442
      5432      5436      5440      5443      5432      5436      5440      5444
      5434      5432      5436      5438      5434      5432      5436      5439
      5434      5432      5436      5440      5435      5432      5436      5438
      5435      5432      5436      5439      5435      5432      5436      5440
      5436      5440      5444      5446      5436      5440      5444      5447
      5436      5440      5444      5448      5438      5436      5440      5442
      5438      5436      5440      5443      5438      5436      5440      5444
      5439      5436      5440      5442      5439      5436      5440      5443
      5439      5436      5440      5444      5440      5444      5448      5450
      5440      5444      5448      5451      5440      5444      5448      5452
      5442      5440      5444      5446      5442      5440      5444      5447
      5442      5440      5444      5448      5443      5440      5444      5446
      5443      5440      5444      5447      5443      5440      5444      5448
      5444      5448      5452      5454      5444      5448      5452      5455
      5444      5448      5452      5456      5446      5444      5448      5450
      5446      5444      5448      5451      5446      5444      5448      5452
      5447      5444      5448      5450      5447      5444      5448      5451
      5447      5444      5448      5452      5448      5452      5456      5458
      5448      5452      5456      5459      5448      5452      5456      5460
      5450      5448      5452      5454      5450      5448      5452      5455
      5450      5448      5452      5456      5451      5448      5452      5454
      5451      5448      5452      5455      5451      5448      5452      5456
      5454      5452      5456      5458      5454      5452      5456      5459
      5454      5452      5456      5460      5455      5452      5456      5458
      5455      5452      5456      5459      5455      5452      5456      5460
      5461      5466      5470      5472      5461      5466      5470      5473
      5461      5466      5470      5482      5463      5461      5466      5468
      5463      5461      5466      5469      5463      5461      5466      5470
      5464      5461      5466      5468      5464      5461      5466      5469
      5464      5461      5466      5470      5465      5461      5466      5468
      5465      5461      5466      5469      5465      5461      5466      5470
      5466      5470      5482      5474      5468      5466      5470      5472
      5468      5466      5470      5473      5468      5466      5470      5482
      5469      5466      5470      5472      5469      5466      5470      5473
      5469      5466      5470      5482      5470      5482      5474      5476
      5470      5482      5474      5478      5470      5482      5474      5480
      5472      5470      5482      5474      5473      5470      5482      5474
      5474      5480      5484      5486      5474      5480      5484      5487
      5474      5480      5484      5488      5476      5474      5480      5484
      5478      5474      5480      5484      5480      5484      5488      5490
      5480      5484      5488      5491      5480      5484      5488      5505
      5482      5474      5480      5484      5484      5488      5491      5493
      5484      5488      5505      5507      5484      5488      5505      5508
      5484      5488      5505      5509      5486      5484      5488      5490
      5486      5484      5488      5491      5486      5484      5488      5505
      5487      5484      5488      5490      5487      5484      5488      5491
      5487      5484      5488      5505      5488      5491      5493      5495
      5488      5491      5493      5497      5488      5505      5509      5511
      5490      5488      5491      5493      5490      5488      5505      5507
      5490      5488      5505      5508      5490      5488      5505      5509
      5491      5488      5505      5507      5491      5488      5505      5508
      5491      5488      5505      5509      5491      5493      5497      5499
      5491      5493      5497      5500      5491      5493      5497      5523
      5493      5491      5488      5505      5493      5497      5523      5525
      5493      5497      5523      5526      5493      5497      5523      5527
      5495      5493      5497      5499      5495      5493      5497      5500
      5495      5493      5497      5523      5497      5523      5527      5529
      5497      5523      5527      5530      5497      5523      5527      5531
      5499      5497      5523      5525      5499      5497      5523      5526
      5499      5497      5523      5527      5500      5497      5523      5525
      5500      5497      5523      5526      5500      5497      5523      5527
      5505      5509      5511      5513      5505      5509      5511      5515
      5507      5505      5509      5511      5508      5505      5509      5511
      5509      5511      5515      5517      5509      5511      5515      5518
      5509      5511      5515      5586      5511      5515      5586      5588
      5511      5515      5586      5589      5511      5515      5586      5590
      5513      5511      5515      5517      5513      5511      5515      5518
      5513      5511      5515      5586      5515      5586      5590      5592
      5515      5586      5590      5593      5515      5586      5590      5594
      5517      5515      5586      5588      5517      5515      5586      5589
      5517      5515      5586      5590      5518      5515      5586      5588
      5518      5515      5586      5589      5518      5515      5586      5590
      5523      5527      5531      5533      5523      5527      5531      5534
      5523      5527      5531      5535      5525      5523      5527      5529
      5525      5523      5527      5530      5525      5523      5527      5531
      5526      5523      5527      5529      5526      5523      5527      5530
      5526      5523      5527      5531      5527      5531      5535      5537
      5527      5531      5535      5538      5527      5531      5535      5539
      5529      5527      5531      5533      5529      5527      5531      5534
      5529      5527      5531      5535      5530      5527      5531      5533
      5530      5527      5531      5534      5530      5527      5531      5535
      5531      5535      5539      5541      5531      5535      5539      5542
      5531      5535      5539      5543      5533      5531      5535      5537
      5533      5531      5535      5538      5533      5531      5535      5539
      5534      5531      5535      5537      5534      5531      5535      5538
      5534      5531      5535      5539      5535      5539      5543      5545
      5535      5539      5543      5546      5535      5539      5543      5547
      5537      5535      5539      5541      5537      5535      5539      5542
      5537      5535      5539      5543      5538      5535      5539      5541
      5538      5535      5539      5542      5538      5535      5539      5543
      5539      5543      5547      5549      5539      5543      5547      5550
      5541      5539      5543      5545      5541      5539      5543      5546
      5541      5539      5543      5547      5542      5539      5543      5545
      5542      5539      5543      5546      5542      5539      5543      5547
      5543      5547      5550      5552      5543      5547      5550      5553
      5545      5543      5547      5549      5545      5543      5547      5550
      5546      5543      5547      5549      5546      5543      5547      5550
      5547      5550      5553      5555      5547      5550      5553      5556
      5547      5550      5553      5557      5549      5547      5550      5552
      5549      5547      5550      5553      5550      5553      5557      5559
      5550      5553      5557      5560      5550      5553      5557      5561
      5552      5550      5553      5555      5552      5550      5553      5556
      5552      5550      5553      5557      5553      5557      5561      5563
      5553      5557      5561      5564      5553      5557      5561      5565
      5555      5553      5557      5559      5555      5553      5557      5560
      5555      5553      5557      5561      5556      5553      5557      5559
      5556      5553      5557      5560      5556      5553      5557      5561
      5557      5561      5565      5567      5557      5561      5565      5568
      5557      5561      5565      5569      5559      5557      5561      5563
      5559      5557      5561      5564      5559      5557      5561      5565
      5560      5557      5561      5563      5560      5557      5561      5564
      5560      5557      5561      5565      5561      5565      5569      5571
      5561      5565      5569      5572      5561      5565      5569      5573
      5563      5561      5565      5567      5563      5561      5565      5568
      5563      5561      5565      5569      5564      5561      5565      5567
      5564      5561      5565      5568      5564      5561      5565      5569
      5565      5569      5573      5575      5565      5569      5573      5576
      5565      5569      5573      5577      5567      5565      5569      5571
      5567      5565      5569      5572      5567      5565      5569      5573
      5568      5565      5569      5571      5568      5565      5569      5572
      5568      5565      5569      5573      5569      5573      5577      5579
      5569      5573      5577      5580      5569      5573      5577      5581
      5571      5569      5573      5575      5571      5569      5573      5576
      5571      5569      5573      5577      5572      5569      5573      5575
      5572      5569      5573      5576      5572      5569      5573      5577
      5573      5577      5581      5583      5573      5577      5581      5584
      5573      5577      5581      5585      5575      5573      5577      5579
      5575      5573      5577      5580      5575      5573      5577      5581
      5576      5573      5577      5579      5576      5573      5577      5580
      5576      5573      5577      5581      5579      5577      5581      5583
      5579      5577      5581      5584      5579      5577      5581      5585
      5580      5577      5581      5583      5580      5577      5581      5584
      5580      5577      5581      5585      5586      5590      5594      5596
      5586      5590      5594      5597      5586      5590      5594      5598
      5588      5586      5590      5592      5588      5586      5590      5593
      5588      5586      5590      5594      5589      5586      5590      5592
      5589      5586      5590      5593      5589      5586      5590      5594
      5590      5594      5598      5600      5590      5594      5598      5601
      5590      5594      5598      5602      5592      5590      5594      5596
      5592      5590      5594      5597      5592      5590      5594      5598
      5593      5590      5594      5596      5593      5590      5594      5597
      5593      5590      5594      5598      5594      5598      5602      5604
      5594      5598      5602      5605      5594      5598      5602      5606
      5596      5594      5598      5600      5596      5594      5598      5601
      5596      5594      5598      5602      5597      5594      5598      5600
      5597      5594      5598      5601      5597      5594      5598      5602
      5598      5602      5606      5608      5598      5602      5606      5609
      5598      5602      5606      5610      5600      5598      5602      5604
      5600      5598      5602      5605      5600      5598      5602      5606
      5601      5598      5602      5604      5601      5598      5602      5605
      5601      5598      5602      5606      5602      5606      5610      5612
      5602      5606      5610      5613      5602      5606      5610      5614
      5604      5602      5606      5608      5604      5602      5606      5609
      5604      5602      5606      5610      5605      5602      5606      5608
      5605      5602      5606      5609      5605      5602      5606      5610
      5606      5610      5614      5616      5606      5610      5614      5617
      5606      5610      5614      5618      5608      5606      5610      5612
      5608      5606      5610      5613      5608      5606      5610      5614
      5609      5606      5610      5612      5609      5606      5610      5613
      5609      5606      5610      5614      5610      5614      5618      5620
      5610      5614      5618      5621      5610      5614      5618      5622
      5612      5610      5614      5616      5612      5610      5614      5617
      5612      5610      5614      5618      5613      5610      5614      5616
      5613      5610      5614      5617      5613      5610      5614      5618
      5614      5618      5622      5624      5614      5618      5622      5625
      5614      5618      5622      5626      5616      5614      5618      5620
      5616      5614      5618      5621      5616      5614      5618      5622
      5617      5614      5618      5620      5617      5614      5618      5621
      5617      5614      5618      5622      5618      5622      5626      5628
      5618      5622      5626      5629      5618      5622      5626      5630
      5620      5618      5622      5624      5620      5618      5622      5625
      5620      5618      5622      5626      5621      5618      5622      5624
      5621      5618      5622      5625      5621      5618      5622      5626
      5622      5626      5630      5632      5622      5626      5630      5633
      5622      5626      5630      5634      5624      5622      5626      5628
      5624      5622      5626      5629      5624      5622      5626      5630
      5625      5622      5626      5628      5625      5622      5626      5629
      5625      5622      5626      5630      5626      5630      5634      5636
      5626      5630      5634      5637      5626      5630      5634      5638
      5628      5626      5630      5632      5628      5626      5630      5633
      5628      5626      5630      5634      5629      5626      5630      5632
      5629      5626      5630      5633      5629      5626      5630      5634
      5630      5634      5638      5640      5630      5634      5638      5641
      5630      5634      5638      5642      5632      5630      5634      5636
      5632      5630      5634      5637      5632      5630      5634      5638
      5633      5630      5634      5636      5633      5630      5634      5637
      5633      5630      5634      5638      5636      5634      5638      5640
      5636      5634      5638      5641      5636      5634      5638      5642
      5637      5634      5638      5640      5637      5634      5638      5641
      5637      5634      5638      5642      5643      5648      5652      5654
      5643      5648      5652      5655      5643      5648      5652      5664
      5645      5643      5648      5650      5645      5643      5648      5651
      5645      5643      5648      5652      5646      5643      5648      5650
      5646      5643      5648      5651      5646      5643      5648      5652
      5647      5643      5648      5650      5647      5643      5648      5651
      5647      5643      5648      5652      5648      5652      5664      5656
      5650      5648      5652      5654      5650      5648      5652      5655
      5650      5648      5652      5664      5651      5648      5652      5654
      5651      5648      5652      5655      5651      5648      5652      5664
      5652      5664      5656      5658      5652      5664      5656      5660
      5652      5664      5656      5662      5654      5652      5664      5656
      5655      5652      5664      5656      5656      5662      5666      5668
      5656      5662      5666      5669      5656      5662      5666      5670
      5658      5656      5662      5666      5660      5656      5662      5666
      5662      5666      5670      5672      5662      5666      5670      5673
      5662      5666      5670      5687      5664      5656      5662      5666
      5666      5670      5673      5675      5666      5670      5687      5689
      5666      5670      5687      5690      5666      5670      5687      5691
      5668      5666      5670      5672      5668      5666      5670      5673
      5668      5666      5670      5687      5669      5666      5670      5672
      5669      5666      5670      5673      5669      5666      5670      5687
      5670      5673      5675      5677      5670      5673      5675      5679
      5670      5687      5691      5693      5672      5670      5673      5675
      5672      5670      5687      5689      5672      5670      5687      5690
      5672      5670      5687      5691      5673      5670      5687      5689
      5673      5670      5687      5690      5673      5670      5687      5691
      5673      5675      5679      5681      5673      5675      5679      5682
      5673      5675      5679      5705      5675      5673      5670      5687
      5675      5679      5705      5707      5675      5679      5705      5708
      5675      5679      5705      5709      5677      5675      5679      5681
      5677      5675      5679      5682      5677      5675      5679      5705
      5679      5705      5709      5711      5679      5705      5709      5712
      5679      5705      5709      5713      5681      5679      5705      5707
      5681      5679      5705      5708      5681      5679      5705      5709
      5682      5679      5705      5707      5682      5679      5705      5708
      5682      5679      5705      5709      5687      5691      5693      5695
      5687      5691      5693      5697      5689      5687      5691      5693
      5690      5687      5691      5693      5691      5693      5697      5699
      5691      5693      5697      5700      5691      5693      5697      5768
      5693      5697      5768      5770      5693      5697      5768      5771
      5693      5697      5768      5772      5695      5693      5697      5699
      5695      5693      5697      5700      5695      5693      5697      5768
      5697      5768      5772      5774      5697      5768      5772      5775
      5697      5768      5772      5776      5699      5697      5768      5770
      5699      5697      5768      5771      5699      5697      5768      5772
      5700      5697      5768      5770      5700      5697      5768      5771
      5700      5697      5768      5772      5705      5709      5713      5715
      5705      5709      5713      5716      5705      5709      5713      5717
      5707      5705      5709      5711      5707      5705      5709      5712
      5707      5705      5709      5713      5708      5705      5709      5711
      5708      5705      5709      5712      5708      5705      5709      5713
      5709      5713      5717      5719      5709      5713      5717      5720
      5709      5713      5717      5721      5711      5709      5713      5715
      5711      5709      5713      5716      5711      5709      5713      5717
      5712      5709      5713      5715      5712      5709      5713      5716
      5712      5709      5713      5717      5713      5717      5721      5723
      5713      5717      5721      5724      5713      5717      5721      5725
      5715      5713      5717      5719      5715      5713      5717      5720
      5715      5713      5717      5721      5716      5713      5717      5719
      5716      5713      5717      5720      5716      5713      5717      5721
      5717      5721      5725      5727      5717      5721      5725      5728
      5717      5721      5725      5729      5719      5717      5721      5723
      5719      5717      5721      5724      5719      5717      5721      5725
      5720      5717      5721      5723      5720      5717      5721      5724
      5720      5717      5721      5725      5721      5725      5729      5731
      5721      5725      5729      5732      5723      5721      5725      5727
      5723      5721      5725      5728      5723      5721      5725      5729
      5724      5721      5725      5727      5724      5721      5725      5728
      5724      5721      5725      5729      5725      5729      5732      5734
      5725      5729      5732      5735      5727      5725      5729      5731
      5727      5725      5729      5732      5728      5725      5729      5731
      5728      5725      5729      5732      5729      5732      5735      5737
      5729      5732      5735      5738      5729      5732      5735      5739
      5731      5729      5732      5734      5731      5729      5732      5735
      5732      5735      5739      5741      5732      5735      5739      5742
      5732      5735      5739      5743      5734      5732      5735      5737
      5734      5732      5735      5738      5734      5732      5735      5739
      5735      5739      5743      5745      5735      5739      5743      5746
      5735      5739      5743      5747      5737      5735      5739      5741
      5737      5735      5739      5742      5737      5735      5739      5743
      5738      5735      5739      5741      5738      5735      5739      5742
      5738      5735      5739      5743      5739      5743      5747      5749
      5739      5743      5747      5750      5739      5743      5747      5751
      5741      5739      5743      5745      5741      5739      5743      5746
      5741      5739      5743      5747      5742      5739      5743      5745
      5742      5739      5743      5746      5742      5739      5743      5747
      5743      5747      5751      5753      5743      5747      5751      5754
      5743      5747      5751      5755      5745      5743      5747      5749
      5745      5743      5747      5750      5745      5743      5747      5751
      5746      5743      5747      5749      5746      5743      5747      5750
      5746      5743      5747      5751      5747      5751      5755      5757
      5747      5751      5755      5758      5747      5751      5755      5759
      5749      5747      5751      5753      5749      5747      5751      5754
      5749      5747      5751      5755      5750      5747      5751      5753
      5750      5747      5751      5754      5750      5747      5751      5755
      5751      5755      5759      5761      5751      5755      5759      5762
      5751      5755      5759      5763      5753      5751      5755      5757
      5753      5751      5755      5758      5753      5751      5755      5759
      5754      5751      5755      5757      5754      5751      5755      5758
      5754      5751      5755      5759      5755      5759      5763      5765
      5755      5759      5763      5766      5755      5759      5763      5767
      5757      5755      5759      5761      5757      5755      5759      5762
      5757      5755      5759      5763      5758      5755      5759      5761
      5758      5755      5759      5762      5758      5755      5759      5763
      5761      5759      5763      5765      5761      5759      5763      5766
      5761      5759      5763      5767      5762      5759      5763      5765
      5762      5759      5763      5766      5762      5759      5763      5767
      5768      5772      5776      5778      5768      5772      5776      5779
      5768      5772      5776      5780      5770      5768      5772      5774
      5770      5768      5772      5775      5770      5768      5772      5776
      5771      5768      5772      5774      5771      5768      5772      5775
      5771      5768      5772      5776      5772      5776      5780      5782
      5772      5776      5780      5783      5772      5776      5780      5784
      5774      5772      5776      5778      5774      5772      5776      5779
      5774      5772      5776      5780      5775      5772      5776      5778
      5775      5772      5776      5779      5775      5772      5776      5780
      5776      5780      5784      5786      5776      5780      5784      5787
      5776      5780      5784      5788      5778      5776      5780      5782
      5778      5776      5780      5783      5778      5776      5780      5784
      5779      5776      5780      5782      5779      5776      5780      5783
      5779      5776      5780      5784      5780      5784      5788      5790
      5780      5784      5788      5791      5780      5784      5788      5792
      5782      5780      5784      5786      5782      5780      5784      5787
      5782      5780      5784      5788      5783      5780      5784      5786
      5783      5780      5784      5787      5783      5780      5784      5788
      5784      5788      5792      5794      5784      5788      5792      5795
      5784      5788      5792      5796      5786      5784      5788      5790
      5786      5784      5788      5791      5786      5784      5788      5792
      5787      5784      5788      5790      5787      5784      5788      5791
      5787      5784      5788      5792      5788      5792      5796      5798
      5788      5792      5796      5799      5788      5792      5796      5800
      5790      5788      5792      5794      5790      5788      5792      5795
      5790      5788      5792      5796      5791      5788      5792      5794
      5791      5788      5792      5795      5791      5788      5792      5796
      5792      5796      5800      5802      5792      5796      5800      5803
      5792      5796      5800      5804      5794      5792      5796      5798
      5794      5792      5796      5799      5794      5792      5796      5800
      5795      5792      5796      5798      5795      5792      5796      5799
      5795      5792      5796      5800      5796      5800      5804      5806
      5796      5800      5804      5807      5796      5800      5804      5808
      5798      5796      5800      5802      5798      5796      5800      5803
      5798      5796      5800      5804      5799      5796      5800      5802
      5799      5796      5800      5803      5799      5796      5800      5804
      5800      5804      5808      5810      5800      5804      5808      5811
      5800      5804      5808      5812      5802      5800      5804      5806
      5802      5800      5804      5807      5802      5800      5804      5808
      5803      5800      5804      5806      5803      5800      5804      5807
      5803      5800      5804      5808      5804      5808      5812      5814
      5804      5808      5812      5815      5804      5808      5812      5816
      5806      5804      5808      5810      5806      5804      5808      5811
      5806      5804      5808      5812      5807      5804      5808      5810
      5807      5804      5808      5811      5807      5804      5808      5812
      5808      5812      5816      5818      5808      5812      5816      5819
      5808      5812      5816      5820      5810      5808      5812      5814
      5810      5808      5812      5815      5810      5808      5812      5816
      5811      5808      5812      5814      5811      5808      5812      5815
      5811      5808      5812      5816      5812      5816      5820      5822
      5812      5816      5820      5823      5812      5816      5820      5824
      5814      5812      5816      5818      5814      5812      5816      5819
      5814      5812      5816      5820      5815      5812      5816      5818
      5815      5812      5816      5819      5815      5812      5816      5820
      5818      5816      5820      5822      5818      5816      5820      5823
      5818      5816      5820      5824      5819      5816      5820      5822
      5819      5816      5820      5823      5819      5816      5820      5824
      5825      5830      5834      5836      5825      5830      5834      5837
      5825      5830      5834      5846      5827      5825      5830      5832
      5827      5825      5830      5833      5827      5825      5830      5834
      5828      5825      5830      5832      5828      5825      5830      5833
      5828      5825      5830      5834      5829      5825      5830      5832
      5829      5825      5830      5833      5829      5825      5830      5834
      5830      5834      5846      5838      5832      5830      5834      5836
      5832      5830      5834      5837      5832      5830      5834      5846
      5833      5830      5834      5836      5833      5830      5834      5837
      5833      5830      5834      5846      5834      5846      5838      5840
      5834      5846      5838      5842      5834      5846      5838      5844
      5836      5834      5846      5838      5837      5834      5846      5838
      5838      5844      5848      5850      5838      5844      5848      5851
      5838      5844      5848      5852      5840      5838      5844      5848
      5842      5838      5844      5848      5844      5848      5852      5854
      5844      5848      5852      5855      5844      5848      5852      5869
      5846      5838      5844      5848      5848      5852      5855      5857
      5848      5852      5869      5871      5848      5852      5869      5872
      5848      5852      5869      5873      5850      5848      5852      5854
      5850      5848      5852      5855      5850      5848      5852      5869
      5851      5848      5852      5854      5851      5848      5852      5855
      5851      5848      5852      5869      5852      5855      5857      5859
      5852      5855      5857      5861      5852      5869      5873      5875
      5854      5852      5855      5857      5854      5852      5869      5871
      5854      5852      5869      5872      5854      5852      5869      5873
      5855      5852      5869      5871      5855      5852      5869      5872
      5855      5852      5869      5873      5855      5857      5861      5863
      5855      5857      5861      5864      5855      5857      5861      5887
      5857      5855      5852      5869      5857      5861      5887      5889
      5857      5861      5887      5890      5857      5861      5887      5891
      5859      5857      5861      5863      5859      5857      5861      5864
      5859      5857      5861      5887      5861      5887      5891      5893
      5861      5887      5891      5894      5861      5887      5891      5895
      5863      5861      5887      5889      5863      5861      5887      5890
      5863      5861      5887      5891      5864      5861      5887      5889
      5864      5861      5887      5890      5864      5861      5887      5891
      5869      5873      5875      5877      5869      5873      5875      5879
      5871      5869      5873      5875      5872      5869      5873      5875
      5873      5875      5879      5881      5873      5875      5879      5882
      5873      5875      5879      5950      5875      5879      5950      5952
      5875      5879      5950      5953      5875      5879      5950      5954
      5877      5875      5879      5881      5877      5875      5879      5882
      5877      5875      5879      5950      5879      5950      5954      5956
      5879      5950      5954      5957      5879      5950      5954      5958
      5881      5879      5950      5952      5881      5879      5950      5953
      5881      5879      5950      5954      5882      5879      5950      5952
      5882      5879      5950      5953      5882      5879      5950      5954
      5887      5891      5895      5897      5887      5891      5895      5898
      5887      5891      5895      5899      5889      5887      5891      5893
      5889      5887      5891      5894      5889      5887      5891      5895
      5890      5887      5891      5893      5890      5887      5891      5894
      5890      5887      5891      5895      5891      5895      5899      5901
      5891      5895      5899      5902      5891      5895      5899      5903
      5893      5891      5895      5897      5893      5891      5895      5898
      5893      5891      5895      5899      5894      5891      5895      5897
      5894      5891      5895      5898      5894      5891      5895      5899
      5895      5899      5903      5905      5895      5899      5903      5906
      5895      5899      5903      5907      5897      5895      5899      5901
      5897      5895      5899      5902      5897      5895      5899      5903
      5898      5895      5899      5901      5898      5895      5899      5902
      5898      5895      5899      5903      5899      5903      5907      5909
      5899      5903      5907      5910      5899      5903      5907      5911
      5901      5899      5903      5905      5901      5899      5903      5906
      5901      5899      5903      5907      5902      5899      5903      5905
      5902      5899      5903      5906      5902      5899      5903      5907
      5903      5907      5911      5913      5903      5907      5911      5914
      5905      5903      5907      5909      5905      5903      5907      5910
      5905      5903      5907      5911      5906      5903      5907      5909
      5906      5903      5907      5910      5906      5903      5907      5911
      5907      5911      5914      5916      5907      5911      5914      5917
      5909      5907      5911      5913      5909      5907      5911      5914
      5910      5907      5911      5913      5910      5907      5911      5914
      5911      5914      5917      5919      5911      5914      5917      5920
      5911      5914      5917      5921      5913      5911      5914      5916
      5913      5911      5914      5917      5914      5917      5921      5923
      5914      5917      5921      5924      5914      5917      5921      5925
      5916      5914      5917      5919      5916      5914      5917      5920
      5916      5914      5917      5921      5917      5921      5925      5927
      5917      5921      5925      5928      5917      5921      5925      5929
      5919      5917      5921      5923      5919      5917      5921      5924
      5919      5917      5921      5925      5920      5917      5921      5923
      5920      5917      5921      5924      5920      5917      5921      5925
      5921      5925      5929      5931      5921      5925      5929      5932
      5921      5925      5929      5933      5923      5921      5925      5927
      5923      5921      5925      5928      5923      5921      5925      5929
      5924      5921      5925      5927      5924      5921      5925      5928
      5924      5921      5925      5929      5925      5929      5933      5935
      5925      5929      5933      5936      5925      5929      5933      5937
      5927      5925      5929      5931      5927      5925      5929      5932
      5927      5925      5929      5933      5928      5925      5929      5931
      5928      5925      5929      5932      5928      5925      5929      5933
      5929      5933      5937      5939      5929      5933      5937      5940
      5929      5933      5937      5941      5931      5929      5933      5935
      5931      5929      5933      5936      5931      5929      5933      5937
      5932      5929      5933      5935      5932      5929      5933      5936
      5932      5929      5933      5937      5933      5937      5941      5943
      5933      5937      5941      5944      5933      5937      5941      5945
      5935      5933      5937      5939      5935      5933      5937      5940
      5935      5933      5937      5941      5936      5933      5937      5939
      5936      5933      5937      5940      5936      5933      5937      5941
      5937      5941      5945      5947      5937      5941      5945      5948
      5937      5941      5945      5949      5939      5937      5941      5943
      5939      5937      5941      5944      5939      5937      5941      5945
      5940      5937      5941      5943      5940      5937      5941      5944
      5940      5937      5941      5945      5943      5941      5945      5947
      5943      5941      5945      5948      5943      5941      5945      5949
      5944      5941      5945      5947      5944      5941      5945      5948
      5944      5941      5945      5949      5950      5954      5958      5960
      5950      5954      5958      5961      5950      5954      5958      5962
      5952      5950      5954      5956      5952      5950      5954      5957
      5952      5950      5954      5958      5953      5950      5954      5956
      5953      5950      5954      5957      5953      5950      5954      5958
      5954      5958      5962      5964      5954      5958      5962      5965
      5954      5958      5962      5966      5956      5954      5958      5960
      5956      5954      5958      5961      5956      5954      5958      5962
      5957      5954      5958      5960      5957      5954      5958      5961
      5957      5954      5958      5962      5958      5962      5966      5968
      5958      5962      5966      5969      5958      5962      5966      5970
      5960      5958      5962      5964      5960      5958      5962      5965
      5960      5958      5962      5966      5961      5958      5962      5964
      5961      5958      5962      5965      5961      5958      5962      5966
      5962      5966      5970      5972      5962      5966      5970      5973
      5962      5966      5970      5974      5964      5962      5966      5968
      5964      5962      5966      5969      5964      5962      5966      5970
      5965      5962      5966      5968      5965      5962      5966      5969
      5965      5962      5966      5970      5966      5970      5974      5976
      5966      5970      5974      5977      5966      5970      5974      5978
      5968      5966      5970      5972      5968      5966      5970      5973
      5968      5966      5970      5974      5969      5966      5970      5972
      5969      5966      5970      5973      5969      5966      5970      5974
      5970      5974      5978      5980      5970      5974      5978      5981
      5970      5974      5978      5982      5972      5970      5974      5976
      5972      5970      5974      5977      5972      5970      5974      5978
      5973      5970      5974      5976      5973      5970      5974      5977
      5973      5970      5974      5978      5974      5978      5982      5984
      5974      5978      5982      5985      5974      5978      5982      5986
      5976      5974      5978      5980      5976      5974      5978      5981
      5976      5974      5978      5982      5977      5974      5978      5980
      5977      5974      5978      5981      5977      5974      5978      5982
      5978      5982      5986      5988      5978      5982      5986      5989
      5978      5982      5986      5990      5980      5978      5982      5984
      5980      5978      5982      5985      5980      5978      5982      5986
      5981      5978      5982      5984      5981      5978      5982      5985
      5981      5978      5982      5986      5982      5986      5990      5992
      5982      5986      5990      5993      5982      5986      5990      5994
      5984      5982      5986      5988      5984      5982      5986      5989
      5984      5982      5986      5990      5985      5982      5986      5988
      5985      5982      5986      5989      5985      5982      5986      5990
      5986      5990      5994      5996      5986      5990      5994      5997
      5986      5990      5994      5998      5988      5986      5990      5992
      5988      5986      5990      5993      5988      5986      5990      5994
      5989      5986      5990      5992      5989      5986      5990      5993
      5989      5986      5990      5994      5990      5994      5998      6000
      5990      5994      5998      6001      5990      5994      5998      6002
      5992      5990      5994      5996      5992      5990      5994      5997
      5992      5990      5994      5998      5993      5990      5994      5996
      5993      5990      5994      5997      5993      5990      5994      5998
      5994      5998      6002      6004      5994      5998      6002      6005
      5994      5998      6002      6006      5996      5994      5998      6000
      5996      5994      5998      6001      5996      5994      5998      6002
      5997      5994      5998      6000      5997      5994      5998      6001
      5997      5994      5998      6002      6000      5998      6002      6004
      6000      5998      6002      6005      6000      5998      6002      6006
      6001      5998      6002      6004      6001      5998      6002      6005
      6001      5998      6002      6006      6007      6012      6016      6018
      6007      6012      6016      6019      6007      6012      6016      6028
      6009      6007      6012      6014      6009      6007      6012      6015
      6009      6007      6012      6016      6010      6007      6012      6014
      6010      6007      6012      6015      6010      6007      6012      6016
      6011      6007      6012      6014      6011      6007      6012      6015
      6011      6007      6012      6016      6012      6016      6028      6020
      6014      6012      6016      6018      6014      6012      6016      6019
      6014      6012      6016      6028      6015      6012      6016      6018
      6015      6012      6016      6019      6015      6012      6016      6028
      6016      6028      6020      6022      6016      6028      6020      6024
      6016      6028      6020      6026      6018      6016      6028      6020
      6019      6016      6028      6020      6020      6026      6030      6032
      6020      6026      6030      6033      6020      6026      6030      6034
      6022      6020      6026      6030      6024      6020      6026      6030
      6026      6030      6034      6036      6026      6030      6034      6037
      6026      6030      6034      6051      6028      6020      6026      6030
      6030      6034      6037      6039      6030      6034      6051      6053
      6030      6034      6051      6054      6030      6034      6051      6055
      6032      6030      6034      6036      6032      6030      6034      6037
      6032      6030      6034      6051      6033      6030      6034      6036
      6033      6030      6034      6037      6033      6030      6034      6051
      6034      6037      6039      6041      6034      6037      6039      6043
      6034      6051      6055      6057      6036      6034      6037      6039
      6036      6034      6051      6053      6036      6034      6051      6054
      6036      6034      6051      6055      6037      6034      6051      6053
      6037      6034      6051      6054      6037      6034      6051      6055
      6037      6039      6043      6045      6037      6039      6043      6046
      6037      6039      6043      6069      6039      6037      6034      6051
      6039      6043      6069      6071      6039      6043      6069      6072
      6039      6043      6069      6073      6041      6039      6043      6045
      6041      6039      6043      6046      6041      6039      6043      6069
      6043      6069      6073      6075      6043      6069      6073      6076
      6043      6069      6073      6077      6045      6043      6069      6071
      6045      6043      6069      6072      6045      6043      6069      6073
      6046      6043      6069      6071      6046      6043      6069      6072
      6046      6043      6069      6073      6051      6055      6057      6059
      6051      6055      6057      6061      6053      6051      6055      6057
      6054      6051      6055      6057      6055      6057      6061      6063
      6055      6057      6061      6064      6055      6057      6061      6132
      6057      6061      6132      6134      6057      6061      6132      6135
      6057      6061      6132      6136      6059      6057      6061      6063
      6059      6057      6061      6064      6059      6057      6061      6132
      6061      6132      6136      6138      6061      6132      6136      6139
      6061      6132      6136      6140      6063      6061      6132      6134
      6063      6061      6132      6135      6063      6061      6132      6136
      6064      6061      6132      6134      6064      6061      6132      6135
      6064      6061      6132      6136      6069      6073      6077      6079
      6069      6073      6077      6080      6069      6073      6077      6081
      6071      6069      6073      6075      6071      6069      6073      6076
      6071      6069      6073      6077      6072      6069      6073      6075
      6072      6069      6073      6076      6072      6069      6073      6077
      6073      6077      6081      6083      6073      6077      6081      6084
      6073      6077      6081      6085      6075      6073      6077      6079
      6075      6073      6077      6080      6075      6073      6077      6081
      6076      6073      6077      6079      6076      6073      6077      6080
      6076      6073      6077      6081      6077      6081      6085      6087
      6077      6081      6085      6088      6077      6081      6085      6089
      6079      6077      6081      6083      6079      6077      6081      6084
      6079      6077      6081      6085      6080      6077      6081      6083
      6080      6077      6081      6084      6080      6077      6081      6085
      6081      6085      6089      6091      6081      6085      6089      6092
      6081      6085      6089      6093      6083      6081      6085      6087
      6083      6081      6085      6088      6083      6081      6085      6089
      6084      6081      6085      6087      6084      6081      6085      6088
      6084      6081      6085      6089      6085      6089      6093      6095
      6085      6089      6093      6096      6087      6085      6089      6091
      6087      6085      6089      6092      6087      6085      6089      6093
      6088      6085      6089      6091      6088      6085      6089      6092
      6088      6085      6089      6093      6089      6093      6096      6098
      6089      6093      6096      6099      6091      6089      6093      6095
      6091      6089      6093      6096      6092      6089      6093      6095
      6092      6089      6093      6096      6093      6096      6099      6101
      6093      6096      6099      6102      6093      6096      6099      6103
      6095      6093      6096      6098      6095      6093      6096      6099
      6096      6099      6103      6105      6096      6099      6103      6106
      6096      6099      6103      6107      6098      6096      6099      6101
      6098      6096      6099      6102      6098      6096      6099      6103
      6099      6103      6107      6109      6099      6103      6107      6110
      6099      6103      6107      6111      6101      6099      6103      6105
      6101      6099      6103      6106      6101      6099      6103      6107
      6102      6099      6103      6105      6102      6099      6103      6106
      6102      6099      6103      6107      6103      6107      6111      6113
      6103      6107      6111      6114      6103      6107      6111      6115
      6105      6103      6107      6109      6105      6103      6107      6110
      6105      6103      6107      6111      6106      6103      6107      6109
      6106      6103      6107      6110      6106      6103      6107      6111
      6107      6111      6115      6117      6107      6111      6115      6118
      6107      6111      6115      6119      6109      6107      6111      6113
      6109      6107      6111      6114      6109      6107      6111      6115
      6110      6107      6111      6113      6110      6107      6111      6114
      6110      6107      6111      6115      6111      6115      6119      6121
      6111      6115      6119      6122      6111      6115      6119      6123
      6113      6111      6115      6117      6113      6111      6115      6118
      6113      6111      6115      6119      6114      6111      6115      6117
      6114      6111      6115      6118      6114      6111      6115      6119
      6115      6119      6123      6125      6115      6119      6123      6126
      6115      6119      6123      6127      6117      6115      6119      6121
      6117      6115      6119      6122      6117      6115      6119      6123
      6118      6115      6119      6121      6118      6115      6119      6122
      6118      6115      6119      6123      6119      6123      6127      6129
      6119      6123      6127      6130      6119      6123      6127      6131
      6121      6119      6123      6125      6121      6119      6123      6126
      6121      6119      6123      6127      6122      6119      6123      6125
      6122      6119      6123      6126      6122      6119      6123      6127
      6125      6123      6127      6129      6125      6123      6127      6130
      6125      6123      6127      6131      6126      6123      6127      6129
      6126      6123      6127      6130      6126      6123      6127      6131
      6132      6136      6140      6142      6132      6136      6140      6143
      6132      6136      6140      6144      6134      6132      6136      6138
      6134      6132      6136      6139      6134      6132      6136      6140
      6135      6132      6136      6138      6135      6132      6136      6139
      6135      6132      6136      6140      6136      6140      6144      6146
      6136      6140      6144      6147      6136      6140      6144      6148
      6138      6136      6140      6142      6138      6136      6140      6143
      6138      6136      6140      6144      6139      6136      6140      6142
      6139      6136      6140      6143      6139      6136      6140      6144
      6140      6144      6148      6150      6140      6144      6148      6151
      6140      6144      6148      6152      6142      6140      6144      6146
      6142      6140      6144      6147      6142      6140      6144      6148
      6143      6140      6144      6146      6143      6140      6144      6147
      6143      6140      6144      6148      6144      6148      6152      6154
      6144      6148      6152      6155      6144      6148      6152      6156
      6146      6144      6148      6150      6146      6144      6148      6151
      6146      6144      6148      6152      6147      6144      6148      6150
      6147      6144      6148      6151      6147      6144      6148      6152
      6148      6152      6156      6158      6148      6152      6156      6159
      6148      6152      6156      6160      6150      6148      6152      6154
      6150      6148      6152      6155      6150      6148      6152      6156
      6151      6148      6152      6154      6151      6148      6152      6155
      6151      6148      6152      6156      6152      6156      6160      6162
      6152      6156      6160      6163      6152      6156      6160      6164
      6154      6152      6156      6158      6154      6152      6156      6159
      6154      6152      6156      6160      6155      6152      6156      6158
      6155      6152      6156      6159      6155      6152      6156      6160
      6156      6160      6164      6166      6156      6160      6164      6167
      6156      6160      6164      6168      6158      6156      6160      6162
      6158      6156      6160      6163      6158      6156      6160      6164
      6159      6156      6160      6162      6159      6156      6160      6163
      6159      6156      6160      6164      6160      6164      6168      6170
      6160      6164      6168      6171      6160      6164      6168      6172
      6162      6160      6164      6166      6162      6160      6164      6167
      6162      6160      6164      6168      6163      6160      6164      6166
      6163      6160      6164      6167      6163      6160      6164      6168
      6164      6168      6172      6174      6164      6168      6172      6175
      6164      6168      6172      6176      6166      6164      6168      6170
      6166      6164      6168      6171      6166      6164      6168      6172
      6167      6164      6168      6170      6167      6164      6168      6171
      6167      6164      6168      6172      6168      6172      6176      6178
      6168      6172      6176      6179      6168      6172      6176      6180
      6170      6168      6172      6174      6170      6168      6172      6175
      6170      6168      6172      6176      6171      6168      6172      6174
      6171      6168      6172      6175      6171      6168      6172      6176
      6172      6176      6180      6182      6172      6176      6180      6183
      6172      6176      6180      6184      6174      6172      6176      6178
      6174      6172      6176      6179      6174      6172      6176      6180
      6175      6172      6176      6178      6175      6172      6176      6179
      6175      6172      6176      6180      6176      6180      6184      6186
      6176      6180      6184      6187      6176      6180      6184      6188
      6178      6176      6180      6182      6178      6176      6180      6183
      6178      6176      6180      6184      6179      6176      6180      6182
      6179      6176      6180      6183      6179      6176      6180      6184
      6182      6180      6184      6186      6182      6180      6184      6187
      6182      6180      6184      6188      6183      6180      6184      6186
      6183      6180      6184      6187      6183      6180      6184      6188
      6189      6194      6198      6200      6189      6194      6198      6201
      6189      6194      6198      6210      6191      6189      6194      6196
      6191      6189      6194      6197      6191      6189      6194      6198
      6192      6189      6194      6196      6192      6189      6194      6197
      6192      6189      6194      6198      6193      6189      6194      6196
      6193      6189      6194      6197      6193      6189      6194      6198
      6194      6198      6210      6202      6196      6194      6198      6200
      6196      6194      6198      6201      6196      6194      6198      6210
      6197      6194      6198      6200      6197      6194      6198      6201
      6197      6194      6198      6210      6198      6210      6202      6204
      6198      6210      6202      6206      6198      6210      6202      6208
      6200      6198      6210      6202      6201      6198      6210      6202
      6202      6208      6212      6214      6202      6208      6212      6215
      6202      6208      6212      6216      6204      6202      6208      6212
      6206      6202      6208      6212      6208      6212      6216      6218
      6208      6212      6216      6219      6208      6212      6216      6233
      6210      6202      6208      6212      6212      6216      6219      6221
      6212      6216      6233      6235      6212      6216      6233      6236
      6212      6216      6233      6237      6214      6212      6216      6218
      6214      6212      6216      6219      6214      6212      6216      6233
      6215      6212      6216      6218      6215      6212      6216      6219
      6215      6212      6216      6233      6216      6219      6221      6223
      6216      6219      6221      6225      6216      6233      6237      6239
      6218      6216      6219      6221      6218      6216      6233      6235
      6218      6216      6233      6236      6218      6216      6233      6237
      6219      6216      6233      6235      6219      6216      6233      6236
      6219      6216      6233      6237      6219      6221      6225      6227
      6219      6221      6225      6228      6219      6221      6225      6251
      6221      6219      6216      6233      6221      6225      6251      6253
      6221      6225      6251      6254      6221      6225      6251      6255
      6223      6221      6225      6227      6223      6221      6225      6228
      6223      6221      6225      6251      6225      6251      6255      6257
      6225      6251      6255      6258      6225      6251      6255      6259
      6227      6225      6251      6253      6227      6225      6251      6254
      6227      6225      6251      6255      6228      6225      6251      6253
      6228      6225      6251      6254      6228      6225      6251      6255
      6233      6237      6239      6241      6233      6237      6239      6243
      6235      6233      6237      6239      6236      6233      6237      6239
      6237      6239      6243      6245      6237      6239      6243      6246
      6237      6239      6243      6314      6239      6243      6314      6316
      6239      6243      6314      6317      6239      6243      6314      6318
      6241      6239      6243      6245      6241      6239      6243      6246
      6241      6239      6243      6314      6243      6314      6318      6320
      6243      6314      6318      6321      6243      6314      6318      6322
      6245      6243      6314      6316      6245      6243      6314      6317
      6245      6243      6314      6318      6246      6243      6314      6316
      6246      6243      6314      6317      6246      6243      6314      6318
      6251      6255      6259      6261      6251      6255      6259      6262
      6251      6255      6259      6263      6253      6251      6255      6257
      6253      6251      6255      6258      6253      6251      6255      6259
      6254      6251      6255      6257      6254      6251      6255      6258
      6254      6251      6255      6259      6255      6259      6263      6265
      6255      6259      6263      6266      6255      6259      6263      6267
      6257      6255      6259      6261      6257      6255      6259      6262
      6257      6255      6259      6263      6258      6255      6259      6261
      6258      6255      6259      6262      6258      6255      6259      6263
      6259      6263      6267      6269      6259      6263      6267      6270
      6259      6263      6267      6271      6261      6259      6263      6265
      6261      6259      6263      6266      6261      6259      6263      6267
      6262      6259      6263      6265      6262      6259      6263      6266
      6262      6259      6263      6267      6263      6267      6271      6273
      6263      6267      6271      6274      6263      6267      6271      6275
      6265      6263      6267      6269      6265      6263      6267      6270
      6265      6263      6267      6271      6266      6263      6267      6269
      6266      6263      6267      6270      6266      6263      6267      6271
      6267      6271      6275      6277      6267      6271      6275      6278
      6269      6267      6271      6273      6269      6267      6271      6274
      6269      6267      6271      6275      6270      6267      6271      6273
      6270      6267      6271      6274      6270      6267      6271      6275
      6271      6275      6278      6280      6271      6275      6278      6281
      6273      6271      6275      6277      6273      6271      6275      6278
      6274      6271      6275      6277      6274      6271      6275      6278
      6275      6278      6281      6283      6275      6278      6281      6284
      6275      6278      6281      6285      6277      6275      6278      6280
      6277      6275      6278      6281      6278      6281      6285      6287
      6278      6281      6285      6288      6278      6281      6285      6289
      6280      6278      6281      6283      6280      6278      6281      6284
      6280      6278      6281      6285      6281      6285      6289      6291
      6281      6285      6289      6292      6281      6285      6289      6293
      6283      6281      6285      6287      6283      6281      6285      6288
      6283      6281      6285      6289      6284      6281      6285      6287
      6284      6281      6285      6288      6284      6281      6285      6289
      6285      6289      6293      6295      6285      6289      6293      6296
      6285      6289      6293      6297      6287      6285      6289      6291
      6287      6285      6289      6292      6287      6285      6289      6293
      6288      6285      6289      6291      6288      6285      6289      6292
      6288      6285      6289      6293      6289      6293      6297      6299
      6289      6293      6297      6300      6289      6293      6297      6301
      6291      6289      6293      6295      6291      6289      6293      6296
      6291      6289      6293      6297      6292      6289      6293      6295
      6292      6289      6293      6296      6292      6289      6293      6297
      6293      6297      6301      6303      6293      6297      6301      6304
      6293      6297      6301      6305      6295      6293      6297      6299
      6295      6293      6297      6300      6295      6293      6297      6301
      6296      6293      6297      6299      6296      6293      6297      6300
      6296      6293      6297      6301      6297      6301      6305      6307
      6297      6301      6305      6308      6297      6301      6305      6309
      6299      6297      6301      6303      6299      6297      6301      6304
      6299      6297      6301      6305      6300      6297      6301      6303
      6300      6297      6301      6304      6300      6297      6301      6305
      6301      6305      6309      6311      6301      6305      6309      6312
      6301      6305      6309      6313      6303      6301      6305      6307
      6303      6301      6305      6308      6303      6301      6305      6309
      6304      6301      6305      6307      6304      6301      6305      6308
      6304      6301      6305      6309      6307      6305      6309      6311
      6307      6305      6309      6312      6307      6305      6309      6313
      6308      6305      6309      6311      6308      6305      6309      6312
      6308      6305      6309      6313      6314      6318      6322      6324
      6314      6318      6322      6325      6314      6318      6322      6326
      6316      6314      6318      6320      6316      6314      6318      6321
      6316      6314      6318      6322      6317      6314      6318      6320
      6317      6314      6318      6321      6317      6314      6318      6322
      6318      6322      6326      6328      6318      6322      6326      6329
      6318      6322      6326      6330      6320      6318      6322      6324
      6320      6318      6322      6325      6320      6318      6322      6326
      6321      6318      6322      6324      6321      6318      6322      6325
      6321      6318      6322      6326      6322      6326      6330      6332
      6322      6326      6330      6333      6322      6326      6330      6334
      6324      6322      6326      6328      6324      6322      6326      6329
      6324      6322      6326      6330      6325      6322      6326      6328
      6325      6322      6326      6329      6325      6322      6326      6330
      6326      6330      6334      6336      6326      6330      6334      6337
      6326      6330      6334      6338      6328      6326      6330      6332
      6328      6326      6330      6333      6328      6326      6330      6334
      6329      6326      6330      6332      6329      6326      6330      6333
      6329      6326      6330      6334      6330      6334      6338      6340
      6330      6334      6338      6341      6330      6334      6338      6342
      6332      6330      6334      6336      6332      6330      6334      6337
      6332      6330      6334      6338      6333      6330      6334      6336
      6333      6330      6334      6337      6333      6330      6334      6338
      6334      6338      6342      6344      6334      6338      6342      6345
      6334      6338      6342      6346      6336      6334      6338      6340
      6336      6334      6338      6341      6336      6334      6338      6342
      6337      6334      6338      6340      6337      6334      6338      6341
      6337      6334      6338      6342      6338      6342      6346      6348
      6338      6342      6346      6349      6338      6342      6346      6350
      6340      6338      6342      6344      6340      6338      6342      6345
      6340      6338      6342      6346      6341      6338      6342      6344
      6341      6338      6342      6345      6341      6338      6342      6346
      6342      6346      6350      6352      6342      6346      6350      6353
      6342      6346      6350      6354      6344      6342      6346      6348
      6344      6342      6346      6349      6344      6342      6346      6350
      6345      6342      6346      6348      6345      6342      6346      6349
      6345      6342      6346      6350      6346      6350      6354      6356
      6346      6350      6354      6357      6346      6350      6354      6358
      6348      6346      6350      6352      6348      6346      6350      6353
      6348      6346      6350      6354      6349      6346      6350      6352
      6349      6346      6350      6353      6349      6346      6350      6354
      6350      6354      6358      6360      6350      6354      6358      6361
      6350      6354      6358      6362      6352      6350      6354      6356
      6352      6350      6354      6357      6352      6350      6354      6358
      6353      6350      6354      6356      6353      6350      6354      6357
      6353      6350      6354      6358      6354      6358      6362      6364
      6354      6358      6362      6365      6354      6358      6362      6366
      6356      6354      6358      6360      6356      6354      6358      6361
      6356      6354      6358      6362      6357      6354      6358      6360
      6357      6354      6358      6361      6357      6354      6358      6362
      6358      6362      6366      6368      6358      6362      6366      6369
      6358      6362      6366      6370      6360      6358      6362      6364
      6360      6358      6362      6365      6360      6358      6362      6366
      6361      6358      6362      6364      6361      6358      6362      6365
      6361      6358      6362      6366      6364      6362      6366      6368
      6364      6362      6366      6369      6364      6362      6366      6370
      6365      6362      6366      6368      6365      6362      6366      6369
      6365      6362      6366      6370      6371      6376      6380      6382
      6371      6376      6380      6383      6371      6376      6380      6392
      6373      6371      6376      6378      6373      6371      6376      6379
      6373      6371      6376      6380      6374      6371      6376      6378
      6374      6371      6376      6379      6374      6371      6376      6380
      6375      6371      6376      6378      6375      6371      6376      6379
      6375      6371      6376      6380      6376      6380      6392      6384
      6378      6376      6380      6382      6378      6376      6380      6383
      6378      6376      6380      6392      6379      6376      6380      6382
      6379      6376      6380      6383      6379      6376      6380      6392
      6380      6392      6384      6386      6380      6392      6384      6388
      6380      6392      6384      6390      6382      6380      6392      6384
      6383      6380      6392      6384      6384      6390      6394      6396
      6384      6390      6394      6397      6384      6390      6394      6398
      6386      6384      6390      6394      6388      6384      6390      6394
      6390      6394      6398      6400      6390      6394      6398      6401
      6390      6394      6398      6415      6392      6384      6390      6394
      6394      6398      6401      6403      6394      6398      6415      6417
      6394      6398      6415      6418      6394      6398      6415      6419
      6396      6394      6398      6400      6396      6394      6398      6401
      6396      6394      6398      6415      6397      6394      6398      6400
      6397      6394      6398      6401      6397      6394      6398      6415
      6398      6401      6403      6405      6398      6401      6403      6407
      6398      6415      6419      6421      6400      6398      6401      6403
      6400      6398      6415      6417      6400      6398      6415      6418
      6400      6398      6415      6419      6401      6398      6415      6417
      6401      6398      6415      6418      6401      6398      6415      6419
      6401      6403      6407      6409      6401      6403      6407      6410
      6401      6403      6407      6433      6403      6401      6398      6415
      6403      6407      6433      6435      6403      6407      6433      6436
      6403      6407      6433      6437      6405      6403      6407      6409
      6405      6403      6407      6410      6405      6403      6407      6433
      6407      6433      6437      6439      6407      6433      6437      6440
      6407      6433      6437      6441      6409      6407      6433      6435
      6409      6407      6433      6436      6409      6407      6433      6437
      6410      6407      6433      6435      6410      6407      6433      6436
      6410      6407      6433      6437      6415      6419      6421      6423
      6415      6419      6421      6425      6417      6415      6419      6421
      6418      6415      6419      6421      6419      6421      6425      6427
      6419      6421      6425      6428      6419      6421      6425      6496
      6421      6425      6496      6498      6421      6425      6496      6499
      6421      6425      6496      6500      6423      6421      6425      6427
      6423      6421      6425      6428      6423      6421      6425      6496
      6425      6496      6500      6502      6425      6496      6500      6503
      6425      6496      6500      6504      6427      6425      6496      6498
      6427      6425      6496      6499      6427      6425      6496      6500
      6428      6425      6496      6498      6428      6425      6496      6499
      6428      6425      6496      6500      6433      6437      6441      6443
      6433      6437      6441      6444      6433      6437      6441      6445
      6435      6433      6437      6439      6435      6433      6437      6440
      6435      6433      6437      6441      6436      6433      6437      6439
      6436      6433      6437      6440      6436      6433      6437      6441
      6437      6441      6445      6447      6437      6441      6445      6448
      6437      6441      6445      6449      6439      6437      6441      6443
      6439      6437      6441      6444      6439      6437      6441      6445
      6440      6437      6441      6443      6440      6437      6441      6444
      6440      6437      6441      6445      6441      6445      6449      6451
      6441      6445      6449      6452      6441      6445      6449      6453
      6443      6441      6445      6447      6443      6441      6445      6448
      6443      6441      6445      6449      6444      6441      6445      6447
      6444      6441      6445      6448      6444      6441      6445      6449
      6445      6449      6453      6455      6445      6449      6453      6456
      6445      6449      6453      6457      6447      6445      6449      6451
      6447      6445      6449      6452      6447      6445      6449      6453
      6448      6445      6449      6451      6448      6445      6449      6452
      6448      6445      6449      6453      6449      6453      6457      6459
      6449      6453      6457      6460      6451      6449      6453      6455
      6451      6449      6453      6456      6451      6449      6453      6457
      6452      6449      6453      6455      6452      6449      6453      6456
      6452      6449      6453      6457      6453      6457      6460      6462
      6453      6457      6460      6463      6455      6453      6457      6459
      6455      6453      6457      6460      6456      6453      6457      6459
      6456      6453      6457      6460      6457      6460      6463      6465
      6457      6460      6463      6466      6457      6460      6463      6467
      6459      6457      6460      6462      6459      6457      6460      6463
      6460      6463      6467      6469      6460      6463      6467      6470
      6460      6463      6467      6471      6462      6460      6463      6465
      6462      6460      6463      6466      6462      6460      6463      6467
      6463      6467      6471      6473      6463      6467      6471      6474
      6463      6467      6471      6475      6465      6463      6467      6469
      6465      6463      6467      6470      6465      6463      6467      6471
      6466      6463      6467      6469      6466      6463      6467      6470
      6466      6463      6467      6471      6467      6471      6475      6477
      6467      6471      6475      6478      6467      6471      6475      6479
      6469      6467      6471      6473      6469      6467      6471      6474
      6469      6467      6471      6475      6470      6467      6471      6473
      6470      6467      6471      6474      6470      6467      6471      6475
      6471      6475      6479      6481      6471      6475      6479      6482
      6471      6475      6479      6483      6473      6471      6475      6477
      6473      6471      6475      6478      6473      6471      6475      6479
      6474      6471      6475      6477      6474      6471      6475      6478
      6474      6471      6475      6479      6475      6479      6483      6485
      6475      6479      6483      6486      6475      6479      6483      6487
      6477      6475      6479      6481      6477      6475      6479      6482
      6477      6475      6479      6483      6478      6475      6479      6481
      6478      6475      6479      6482      6478      6475      6479      6483
      6479      6483      6487      6489      6479      6483      6487      6490
      6479      6483      6487      6491      6481      6479      6483      6485
      6481      6479      6483      6486      6481      6479      6483      6487
      6482      6479      6483      6485      6482      6479      6483      6486
      6482      6479      6483      6487      6483      6487      6491      6493
      6483      6487      6491      6494      6483      6487      6491      6495
      6485      6483      6487      6489      6485      6483      6487      6490
      6485      6483      6487      6491      6486      6483      6487      6489
      6486      6483      6487      6490      6486      6483      6487      6491
      6489      6487      6491      6493      6489      6487      6491      6494
      6489      6487      6491      6495      6490      6487      6491      6493
      6490      6487      6491      6494      6490      6487      6491      6495
      6496      6500      6504      6506      6496      6500      6504      6507
      6496      6500      6504      6508      6498      6496      6500      6502
      6498      6496      6500      6503      6498      6496      6500      6504
      6499      6496      6500      6502      6499      6496      6500      6503
      6499      6496      6500      6504      6500      6504      6508      6510
      6500      6504      6508      6511      6500      6504      6508      6512
      6502      6500      6504      6506      6502      6500      6504      6507
      6502      6500      6504      6508      6503      6500      6504      6506
      6503      6500      6504      6507      6503      6500      6504      6508
      6504      6508      6512      6514      6504      6508      6512      6515
      6504      6508      6512      6516      6506      6504      6508      6510
      6506      6504      6508      6511      6506      6504      6508      6512
      6507      6504      6508      6510      6507      6504      6508      6511
      6507      6504      6508      6512      6508      6512      6516      6518
      6508      6512      6516      6519      6508      6512      6516      6520
      6510      6508      6512      6514      6510      6508      6512      6515
      6510      6508      6512      6516      6511      6508      6512      6514
      6511      6508      6512      6515      6511      6508      6512      6516
      6512      6516      6520      6522      6512      6516      6520      6523
      6512      6516      6520      6524      6514      6512      6516      6518
      6514      6512      6516      6519      6514      6512      6516      6520
      6515      6512      6516      6518      6515      6512      6516      6519
      6515      6512      6516      6520      6516      6520      6524      6526
      6516      6520      6524      6527      6516      6520      6524      6528
      6518      6516      6520      6522      6518      6516      6520      6523
      6518      6516      6520      6524      6519      6516      6520      6522
      6519      6516      6520      6523      6519      6516      6520      6524
      6520      6524      6528      6530      6520      6524      6528      6531
      6520      6524      6528      6532      6522      6520      6524      6526
      6522      6520      6524      6527      6522      6520      6524      6528
      6523      6520      6524      6526      6523      6520      6524      6527
      6523      6520      6524      6528      6524      6528      6532      6534
      6524      6528      6532      6535      6524      6528      6532      6536
      6526      6524      6528      6530      6526      6524      6528      6531
      6526      6524      6528      6532      6527      6524      6528      6530
      6527      6524      6528      6531      6527      6524      6528      6532
      6528      6532      6536      6538      6528      6532      6536      6539
      6528      6532      6536      6540      6530      6528      6532      6534
      6530      6528      6532      6535      6530      6528      6532      6536
      6531      6528      6532      6534      6531      6528      6532      6535
      6531      6528      6532      6536      6532      6536      6540      6542
      6532      6536      6540      6543      6532      6536      6540      6544
      6534      6532      6536      6538      6534      6532      6536      6539
      6534      6532      6536      6540      6535      6532      6536      6538
      6535      6532      6536      6539      6535      6532      6536      6540
      6536      6540      6544      6546      6536      6540      6544      6547
      6536      6540      6544      6548      6538      6536      6540      6542
      6538      6536      6540      6543      6538      6536      6540      6544
      6539      6536      6540      6542      6539      6536      6540      6543
      6539      6536      6540      6544      6540      6544      6548      6550
      6540      6544      6548      6551      6540      6544      6548      6552
      6542      6540      6544      6546      6542      6540      6544      6547
      6542      6540      6544      6548      6543      6540      6544      6546
      6543      6540      6544      6547      6543      6540      6544      6548
      6546      6544      6548      6550      6546      6544      6548      6551
      6546      6544      6548      6552      6547      6544      6548      6550
      6547      6544      6548      6551      6547      6544      6548      6552
      6553      6558      6562      6564      6553      6558      6562      6565
      6553      6558      6562      6574      6555      6553      6558      6560
      6555      6553      6558      6561      6555      6553      6558      6562
      6556      6553      6558      6560      6556      6553      6558      6561
      6556      6553      6558      6562      6557      6553      6558      6560
      6557      6553      6558      6561      6557      6553      6558      6562
      6558      6562      6574      6566      6560      6558      6562      6564
      6560      6558      6562      6565      6560      6558      6562      6574
      6561      6558      6562      6564      6561      6558      6562      6565
      6561      6558      6562      6574      6562      6574      6566      6568
      6562      6574      6566      6570      6562      6574      6566      6572
      6564      6562      6574      6566      6565      6562      6574      6566
      6566      6572      6576      6578      6566      6572      6576      6579
      6566      6572      6576      6580      6568      6566      6572      6576
      6570      6566      6572      6576      6572      6576      6580      6582
      6572      6576      6580      6583      6572      6576      6580      6597
      6574      6566      6572      6576      6576      6580      6583      6585
      6576      6580      6597      6599      6576      6580      6597      6600
      6576      6580      6597      6601      6578      6576      6580      6582
      6578      6576      6580      6583      6578      6576      6580      6597
      6579      6576      6580      6582      6579      6576      6580      6583
      6579      6576      6580      6597      6580      6583      6585      6587
      6580      6583      6585      6589      6580      6597      6601      6603
      6582      6580      6583      6585      6582      6580      6597      6599
      6582      6580      6597      6600      6582      6580      6597      6601
      6583      6580      6597      6599      6583      6580      6597      6600
      6583      6580      6597      6601      6583      6585      6589      6591
      6583      6585      6589      6592      6583      6585      6589      6615
      6585      6583      6580      6597      6585      6589      6615      6617
      6585      6589      6615      6618      6585      6589      6615      6619
      6587      6585      6589      6591      6587      6585      6589      6592
      6587      6585      6589      6615      6589      6615      6619      6621
      6589      6615      6619      6622      6589      6615      6619      6623
      6591      6589      6615      6617      6591      6589      6615      6618
      6591      6589      6615      6619      6592      6589      6615      6617
      6592      6589      6615      6618      6592      6589      6615      6619
      6597      6601      6603      6605      6597      6601      6603      6607
      6599      6597      6601      6603      6600      6597      6601      6603
      6601      6603      6607      6609      6601      6603      6607      6610
      6601      6603      6607      6678      6603      6607      6678      6680
      6603      6607      6678      6681      6603      6607      6678      6682
      6605      6603      6607      6609      6605      6603      6607      6610
      6605      6603      6607      6678      6607      6678      6682      6684
      6607      6678      6682      6685      6607      6678      6682      6686
      6609      6607      6678      6680      6609      6607      6678      6681
      6609      6607      6678      6682      6610      6607      6678      6680
      6610      6607      6678      6681      6610      6607      6678      6682
      6615      6619      6623      6625      6615      6619      6623      6626
      6615      6619      6623      6627      6617      6615      6619      6621
      6617      6615      6619      6622      6617      6615      6619      6623
      6618      6615      6619      6621      6618      6615      6619      6622
      6618      6615      6619      6623      6619      6623      6627      6629
      6619      6623      6627      6630      6619      6623      6627      6631
      6621      6619      6623      6625      6621      6619      6623      6626
      6621      6619      6623      6627      6622      6619      6623      6625
      6622      6619      6623      6626      6622      6619      6623      6627
      6623      6627      6631      6633      6623      6627      6631      6634
      6623      6627      6631      6635      6625      6623      6627      6629
      6625      6623      6627      6630      6625      6623      6627      6631
      6626      6623      6627      6629      6626      6623      6627      6630
      6626      6623      6627      6631      6627      6631      6635      6637
      6627      6631      6635      6638      6627      6631      6635      6639
      6629      6627      6631      6633      6629      6627      6631      6634
      6629      6627      6631      6635      6630      6627      6631      6633
      6630      6627      6631      6634      6630      6627      6631      6635
      6631      6635      6639      6641      6631      6635      6639      6642
      6633      6631      6635      6637      6633      6631      6635      6638
      6633      6631      6635      6639      6634      6631      6635      6637
      6634      6631      6635      6638      6634      6631      6635      6639
      6635      6639      6642      6644      6635      6639      6642      6645
      6637      6635      6639      6641      6637      6635      6639      6642
      6638      6635      6639      6641      6638      6635      6639      6642
      6639      6642      6645      6647      6639      6642      6645      6648
      6639      6642      6645      6649      6641      6639      6642      6644
      6641      6639      6642      6645      6642      6645      6649      6651
      6642      6645      6649      6652      6642      6645      6649      6653
      6644      6642      6645      6647      6644      6642      6645      6648
      6644      6642      6645      6649      6645      6649      6653      6655
      6645      6649      6653      6656      6645      6649      6653      6657
      6647      6645      6649      6651      6647      6645      6649      6652
      6647      6645      6649      6653      6648      6645      6649      6651
      6648      6645      6649      6652      6648      6645      6649      6653
      6649      6653      6657      6659      6649      6653      6657      6660
      6649      6653      6657      6661      6651      6649      6653      6655
      6651      6649      6653      6656      6651      6649      6653      6657
      6652      6649      6653      6655      6652      6649      6653      6656
      6652      6649      6653      6657      6653      6657      6661      6663
      6653      6657      6661      6664      6653      6657      6661      6665
      6655      6653      6657      6659      6655      6653      6657      6660
      6655      6653      6657      6661      6656      6653      6657      6659
      6656      6653      6657      6660      6656      6653      6657      6661
      6657      6661      6665      6667      6657      6661      6665      6668
      6657      6661      6665      6669      6659      6657      6661      6663
      6659      6657      6661      6664      6659      6657      6661      6665
      6660      6657      6661      6663      6660      6657      6661      6664
      6660      6657      6661      6665      6661      6665      6669      6671
      6661      6665      6669      6672      6661      6665      6669      6673
      6663      6661      6665      6667      6663      6661      6665      6668
      6663      6661      6665      6669      6664      6661      6665      6667
      6664      6661      6665      6668      6664      6661      6665      6669
      6665      6669      6673      6675      6665      6669      6673      6676
      6665      6669      6673      6677      6667      6665      6669      6671
      6667      6665      6669      6672      6667      6665      6669      6673
      6668      6665      6669      6671      6668      6665      6669      6672
      6668      6665      6669      6673      6671      6669      6673      6675
      6671      6669      6673      6676      6671      6669      6673      6677
      6672      6669      6673      6675      6672      6669      6673      6676
      6672      6669      6673      6677      6678      6682      6686      6688
      6678      6682      6686      6689      6678      6682      6686      6690
      6680      6678      6682      6684      6680      6678      6682      6685
      6680      6678      6682      6686      6681      6678      6682      6684
      6681      6678      6682      6685      6681      6678      6682      6686
      6682      6686      6690      6692      6682      6686      6690      6693
      6682      6686      6690      6694      6684      6682      6686      6688
      6684      6682      6686      6689      6684      6682      6686      6690
      6685      6682      6686      6688      6685      6682      6686      6689
      6685      6682      6686      6690      6686      6690      6694      6696
      6686      6690      6694      6697      6686      6690      6694      6698
      6688      6686      6690      6692      6688      6686      6690      6693
      6688      6686      6690      6694      6689      6686      6690      6692
      6689      6686      6690      6693      6689      6686      6690      6694
      6690      6694      6698      6700      6690      6694      6698      6701
      6690      6694      6698      6702      6692      6690      6694      6696
      6692      6690      6694      6697      6692      6690      6694      6698
      6693      6690      6694      6696      6693      6690      6694      6697
      6693      6690      6694      6698      6694      6698      6702      6704
      6694      6698      6702      6705      6694      6698      6702      6706
      6696      6694      6698      6700      6696      6694      6698      6701
      6696      6694      6698      6702      6697      6694      6698      6700
      6697      6694      6698      6701      6697      6694      6698      6702
      6698      6702      6706      6708      6698      6702      6706      6709
      6698      6702      6706      6710      6700      6698      6702      6704
      6700      6698      6702      6705      6700      6698      6702      6706
      6701      6698      6702      6704      6701      6698      6702      6705
      6701      6698      6702      6706      6702      6706      6710      6712
      6702      6706      6710      6713      6702      6706      6710      6714
      6704      6702      6706      6708      6704      6702      6706      6709
      6704      6702      6706      6710      6705      6702      6706      6708
      6705      6702      6706      6709      6705      6702      6706      6710
      6706      6710      6714      6716      6706      6710      6714      6717
      6706      6710      6714      6718      6708      6706      6710      6712
      6708      6706      6710      6713      6708      6706      6710      6714
      6709      6706      6710      6712      6709      6706      6710      6713
      6709      6706      6710      6714      6710      6714      6718      6720
      6710      6714      6718      6721      6710      6714      6718      6722
      6712      6710      6714      6716      6712      6710      6714      6717
      6712      6710      6714      6718      6713      6710      6714      6716
      6713      6710      6714      6717      6713      6710      6714      6718
      6714      6718      6722      6724      6714      6718      6722      6725
      6714      6718      6722      6726      6716      6714      6718      6720
      6716      6714      6718      6721      6716      6714      6718      6722
      6717      6714      6718      6720      6717      6714      6718      6721
      6717      6714      6718      6722      6718      6722      6726      6728
      6718      6722      6726      6729      6718      6722      6726      6730
      6720      6718      6722      6724      6720      6718      6722      6725
      6720      6718      6722      6726      6721      6718      6722      6724
      6721      6718      6722      6725      6721      6718      6722      6726
      6722      6726      6730      6732      6722      6726      6730      6733
      6722      6726      6730      6734      6724      6722      6726      6728
      6724      6722      6726      6729      6724      6722      6726      6730
      6725      6722      6726      6728      6725      6722      6726      6729
      6725      6722      6726      6730      6728      6726      6730      6732
      6728      6726      6730      6733      6728      6726      6730      6734
      6729      6726      6730      6732      6729      6726      6730      6733
      6729      6726      6730      6734      6735      6740      6744      6746
      6735      6740      6744      6747      6735      6740      6744      6756
      6737      6735      6740      6742      6737      6735      6740      6743
      6737      6735      6740      6744      6738      6735      6740      6742
      6738      6735      6740      6743      6738      6735      6740      6744
      6739      6735      6740      6742      6739      6735      6740      6743
      6739      6735      6740      6744      6740      6744      6756      6748
      6742      6740      6744      6746      6742      6740      6744      6747
      6742      6740      6744      6756      6743      6740      6744      6746
      6743      6740      6744      6747      6743      6740      6744      6756
      6744      6756      6748      6750      6744      6756      6748      6752
      6744      6756      6748      6754      6746      6744      6756      6748
      6747      6744      6756      6748      6748      6754      6758      6760
      6748      6754      6758      6761      6748      6754      6758      6762
      6750      6748      6754      6758      6752      6748      6754      6758
      6754      6758      6762      6764      6754      6758      6762      6765
      6754      6758      6762      6779      6756      6748      6754      6758
      6758      6762      6765      6767      6758      6762      6779      6781
      6758      6762      6779      6782      6758      6762      6779      6783
      6760      6758      6762      6764      6760      6758      6762      6765
      6760      6758      6762      6779      6761      6758      6762      6764
      6761      6758      6762      6765      6761      6758      6762      6779
      6762      6765      6767      6769      6762      6765      6767      6771
      6762      6779      6783      6785      6764      6762      6765      6767
      6764      6762      6779      6781      6764      6762      6779      6782
      6764      6762      6779      6783      6765      6762      6779      6781
      6765      6762      6779      6782      6765      6762      6779      6783
      6765      6767      6771      6773      6765      6767      6771      6774
      6765      6767      6771      6797      6767      6765      6762      6779
      6767      6771      6797      6799      6767      6771      6797      6800
      6767      6771      6797      6801      6769      6767      6771      6773
      6769      6767      6771      6774      6769      6767      6771      6797
      6771      6797      6801      6803      6771      6797      6801      6804
      6771      6797      6801      6805      6773      6771      6797      6799
      6773      6771      6797      6800      6773      6771      6797      6801
      6774      6771      6797      6799      6774      6771      6797      6800
      6774      6771      6797      6801      6779      6783      6785      6787
      6779      6783      6785      6789      6781      6779      6783      6785
      6782      6779      6783      6785      6783      6785      6789      6791
      6783      6785      6789      6792      6783      6785      6789      6860
      6785      6789      6860      6862      6785      6789      6860      6863
      6785      6789      6860      6864      6787      6785      6789      6791
      6787      6785      6789      6792      6787      6785      6789      6860
      6789      6860      6864      6866      6789      6860      6864      6867
      6789      6860      6864      6868      6791      6789      6860      6862
      6791      6789      6860      6863      6791      6789      6860      6864
      6792      6789      6860      6862      6792      6789      6860      6863
      6792      6789      6860      6864      6797      6801      6805      6807
      6797      6801      6805      6808      6797      6801      6805      6809
      6799      6797      6801      6803      6799      6797      6801      6804
      6799      6797      6801      6805      6800      6797      6801      6803
      6800      6797      6801      6804      6800      6797      6801      6805
      6801      6805      6809      6811      6801      6805      6809      6812
      6801      6805      6809      6813      6803      6801      6805      6807
      6803      6801      6805      6808      6803      6801      6805      6809
      6804      6801      6805      6807      6804      6801      6805      6808
      6804      6801      6805      6809      6805      6809      6813      6815
      6805      6809      6813      6816      6805      6809      6813      6817
      6807      6805      6809      6811      6807      6805      6809      6812
      6807      6805      6809      6813      6808      6805      6809      6811
      6808      6805      6809      6812      6808      6805      6809      6813
      6809      6813      6817      6819      6809      6813      6817      6820
      6809      6813      6817      6821      6811      6809      6813      6815
      6811      6809      6813      6816      6811      6809      6813      6817
      6812      6809      6813      6815      6812      6809      6813      6816
      6812      6809      6813      6817      6813      6817      6821      6823
      6813      6817      6821      6824      6815      6813      6817      6819
      6815      6813      6817      6820      6815      6813      6817      6821
      6816      6813      6817      6819      6816      6813      6817      6820
      6816      6813      6817      6821      6817      6821      6824      6826
      6817      6821      6824      6827      6819      6817      6821      6823
      6819      6817      6821      6824      6820      6817      6821      6823
      6820      6817      6821      6824      6821      6824      6827      6829
      6821      6824      6827      6830      6821      6824      6827      6831
      6823      6821      6824      6826      6823      6821      6824      6827
      6824      6827      6831      6833      6824      6827      6831      6834
      6824      6827      6831      6835      6826      6824      6827      6829
      6826      6824      6827      6830      6826      6824      6827      6831
      6827      6831      6835      6837      6827      6831      6835      6838
      6827      6831      6835      6839      6829      6827      6831      6833
      6829      6827      6831      6834      6829      6827      6831      6835
      6830      6827      6831      6833      6830      6827      6831      6834
      6830      6827      6831      6835      6831      6835      6839      6841
      6831      6835      6839      6842      6831      6835      6839      6843
      6833      6831      6835      6837      6833      6831      6835      6838
      6833      6831      6835      6839      6834      6831      6835      6837
      6834      6831      6835      6838      6834      6831      6835      6839
      6835      6839      6843      6845      6835      6839      6843      6846
      6835      6839      6843      6847      6837      6835      6839      6841
      6837      6835      6839      6842      6837      6835      6839      6843
      6838      6835      6839      6841      6838      6835      6839      6842
      6838      6835      6839      6843      6839      6843      6847      6849
      6839      6843      6847      6850      6839      6843      6847      6851
      6841      6839      6843      6845      6841      6839      6843      6846
      6841      6839      6843      6847      6842      6839      6843      6845
      6842      6839      6843      6846      6842      6839      6843      6847
      6843      6847      6851      6853      6843      6847      6851      6854
      6843      6847      6851      6855      6845      6843      6847      6849
      6845      6843      6847      6850      6845      6843      6847      6851
      6846      6843      6847      6849      6846      6843      6847      6850
      6846      6843      6847      6851      6847      6851      6855      6857
      6847      6851      6855      6858      6847      6851      6855      6859
      6849      6847      6851      6853      6849      6847      6851      6854
      6849      6847      6851      6855      6850      6847      6851      6853
      6850      6847      6851      6854      6850      6847      6851      6855
      6853      6851      6855      6857      6853      6851      6855      6858
      6853      6851      6855      6859      6854      6851      6855      6857
      6854      6851      6855      6858      6854      6851      6855      6859
      6860      6864      6868      6870      6860      6864      6868      6871
      6860      6864      6868      6872      6862      6860      6864      6866
      6862      6860      6864      6867      6862      6860      6864      6868
      6863      6860      6864      6866      6863      6860      6864      6867
      6863      6860      6864      6868      6864      6868      6872      6874
      6864      6868      6872      6875      6864      6868      6872      6876
      6866      6864      6868      6870      6866      6864      6868      6871
      6866      6864      6868      6872      6867      6864      6868      6870
      6867      6864      6868      6871      6867      6864      6868      6872
      6868      6872      6876      6878      6868      6872      6876      6879
      6868      6872      6876      6880      6870      6868      6872      6874
      6870      6868      6872      6875      6870      6868      6872      6876
      6871      6868      6872      6874      6871      6868      6872      6875
      6871      6868      6872      6876      6872      6876      6880      6882
      6872      6876      6880      6883      6872      6876      6880      6884
      6874      6872      6876      6878      6874      6872      6876      6879
      6874      6872      6876      6880      6875      6872      6876      6878
      6875      6872      6876      6879      6875      6872      6876      6880
      6876      6880      6884      6886      6876      6880      6884      6887
      6876      6880      6884      6888      6878      6876      6880      6882
      6878      6876      6880      6883      6878      6876      6880      6884
      6879      6876      6880      6882      6879      6876      6880      6883
      6879      6876      6880      6884      6880      6884      6888      6890
      6880      6884      6888      6891      6880      6884      6888      6892
      6882      6880      6884      6886      6882      6880      6884      6887
      6882      6880      6884      6888      6883      6880      6884      6886
      6883      6880      6884      6887      6883      6880      6884      6888
      6884      6888      6892      6894      6884      6888      6892      6895
      6884      6888      6892      6896      6886      6884      6888      6890
      6886      6884      6888      6891      6886      6884      6888      6892
      6887      6884      6888      6890      6887      6884      6888      6891
      6887      6884      6888      6892      6888      6892      6896      6898
      6888      6892      6896      6899      6888      6892      6896      6900
      6890      6888      6892      6894      6890      6888      6892      6895
      6890      6888      6892      6896      6891      6888      6892      6894
      6891      6888      6892      6895      6891      6888      6892      6896
      6892      6896      6900      6902      6892      6896      6900      6903
      6892      6896      6900      6904      6894      6892      6896      6898
      6894      6892      6896      6899      6894      6892      6896      6900
      6895      6892      6896      6898      6895      6892      6896      6899
      6895      6892      6896      6900      6896      6900      6904      6906
      6896      6900      6904      6907      6896      6900      6904      6908
      6898      6896      6900      6902      6898      6896      6900      6903
      6898      6896      6900      6904      6899      6896      6900      6902
      6899      6896      6900      6903      6899      6896      6900      6904
      6900      6904      6908      6910      6900      6904      6908      6911
      6900      6904      6908      6912      6902      6900      6904      6906
      6902      6900      6904      6907      6902      6900      6904      6908
      6903      6900      6904      6906      6903      6900      6904      6907
      6903      6900      6904      6908      6904      6908      6912      6914
      6904      6908      6912      6915      6904      6908      6912      6916
      6906      6904      6908      6910      6906      6904      6908      6911
      6906      6904      6908      6912      6907      6904      6908      6910
      6907      6904      6908      6911      6907      6904      6908      6912
      6910      6908      6912      6914      6910      6908      6912      6915
      6910      6908      6912      6916      6911      6908      6912      6914
      6911      6908      6912      6915      6911      6908      6912      6916
      6917      6922      6926      6928      6917      6922      6926      6929
      6917      6922      6926      6938      6919      6917      6922      6924
      6919      6917      6922      6925      6919      6917      6922      6926
      6920      6917      6922      6924      6920      6917      6922      6925
      6920      6917      6922      6926      6921      6917      6922      6924
      6921      6917      6922      6925      6921      6917      6922      6926
      6922      6926      6938      6930      6924      6922      6926      6928
      6924      6922      6926      6929      6924      6922      6926      6938
      6925      6922      6926      6928      6925      6922      6926      6929
      6925      6922      6926      6938      6926      6938      6930      6932
      6926      6938      6930      6934      6926      6938      6930      6936
      6928      6926      6938      6930      6929      6926      6938      6930
      6930      6936      6940      6942      6930      6936      6940      6943
      6930      6936      6940      6944      6932      6930      6936      6940
      6934      6930      6936      6940      6936      6940      6944      6946
      6936      6940      6944      6947      6936      6940      6944      6961
      6938      6930      6936      6940      6940      6944      6947      6949
      6940      6944      6961      6963      6940      6944      6961      6964
      6940      6944      6961      6965      6942      6940      6944      6946
      6942      6940      6944      6947      6942      6940      6944      6961
      6943      6940      6944      6946      6943      6940      6944      6947
      6943      6940      6944      6961      6944      6947      6949      6951
      6944      6947      6949      6953      6944      6961      6965      6967
      6946      6944      6947      6949      6946      6944      6961      6963
      6946      6944      6961      6964      6946      6944      6961      6965
      6947      6944      6961      6963      6947      6944      6961      6964
      6947      6944      6961      6965      6947      6949      6953      6955
      6947      6949      6953      6956      6947      6949      6953      6979
      6949      6947      6944      6961      6949      6953      6979      6981
      6949      6953      6979      6982      6949      6953      6979      6983
      6951      6949      6953      6955      6951      6949      6953      6956
      6951      6949      6953      6979      6953      6979      6983      6985
      6953      6979      6983      6986      6953      6979      6983      6987
      6955      6953      6979      6981      6955      6953      6979      6982
      6955      6953      6979      6983      6956      6953      6979      6981
      6956      6953      6979      6982      6956      6953      6979      6983
      6961      6965      6967      6969      6961      6965      6967      6971
      6963      6961      6965      6967      6964      6961      6965      6967
      6965      6967      6971      6973      6965      6967      6971      6974
      6965      6967      6971      7042      6967      6971      7042      7044
      6967      6971      7042      7045      6967      6971      7042      7046
      6969      6967      6971      6973      6969      6967      6971      6974
      6969      6967      6971      7042      6971      7042      7046      7048
      6971      7042      7046      7049      6971      7042      7046      7050
      6973      6971      7042      7044      6973      6971      7042      7045
      6973      6971      7042      7046      6974      6971      7042      7044
      6974      6971      7042      7045      6974      6971      7042      7046
      6979      6983      6987      6989      6979      6983      6987      6990
      6979      6983      6987      6991      6981      6979      6983      6985
      6981      6979      6983      6986      6981      6979      6983      6987
      6982      6979      6983      6985      6982      6979      6983      6986
      6982      6979      6983      6987      6983      6987      6991      6993
      6983      6987      6991      6994      6983      6987      6991      6995
      6985      6983      6987      6989      6985      6983      6987      6990
      6985      6983      6987      6991      6986      6983      6987      6989
      6986      6983      6987      6990      6986      6983      6987      6991
      6987      6991      6995      6997      6987      6991      6995      6998
      6987      6991      6995      6999      6989      6987      6991      6993
      6989      6987      6991      6994      6989      6987      6991      6995
      6990      6987      6991      6993      6990      6987      6991      6994
      6990      6987      6991      6995      6991      6995      6999      7001
      6991      6995      6999      7002      6991      6995      6999      7003
      6993      6991      6995      6997      6993      6991      6995      6998
      6993      6991      6995      6999      6994      6991      6995      6997
      6994      6991      6995      6998      6994      6991      6995      6999
      6995      6999      7003      7005      6995      6999      7003      7006
      6997      6995      6999      7001      6997      6995      6999      7002
      6997      6995      6999      7003      6998      6995      6999      7001
      6998      6995      6999      7002      6998      6995      6999      7003
      6999      7003      7006      7008      6999      7003      7006      7009
      7001      6999      7003      7005      7001      6999      7003      7006
      7002      6999      7003      7005      7002      6999      7003      7006
      7003      7006      7009      7011      7003      7006      7009      7012
      7003      7006      7009      7013      7005      7003      7006      7008
      7005      7003      7006      7009      7006      7009      7013      7015
      7006      7009      7013      7016      7006      7009      7013      7017
      7008      7006      7009      7011      7008      7006      7009      7012
      7008      7006      7009      7013      7009      7013      7017      7019
      7009      7013      7017      7020      7009      7013      7017      7021
      7011      7009      7013      7015      7011      7009      7013      7016
      7011      7009      7013      7017      7012      7009      7013      7015
      7012      7009      7013      7016      7012      7009      7013      7017
      7013      7017      7021      7023      7013      7017      7021      7024
      7013      7017      7021      7025      7015      7013      7017      7019
      7015      7013      7017      7020      7015      7013      7017      7021
      7016      7013      7017      7019      7016      7013      7017      7020
      7016      7013      7017      7021      7017      7021      7025      7027
      7017      7021      7025      7028      7017      7021      7025      7029
      7019      7017      7021      7023      7019      7017      7021      7024
      7019      7017      7021      7025      7020      7017      7021      7023
      7020      7017      7021      7024      7020      7017      7021      7025
      7021      7025      7029      7031      7021      7025      7029      7032
      7021      7025      7029      7033      7023      7021      7025      7027
      7023      7021      7025      7028      7023      7021      7025      7029
      7024      7021      7025      7027      7024      7021      7025      7028
      7024      7021      7025      7029      7025      7029      7033      7035
      7025      7029      7033      7036      7025      7029      7033      7037
      7027      7025      7029      7031      7027      7025      7029      7032
      7027      7025      7029      7033      7028      7025      7029      7031
      7028      7025      7029      7032      7028      7025      7029      7033
      7029      7033      7037      7039      7029      7033      7037      7040
      7029      7033      7037      7041      7031      7029      7033      7035
      7031      7029      7033      7036      7031      7029      7033      7037
      7032      7029      7033      7035      7032      7029      7033      7036
      7032      7029      7033      7037      7035      7033      7037      7039
      7035      7033      7037      7040      7035      7033      7037      7041
      7036      7033      7037      7039      7036      7033      7037      7040
      7036      7033      7037      7041      7042      7046      7050      7052
      7042      7046      7050      7053      7042      7046      7050      7054
      7044      7042      7046      7048      7044      7042      7046      7049
      7044      7042      7046      7050      7045      7042      7046      7048
      7045      7042      7046      7049      7045      7042      7046      7050
      7046      7050      7054      7056      7046      7050      7054      7057
      7046      7050      7054      7058      7048      7046      7050      7052
      7048      7046      7050      7053      7048      7046      7050      7054
      7049      7046      7050      7052      7049      7046      7050      7053
      7049      7046      7050      7054      7050      7054      7058      7060
      7050      7054      7058      7061      7050      7054      7058      7062
      7052      7050      7054      7056      7052      7050      7054      7057
      7052      7050      7054      7058      7053      7050      7054      7056
      7053      7050      7054      7057      7053      7050      7054      7058
      7054      7058      7062      7064      7054      7058      7062      7065
      7054      7058      7062      7066      7056      7054      7058      7060
      7056      7054      7058      7061      7056      7054      7058      7062
      7057      7054      7058      7060      7057      7054      7058      7061
      7057      7054      7058      7062      7058      7062      7066      7068
      7058      7062      7066      7069      7058      7062      7066      7070
      7060      7058      7062      7064      7060      7058      7062      7065
      7060      7058      7062      7066      7061      7058      7062      7064
      7061      7058      7062      7065      7061      7058      7062      7066
      7062      7066      7070      7072      7062      7066      7070      7073
      7062      7066      7070      7074      7064      7062      7066      7068
      7064      7062      7066      7069      7064      7062      7066      7070
      7065      7062      7066      7068      7065      7062      7066      7069
      7065      7062      7066      7070      7066      7070      7074      7076
      7066      7070      7074      7077      7066      7070      7074      7078
      7068      7066      7070      7072      7068      7066      7070      7073
      7068      7066      7070      7074      7069      7066      7070      7072
      7069      7066      7070      7073      7069      7066      7070      7074
      7070      7074      7078      7080      7070      7074      7078      7081
      7070      7074      7078      7082      7072      7070      7074      7076
      7072      7070      7074      7077      7072      7070      7074      7078
      7073      7070      7074      7076      7073      7070      7074      7077
      7073      7070      7074      7078      7074      7078      7082      7084
      7074      7078      7082      7085      7074      7078      7082      7086
      7076      7074      7078      7080      7076      7074      7078      7081
      7076      7074      7078      7082      7077      7074      7078      7080
      7077      7074      7078      7081      7077      7074      7078      7082
      7078      7082      7086      7088      7078      7082      7086      7089
      7078      7082      7086      7090      7080      7078      7082      7084
      7080      7078      7082      7085      7080      7078      7082      7086
      7081      7078      7082      7084      7081      7078      7082      7085
      7081      7078      7082      7086      7082      7086      7090      7092
      7082      7086      7090      7093      7082      7086      7090      7094
      7084      7082      7086      7088      7084      7082      7086      7089
      7084      7082      7086      7090      7085      7082      7086      7088
      7085      7082      7086      7089      7085      7082      7086      7090
      7086      7090      7094      7096      7086      7090      7094      7097
      7086      7090      7094      7098      7088      7086      7090      7092
      7088      7086      7090      7093      7088      7086      7090      7094
      7089      7086      7090      7092      7089      7086      7090      7093
      7089      7086      7090      7094      7092      7090      7094      7096
      7092      7090      7094      7097      7092      7090      7094      7098
      7093      7090      7094      7096      7093      7090      7094      7097
      7093      7090      7094      7098      7099      7104      7108      7110
      7099      7104      7108      7111      7099      7104      7108      7120
      7101      7099      7104      7106      7101      7099      7104      7107
      7101      7099      7104      7108      7102      7099      7104      7106
      7102      7099      7104      7107      7102      7099      7104      7108
      7103      7099      7104      7106      7103      7099      7104      7107
      7103      7099      7104      7108      7104      7108      7120      7112
      7106      7104      7108      7110      7106      7104      7108      7111
      7106      7104      7108      7120      7107      7104      7108      7110
      7107      7104      7108      7111      7107      7104      7108      7120
      7108      7120      7112      7114      7108      7120      7112      7116
      7108      7120      7112      7118      7110      7108      7120      7112
      7111      7108      7120      7112      7112      7118      7122      7124
      7112      7118      7122      7125      7112      7118      7122      7126
      7114      7112      7118      7122      7116      7112      7118      7122
      7118      7122      7126      7128      7118      7122      7126      7129
      7118      7122      7126      7143      7120      7112      7118      7122
      7122      7126      7129      7131      7122      7126      7143      7145
      7122      7126      7143      7146      7122      7126      7143      7147
      7124      7122      7126      7128      7124      7122      7126      7129
      7124      7122      7126      7143      7125      7122      7126      7128
      7125      7122      7126      7129      7125      7122      7126      7143
      7126      7129      7131      7133      7126      7129      7131      7135
      7126      7143      7147      7149      7128      7126      7129      7131
      7128      7126      7143      7145      7128      7126      7143      7146
      7128      7126      7143      7147      7129      7126      7143      7145
      7129      7126      7143      7146      7129      7126      7143      7147
      7129      7131      7135      7137      7129      7131      7135      7138
      7129      7131      7135      7161      7131      7129      7126      7143
      7131      7135      7161      7163      7131      7135      7161      7164
      7131      7135      7161      7165      7133      7131      7135      7137
      7133      7131      7135      7138      7133      7131      7135      7161
      7135      7161      7165      7167      7135      7161      7165      7168
      7135      7161      7165      7169      7137      7135      7161      7163
      7137      7135      7161      7164      7137      7135      7161      7165
      7138      7135      7161      7163      7138      7135      7161      7164
      7138      7135      7161      7165      7143      7147      7149      7151
      7143      7147      7149      7153      7145      7143      7147      7149
      7146      7143      7147      7149      7147      7149      7153      7155
      7147      7149      7153      7156      7147      7149      7153      7224
      7149      7153      7224      7226      7149      7153      7224      7227
      7149      7153      7224      7228      7151      7149      7153      7155
      7151      7149      7153      7156      7151      7149      7153      7224
      7153      7224      7228      7230      7153      7224      7228      7231
      7153      7224      7228      7232      7155      7153      7224      7226
      7155      7153      7224      7227      7155      7153      7224      7228
      7156      7153      7224      7226      7156      7153      7224      7227
      7156      7153      7224      7228      7161      7165      7169      7171
      7161      7165      7169      7172      7161      7165      7169      7173
      7163      7161      7165      7167      7163      7161      7165      7168
      7163      7161      7165      7169      7164      7161      7165      7167
      7164      7161      7165      7168      7164      7161      7165      7169
      7165      7169      7173      7175      7165      7169      7173      7176
      7165      7169      7173      7177      7167      7165      7169      7171
      7167      7165      7169      7172      7167      7165      7169      7173
      7168      7165      7169      7171      7168      7165      7169      7172
      7168      7165      7169      7173      7169      7173      7177      7179
      7169      7173      7177      7180      7169      7173      7177      7181
      7171      7169      7173      7175      7171      7169      7173      7176
      7171      7169      7173      7177      7172      7169      7173      7175
      7172      7169      7173      7176      7172      7169      7173      7177
      7173      7177      7181      7183      7173      7177      7181      7184
      7173      7177      7181      7185      7175      7173      7177      7179
      7175      7173      7177      7180      7175      7173      7177      7181
      7176      7173      7177      7179      7176      7173      7177      7180
      7176      7173      7177      7181      7177      7181      7185      7187
      7177      7181      7185      7188      7179      7177      7181      7183
      7179      7177      7181      7184      7179      7177      7181      7185
      7180      7177      7181      7183      7180      7177      7181      7184
      7180      7177      7181      7185      7181      7185      7188      7190
      7181      7185      7188      7191      7183      7181      7185      7187
      7183      7181      7185      7188      7184      7181      7185      7187
      7184      7181      7185      7188      7185      7188      7191      7193
      7185      7188      7191      7194      7185      7188      7191      7195
      7187      7185      7188      7190      7187      7185      7188      7191
      7188      7191      7195      7197      7188      7191      7195      7198
      7188      7191      7195      7199      7190      7188      7191      7193
      7190      7188      7191      7194      7190      7188      7191      7195
      7191      7195      7199      7201      7191      7195      7199      7202
      7191      7195      7199      7203      7193      7191      7195      7197
      7193      7191      7195      7198      7193      7191      7195      7199
      7194      7191      7195      7197      7194      7191      7195      7198
      7194      7191      7195      7199      7195      7199      7203      7205
      7195      7199      7203      7206      7195      7199      7203      7207
      7197      7195      7199      7201      7197      7195      7199      7202
      7197      7195      7199      7203      7198      7195      7199      7201
      7198      7195      7199      7202      7198      7195      7199      7203
      7199      7203      7207      7209      7199      7203      7207      7210
      7199      7203      7207      7211      7201      7199      7203      7205
      7201      7199      7203      7206      7201      7199      7203      7207
      7202      7199      7203      7205      7202      7199      7203      7206
      7202      7199      7203      7207      7203      7207      7211      7213
      7203      7207      7211      7214      7203      7207      7211      7215
      7205      7203      7207      7209      7205      7203      7207      7210
      7205      7203      7207      7211      7206      7203      7207      7209
      7206      7203      7207      7210      7206      7203      7207      7211
      7207      7211      7215      7217      7207      7211      7215      7218
      7207      7211      7215      7219      7209      7207      7211      7213
      7209      7207      7211      7214      7209      7207      7211      7215
      7210      7207      7211      7213      7210      7207      7211      7214
      7210      7207      7211      7215      7211      7215      7219      7221
      7211      7215      7219      7222      7211      7215      7219      7223
      7213      7211      7215      7217      7213      7211      7215      7218
      7213      7211      7215      7219      7214      7211      7215      7217
      7214      7211      7215      7218      7214      7211      7215      7219
      7217      7215      7219      7221      7217      7215      7219      7222
      7217      7215      7219      7223      7218      7215      7219      7221
      7218      7215      7219      7222      7218      7215      7219      7223
      7224      7228      7232      7234      7224      7228      7232      7235
      7224      7228      7232      7236      7226      7224      7228      7230
      7226      7224      7228      7231      7226      7224      7228      7232
      7227      7224      7228      7230      7227      7224      7228      7231
      7227      7224      7228      7232      7228      7232      7236      7238
      7228      7232      7236      7239      7228      7232      7236      7240
      7230      7228      7232      7234      7230      7228      7232      7235
      7230      7228      7232      7236      7231      7228      7232      7234
      7231      7228      7232      7235      7231      7228      7232      7236
      7232      7236      7240      7242      7232      7236      7240      7243
      7232      7236      7240      7244      7234      7232      7236      7238
      7234      7232      7236      7239      7234      7232      7236      7240
      7235      7232      7236      7238      7235      7232      7236      7239
      7235      7232      7236      7240      7236      7240      7244      7246
      7236      7240      7244      7247      7236      7240      7244      7248
      7238      7236      7240      7242      7238      7236      7240      7243
      7238      7236      7240      7244      7239      7236      7240      7242
      7239      7236      7240      7243      7239      7236      7240      7244
      7240      7244      7248      7250      7240      7244      7248      7251
      7240      7244      7248      7252      7242      7240      7244      7246
      7242      7240      7244      7247      7242      7240      7244      7248
      7243      7240      7244      7246      7243      7240      7244      7247
      7243      7240      7244      7248      7244      7248      7252      7254
      7244      7248      7252      7255      7244      7248      7252      7256
      7246      7244      7248      7250      7246      7244      7248      7251
      7246      7244      7248      7252      7247      7244      7248      7250
      7247      7244      7248      7251      7247      7244      7248      7252
      7248      7252      7256      7258      7248      7252      7256      7259
      7248      7252      7256      7260      7250      7248      7252      7254
      7250      7248      7252      7255      7250      7248      7252      7256
      7251      7248      7252      7254      7251      7248      7252      7255
      7251      7248      7252      7256      7252      7256      7260      7262
      7252      7256      7260      7263      7252      7256      7260      7264
      7254      7252      7256      7258      7254      7252      7256      7259
      7254      7252      7256      7260      7255      7252      7256      7258
      7255      7252      7256      7259      7255      7252      7256      7260
      7256      7260      7264      7266      7256      7260      7264      7267
      7256      7260      7264      7268      7258      7256      7260      7262
      7258      7256      7260      7263      7258      7256      7260      7264
      7259      7256      7260      7262      7259      7256      7260      7263
      7259      7256      7260      7264      7260      7264      7268      7270
      7260      7264      7268      7271      7260      7264      7268      7272
      7262      7260      7264      7266      7262      7260      7264      7267
      7262      7260      7264      7268      7263      7260      7264      7266
      7263      7260      7264      7267      7263      7260      7264      7268
      7264      7268      7272      7274      7264      7268      7272      7275
      7264      7268      7272      7276      7266      7264      7268      7270
      7266      7264      7268      7271      7266      7264      7268      7272
      7267      7264      7268      7270      7267      7264      7268      7271
      7267      7264      7268      7272      7268      7272      7276      7278
      7268      7272      7276      7279      7268      7272      7276      7280
      7270      7268      7272      7274      7270      7268      7272      7275
      7270      7268      7272      7276      7271      7268      7272      7274
      7271      7268      7272      7275      7271      7268      7272      7276
      7274      7272      7276      7278      7274      7272      7276      7279
      7274      7272      7276      7280      7275      7272      7276      7278
      7275      7272      7276      7279      7275      7272      7276      7280
      7281      7286      7290      7292      7281      7286      7290      7293
      7281      7286      7290      7302      7283      7281      7286      7288
      7283      7281      7286      7289      7283      7281      7286      7290
      7284      7281      7286      7288      7284      7281      7286      7289
      7284      7281      7286      7290      7285      7281      7286      7288
      7285      7281      7286      7289      7285      7281      7286      7290
      7286      7290      7302      7294      7288      7286      7290      7292
      7288      7286      7290      7293      7288      7286      7290      7302
      7289      7286      7290      7292      7289      7286      7290      7293
      7289      7286      7290      7302      7290      7302      7294      7296
      7290      7302      7294      7298      7290      7302      7294      7300
      7292      7290      7302      7294      7293      7290      7302      7294
      7294      7300      7304      7306      7294      7300      7304      7307
      7294      7300      7304      7308      7296      7294      7300      7304
      7298      7294      7300      7304      7300      7304      7308      7310
      7300      7304      7308      7311      7300      7304      7308      7325
      7302      7294      7300      7304      7304      7308      7311      7313
      7304      7308      7325      7327      7304      7308      7325      7328
      7304      7308      7325      7329      7306      7304      7308      7310
      7306      7304      7308      7311      7306      7304      7308      7325
      7307      7304      7308      7310      7307      7304      7308      7311
      7307      7304      7308      7325      7308      7311      7313      7315
      7308      7311      7313      7317      7308      7325      7329      7331
      7310      7308      7311      7313      7310      7308      7325      7327
      7310      7308      7325      7328      7310      7308      7325      7329
      7311      7308      7325      7327      7311      7308      7325      7328
      7311      7308      7325      7329      7311      7313      7317      7319
      7311      7313      7317      7320      7311      7313      7317      7343
      7313      7311      7308      7325      7313      7317      7343      7345
      7313      7317      7343      7346      7313      7317      7343      7347
      7315      7313      7317      7319      7315      7313      7317      7320
      7315      7313      7317      7343      7317      7343      7347      7349
      7317      7343      7347      7350      7317      7343      7347      7351
      7319      7317      7343      7345      7319      7317      7343      7346
      7319      7317      7343      7347      7320      7317      7343      7345
      7320      7317      7343      7346      7320      7317      7343      7347
      7325      7329      7331      7333      7325      7329      7331      7335
      7327      7325      7329      7331      7328      7325      7329      7331
      7329      7331      7335      7337      7329      7331      7335      7338
      7329      7331      7335      7406      7331      7335      7406      7408
      7331      7335      7406      7409      7331      7335      7406      7410
      7333      7331      7335      7337      7333      7331      7335      7338
      7333      7331      7335      7406      7335      7406      7410      7412
      7335      7406      7410      7413      7335      7406      7410      7414
      7337      7335      7406      7408      7337      7335      7406      7409
      7337      7335      7406      7410      7338      7335      7406      7408
      7338      7335      7406      7409      7338      7335      7406      7410
      7343      7347      7351      7353      7343      7347      7351      7354
      7343      7347      7351      7355      7345      7343      7347      7349
      7345      7343      7347      7350      7345      7343      7347      7351
      7346      7343      7347      7349      7346      7343      7347      7350
      7346      7343      7347      7351      7347      7351      7355      7357
      7347      7351      7355      7358      7347      7351      7355      7359
      7349      7347      7351      7353      7349      7347      7351      7354
      7349      7347      7351      7355      7350      7347      7351      7353
      7350      7347      7351      7354      7350      7347      7351      7355
      7351      7355      7359      7361      7351      7355      7359      7362
      7351      7355      7359      7363      7353      7351      7355      7357
      7353      7351      7355      7358      7353      7351      7355      7359
      7354      7351      7355      7357      7354      7351      7355      7358
      7354      7351      7355      7359      7355      7359      7363      7365
      7355      7359      7363      7366      7355      7359      7363      7367
      7357      7355      7359      7361      7357      7355      7359      7362
      7357      7355      7359      7363      7358      7355      7359      7361
      7358      7355      7359      7362      7358      7355      7359      7363
      7359      7363      7367      7369      7359      7363      7367      7370
      7361      7359      7363      7365      7361      7359      7363      7366
      7361      7359      7363      7367      7362      7359      7363      7365
      7362      7359      7363      7366      7362      7359      7363      7367
      7363      7367      7370      7372      7363      7367      7370      7373
      7365      7363      7367      7369      7365      7363      7367      7370
      7366      7363      7367      7369      7366      7363      7367      7370
      7367      7370      7373      7375      7367      7370      7373      7376
      7367      7370      7373      7377      7369      7367      7370      7372
      7369      7367      7370      7373      7370      7373      7377      7379
      7370      7373      7377      7380      7370      7373      7377      7381
      7372      7370      7373      7375      7372      7370      7373      7376
      7372      7370      7373      7377      7373      7377      7381      7383
      7373      7377      7381      7384      7373      7377      7381      7385
      7375      7373      7377      7379      7375      7373      7377      7380
      7375      7373      7377      7381      7376      7373      7377      7379
      7376      7373      7377      7380      7376      7373      7377      7381
      7377      7381      7385      7387      7377      7381      7385      7388
      7377      7381      7385      7389      7379      7377      7381      7383
      7379      7377      7381      7384      7379      7377      7381      7385
      7380      7377      7381      7383      7380      7377      7381      7384
      7380      7377      7381      7385      7381      7385      7389      7391
      7381      7385      7389      7392      7381      7385      7389      7393
      7383      7381      7385      7387      7383      7381      7385      7388
      7383      7381      7385      7389      7384      7381      7385      7387
      7384      7381      7385      7388      7384      7381      7385      7389
      7385      7389      7393      7395      7385      7389      7393      7396
      7385      7389      7393      7397      7387      7385      7389      7391
      7387      7385      7389      7392      7387      7385      7389      7393
      7388      7385      7389      7391      7388      7385      7389      7392
      7388      7385      7389      7393      7389      7393      7397      7399
      7389      7393      7397      7400      7389      7393      7397      7401
      7391      7389      7393      7395      7391      7389      7393      7396
      7391      7389      7393      7397      7392      7389      7393      7395
      7392      7389      7393      7396      7392      7389      7393      7397
      7393      7397      7401      7403      7393      7397      7401      7404
      7393      7397      7401      7405      7395      7393      7397      7399
      7395      7393      7397      7400      7395      7393      7397      7401
      7396      7393      7397      7399      7396      7393      7397      7400
      7396      7393      7397      7401      7399      7397      7401      7403
      7399      7397      7401      7404      7399      7397      7401      7405
      7400      7397      7401      7403      7400      7397      7401      7404
      7400      7397      7401      7405      7406      7410      7414      7416
      7406      7410      7414      7417      7406      7410      7414      7418
      7408      7406      7410      7412      7408      7406      7410      7413
      7408      7406      7410      7414      7409      7406      7410      7412
      7409      7406      7410      7413      7409      7406      7410      7414
      7410      7414      7418      7420      7410      7414      7418      7421
      7410      7414      7418      7422      7412      7410      7414      7416
      7412      7410      7414      7417      7412      7410      7414      7418
      7413      7410      7414      7416      7413      7410      7414      7417
      7413      7410      7414      7418      7414      7418      7422      7424
      7414      7418      7422      7425      7414      7418      7422      7426
      7416      7414      7418      7420      7416      7414      7418      7421
      7416      7414      7418      7422      7417      7414      7418      7420
      7417      7414      7418      7421      7417      7414      7418      7422
      7418      7422      7426      7428      7418      7422      7426      7429
      7418      7422      7426      7430      7420      7418      7422      7424
      7420      7418      7422      7425      7420      7418      7422      7426
      7421      7418      7422      7424      7421      7418      7422      7425
      7421      7418      7422      7426      7422      7426      7430      7432
      7422      7426      7430      7433      7422      7426      7430      7434
      7424      7422      7426      7428      7424      7422      7426      7429
      7424      7422      7426      7430      7425      7422      7426      7428
      7425      7422      7426      7429      7425      7422      7426      7430
      7426      7430      7434      7436      7426      7430      7434      7437
      7426      7430      7434      7438      7428      7426      7430      7432
      7428      7426      7430      7433      7428      7426      7430      7434
      7429      7426      7430      7432      7429      7426      7430      7433
      7429      7426      7430      7434      7430      7434      7438      7440
      7430      7434      7438      7441      7430      7434      7438      7442
      7432      7430      7434      7436      7432      7430      7434      7437
      7432      7430      7434      7438      7433      7430      7434      7436
      7433      7430      7434      7437      7433      7430      7434      7438
      7434      7438      7442      7444      7434      7438      7442      7445
      7434      7438      7442      7446      7436      7434      7438      7440
      7436      7434      7438      7441      7436      7434      7438      7442
      7437      7434      7438      7440      7437      7434      7438      7441
      7437      7434      7438      7442      7438      7442      7446      7448
      7438      7442      7446      7449      7438      7442      7446      7450
      7440      7438      7442      7444      7440      7438      7442      7445
      7440      7438      7442      7446      7441      7438      7442      7444
      7441      7438      7442      7445      7441      7438      7442      7446
      7442      7446      7450      7452      7442      7446      7450      7453
      7442      7446      7450      7454      7444      7442      7446      7448
      7444      7442      7446      7449      7444      7442      7446      7450
      7445      7442      7446      7448      7445      7442      7446      7449
      7445      7442      7446      7450      7446      7450      7454      7456
      7446      7450      7454      7457      7446      7450      7454      7458
      7448      7446      7450      7452      7448      7446      7450      7453
      7448      7446      7450      7454      7449      7446      7450      7452
      7449      7446      7450      7453      7449      7446      7450      7454
      7450      7454      7458      7460      7450      7454      7458      7461
      7450      7454      7458      7462      7452      7450      7454      7456
      7452      7450      7454      7457      7452      7450      7454      7458
      7453      7450      7454      7456      7453      7450      7454      7457
      7453      7450      7454      7458      7456      7454      7458      7460
      7456      7454      7458      7461      7456      7454      7458      7462
      7457      7454      7458      7460      7457      7454      7458      7461
      7457      7454      7458      7462      7463      7468      7472      7474
      7463      7468      7472      7475      7463      7468      7472      7484
      7465      7463      7468      7470      7465      7463      7468      7471
      7465      7463      7468      7472      7466      7463      7468      7470
      7466      7463      7468      7471      7466      7463      7468      7472
      7467      7463      7468      7470      7467      7463      7468      7471
      7467      7463      7468      7472      7468      7472      7484      7476
      7470      7468      7472      7474      7470      7468      7472      7475
      7470      7468      7472      7484      7471      7468      7472      7474
      7471      7468      7472      7475      7471      7468      7472      7484
      7472      7484      7476      7478      7472      7484      7476      7480
      7472      7484      7476      7482      7474      7472      7484      7476
      7475      7472      7484      7476      7476      7482      7486      7488
      7476      7482      7486      7489      7476      7482      7486      7490
      7478      7476      7482      7486      7480      7476      7482      7486
      7482      7486      7490      7492      7482      7486      7490      7493
      7482      7486      7490      7507      7484      7476      7482      7486
      7486      7490      7493      7495      7486      7490      7507      7509
      7486      7490      7507      7510      7486      7490      7507      7511
      7488      7486      7490      7492      7488      7486      7490      7493
      7488      7486      7490      7507      7489      7486      7490      7492
      7489      7486      7490      7493      7489      7486      7490      7507
      7490      7493      7495      7497      7490      7493      7495      7499
      7490      7507      7511      7513      7492      7490      7493      7495
      7492      7490      7507      7509      7492      7490      7507      7510
      7492      7490      7507      7511      7493      7490      7507      7509
      7493      7490      7507      7510      7493      7490      7507      7511
      7493      7495      7499      7501      7493      7495      7499      7502
      7493      7495      7499      7525      7495      7493      7490      7507
      7495      7499      7525      7527      7495      7499      7525      7528
      7495      7499      7525      7529      7497      7495      7499      7501
      7497      7495      7499      7502      7497      7495      7499      7525
      7499      7525      7529      7531      7499      7525      7529      7532
      7499      7525      7529      7533      7501      7499      7525      7527
      7501      7499      7525      7528      7501      7499      7525      7529
      7502      7499      7525      7527      7502      7499      7525      7528
      7502      7499      7525      7529      7507      7511      7513      7515
      7507      7511      7513      7517      7509      7507      7511      7513
      7510      7507      7511      7513      7511      7513      7517      7519
      7511      7513      7517      7520      7511      7513      7517      7588
      7513      7517      7588      7590      7513      7517      7588      7591
      7513      7517      7588      7592      7515      7513      7517      7519
      7515      7513      7517      7520      7515      7513      7517      7588
      7517      7588      7592      7594      7517      7588      7592      7595
      7517      7588      7592      7596      7519      7517      7588      7590
      7519      7517      7588      7591      7519      7517      7588      7592
      7520      7517      7588      7590      7520      7517      7588      7591
      7520      7517      7588      7592      7525      7529      7533      7535
      7525      7529      7533      7536      7525      7529      7533      7537
      7527      7525      7529      7531      7527      7525      7529      7532
      7527      7525      7529      7533      7528      7525      7529      7531
      7528      7525      7529      7532      7528      7525      7529      7533
      7529      7533      7537      7539      7529      7533      7537      7540
      7529      7533      7537      7541      7531      7529      7533      7535
      7531      7529      7533      7536      7531      7529      7533      7537
      7532      7529      7533      7535      7532      7529      7533      7536
      7532      7529      7533      7537      7533      7537      7541      7543
      7533      7537      7541      7544      7533      7537      7541      7545
      7535      7533      7537      7539      7535      7533      7537      7540
      7535      7533      7537      7541      7536      7533      7537      7539
      7536      7533      7537      7540      7536      7533      7537      7541
      7537      7541      7545      7547      7537      7541      7545      7548
      7537      7541      7545      7549      7539      7537      7541      7543
      7539      7537      7541      7544      7539      7537      7541      7545
      7540      7537      7541      7543      7540      7537      7541      7544
      7540      7537      7541      7545      7541      7545      7549      7551
      7541      7545      7549      7552      7543      7541      7545      7547
      7543      7541      7545      7548      7543      7541      7545      7549
      7544      7541      7545      7547      7544      7541      7545      7548
      7544      7541      7545      7549      7545      7549      7552      7554
      7545      7549      7552      7555      7547      7545      7549      7551
      7547      7545      7549      7552      7548      7545      7549      7551
      7548      7545      7549      7552      7549      7552      7555      7557
      7549      7552      7555      7558      7549      7552      7555      7559
      7551      7549      7552      7554      7551      7549      7552      7555
      7552      7555      7559      7561      7552      7555      7559      7562
      7552      7555      7559      7563      7554      7552      7555      7557
      7554      7552      7555      7558      7554      7552      7555      7559
      7555      7559      7563      7565      7555      7559      7563      7566
      7555      7559      7563      7567      7557      7555      7559      7561
      7557      7555      7559      7562      7557      7555      7559      7563
      7558      7555      7559      7561      7558      7555      7559      7562
      7558      7555      7559      7563      7559      7563      7567      7569
      7559      7563      7567      7570      7559      7563      7567      7571
      7561      7559      7563      7565      7561      7559      7563      7566
      7561      7559      7563      7567      7562      7559      7563      7565
      7562      7559      7563      7566      7562      7559      7563      7567
      7563      7567      7571      7573      7563      7567      7571      7574
      7563      7567      7571      7575      7565      7563      7567      7569
      7565      7563      7567      7570      7565      7563      7567      7571
      7566      7563      7567      7569      7566      7563      7567      7570
      7566      7563      7567      7571      7567      7571      7575      7577
      7567      7571      7575      7578      7567      7571      7575      7579
      7569      7567      7571      7573      7569      7567      7571      7574
      7569      7567      7571      7575      7570      7567      7571      7573
      7570      7567      7571      7574      7570      7567      7571      7575
      7571      7575      7579      7581      7571      7575      7579      7582
      7571      7575      7579      7583      7573      7571      7575      7577
      7573      7571      7575      7578      7573      7571      7575      7579
      7574      7571      7575      7577      7574      7571      7575      7578
      7574      7571      7575      7579      7575      7579      7583      7585
      7575      7579      7583      7586      7575      7579      7583      7587
      7577      7575      7579      7581      7577      7575      7579      7582
      7577      7575      7579      7583      7578      7575      7579      7581
      7578      7575      7579      7582      7578      7575      7579      7583
      7581      7579      7583      7585      7581      7579      7583      7586
      7581      7579      7583      7587      7582      7579      7583      7585
      7582      7579      7583      7586      7582      7579      7583      7587
      7588      7592      7596      7598      7588      7592      7596      7599
      7588      7592      7596      7600      7590      7588      7592      7594
      7590      7588      7592      7595      7590      7588      7592      7596
      7591      7588      7592      7594      7591      7588      7592      7595
      7591      7588      7592      7596      7592      7596      7600      7602
      7592      7596      7600      7603      7592      7596      7600      7604
      7594      7592      7596      7598      7594      7592      7596      7599
      7594      7592      7596      7600      7595      7592      7596      7598
      7595      7592      7596      7599      7595      7592      7596      7600
      7596      7600      7604      7606      7596      7600      7604      7607
      7596      7600      7604      7608      7598      7596      7600      7602
      7598      7596      7600      7603      7598      7596      7600      7604
      7599      7596      7600      7602      7599      7596      7600      7603
      7599      7596      7600      7604      7600      7604      7608      7610
      7600      7604      7608      7611      7600      7604      7608      7612
      7602      7600      7604      7606      7602      7600      7604      7607
      7602      7600      7604      7608      7603      7600      7604      7606
      7603      7600      7604      7607      7603      7600      7604      7608
      7604      7608      7612      7614      7604      7608      7612      7615
      7604      7608      7612      7616      7606      7604      7608      7610
      7606      7604      7608      7611      7606      7604      7608      7612
      7607      7604      7608      7610      7607      7604      7608      7611
      7607      7604      7608      7612      7608      7612      7616      7618
      7608      7612      7616      7619      7608      7612      7616      7620
      7610      7608      7612      7614      7610      7608      7612      7615
      7610      7608      7612      7616      7611      7608      7612      7614
      7611      7608      7612      7615      7611      7608      7612      7616
      7612      7616      7620      7622      7612      7616      7620      7623
      7612      7616      7620      7624      7614      7612      7616      7618
      7614      7612      7616      7619      7614      7612      7616      7620
      7615      7612      7616      7618      7615      7612      7616      7619
      7615      7612      7616      7620      7616      7620      7624      7626
      7616      7620      7624      7627      7616      7620      7624      7628
      7618      7616      7620      7622      7618      7616      7620      7623
      7618      7616      7620      7624      7619      7616      7620      7622
      7619      7616      7620      7623      7619      7616      7620      7624
      7620      7624      7628      7630      7620      7624      7628      7631
      7620      7624      7628      7632      7622      7620      7624      7626
      7622      7620      7624      7627      7622      7620      7624      7628
      7623      7620      7624      7626      7623      7620      7624      7627
      7623      7620      7624      7628      7624      7628      7632      7634
      7624      7628      7632      7635      7624      7628      7632      7636
      7626      7624      7628      7630      7626      7624      7628      7631
      7626      7624      7628      7632      7627      7624      7628      7630
      7627      7624      7628      7631      7627      7624      7628      7632
      7628      7632      7636      7638      7628      7632      7636      7639
      7628      7632      7636      7640      7630      7628      7632      7634
      7630      7628      7632      7635      7630      7628      7632      7636
      7631      7628      7632      7634      7631      7628      7632      7635
      7631      7628      7632      7636      7632      7636      7640      7642
      7632      7636      7640      7643      7632      7636      7640      7644
      7634      7632      7636      7638      7634      7632      7636      7639
      7634      7632      7636      7640      7635      7632      7636      7638
      7635      7632      7636      7639      7635      7632      7636      7640
      7638      7636      7640      7642      7638      7636      7640      7643
      7638      7636      7640      7644      7639      7636      7640      7642
      7639      7636      7640      7643      7639      7636      7640      7644
      7645      7650      7654      7656      7645      7650      7654      7657
      7645      7650      7654      7666      7647      7645      7650      7652
      7647      7645      7650      7653      7647      7645      7650      7654
      7648      7645      7650      7652      7648      7645      7650      7653
      7648      7645      7650      7654      7649      7645      7650      7652
      7649      7645      7650      7653      7649      7645      7650      7654
      7650      7654      7666      7658      7652      7650      7654      7656
      7652      7650      7654      7657      7652      7650      7654      7666
      7653      7650      7654      7656      7653      7650      7654      7657
      7653      7650      7654      7666      7654      7666      7658      7660
      7654      7666      7658      7662      7654      7666      7658      7664
      7656      7654      7666      7658      7657      7654      7666      7658
      7658      7664      7668      7670      7658      7664      7668      7671
      7658      7664      7668      7672      7660      7658      7664      7668
      7662      7658      7664      7668      7664      7668      7672      7674
      7664      7668      7672      7675      7664      7668      7672      7689
      7666      7658      7664      7668      7668      7672      7675      7677
      7668      7672      7689      7691      7668      7672      7689      7692
      7668      7672      7689      7693      7670      7668      7672      7674
      7670      7668      7672      7675      7670      7668      7672      7689
      7671      7668      7672      7674      7671      7668      7672      7675
      7671      7668      7672      7689      7672      7675      7677      7679
      7672      7675      7677      7681      7672      7689      7693      7695
      7674      7672      7675      7677      7674      7672      7689      7691
      7674      7672      7689      7692      7674      7672      7689      7693
      7675      7672      7689      7691      7675      7672      7689      7692
      7675      7672      7689      7693      7675      7677      7681      7683
      7675      7677      7681      7684      7675      7677      7681      7707
      7677      7675      7672      7689      7677      7681      7707      7709
      7677      7681      7707      7710      7677      7681      7707      7711
      7679      7677      7681      7683      7679      7677      7681      7684
      7679      7677      7681      7707      7681      7707      7711      7713
      7681      7707      7711      7714      7681      7707      7711      7715
      7683      7681      7707      7709      7683      7681      7707      7710
      7683      7681      7707      7711      7684      7681      7707      7709
      7684      7681      7707      7710      7684      7681      7707      7711
      7689      7693      7695      7697      7689      7693      7695      7699
      7691      7689      7693      7695      7692      7689      7693      7695
      7693      7695      7699      7701      7693      7695      7699      7702
      7693      7695      7699      7770      7695      7699      7770      7772
      7695      7699      7770      7773      7695      7699      7770      7774
      7697      7695      7699      7701      7697      7695      7699      7702
      7697      7695      7699      7770      7699      7770      7774      7776
      7699      7770      7774      7777      7699      7770      7774      7778
      7701      7699      7770      7772      7701      7699      7770      7773
      7701      7699      7770      7774      7702      7699      7770      7772
      7702      7699      7770      7773      7702      7699      7770      7774
      7707      7711      7715      7717      7707      7711      7715      7718
      7707      7711      7715      7719      7709      7707      7711      7713
      7709      7707      7711      7714      7709      7707      7711      7715
      7710      7707      7711      7713      7710      7707      7711      7714
      7710      7707      7711      7715      7711      7715      7719      7721
      7711      7715      7719      7722      7711      7715      7719      7723
      7713      7711      7715      7717      7713      7711      7715      7718
      7713      7711      7715      7719      7714      7711      7715      7717
      7714      7711      7715      7718      7714      7711      7715      7719
      7715      7719      7723      7725      7715      7719      7723      7726
      7715      7719      7723      7727      7717      7715      7719      7721
      7717      7715      7719      7722      7717      7715      7719      7723
      7718      7715      7719      7721      7718      7715      7719      7722
      7718      7715      7719      7723      7719      7723      7727      7729
      7719      7723      7727      7730      7719      7723      7727      7731
      7721      7719      7723      7725      7721      7719      7723      7726
      7721      7719      7723      7727      7722      7719      7723      7725
      7722      7719      7723      7726      7722      7719      7723      7727
      7723      7727      7731      7733      7723      7727      7731      7734
      7725      7723      7727      7729      7725      7723      7727      7730
      7725      7723      7727      7731      7726      7723      7727      7729
      7726      7723      7727      7730      7726      7723      7727      7731
      7727      7731      7734      7736      7727      7731      7734      7737
      7729      7727      7731      7733      7729      7727      7731      7734
      7730      7727      7731      7733      7730      7727      7731      7734
      7731      7734      7737      7739      7731      7734      7737      7740
      7731      7734      7737      7741      7733      7731      7734      7736
      7733      7731      7734      7737      7734      7737      7741      7743
      7734      7737      7741      7744      7734      7737      7741      7745
      7736      7734      7737      7739      7736      7734      7737      7740
      7736      7734      7737      7741      7737      7741      7745      7747
      7737      7741      7745      7748      7737      7741      7745      7749
      7739      7737      7741      7743      7739      7737      7741      7744
      7739      7737      7741      7745      7740      7737      7741      7743
      7740      7737      7741      7744      7740      7737      7741      7745
      7741      7745      7749      7751      7741      7745      7749      7752
      7741      7745      7749      7753      7743      7741      7745      7747
      7743      7741      7745      7748      7743      7741      7745      7749
      7744      7741      7745      7747      7744      7741      7745      7748
      7744      7741      7745      7749      7745      7749      7753      7755
      7745      7749      7753      7756      7745      7749      7753      7757
      7747      7745      7749      7751      7747      7745      7749      7752
      7747      7745      7749      7753      7748      7745      7749      7751
      7748      7745      7749      7752      7748      7745      7749      7753
      7749      7753      7757      7759      7749      7753      7757      7760
      7749      7753      7757      7761      7751      7749      7753      7755
      7751      7749      7753      7756      7751      7749      7753      7757
      7752      7749      7753      7755      7752      7749      7753      7756
      7752      7749      7753      7757      7753      7757      7761      7763
      7753      7757      7761      7764      7753      7757      7761      7765
      7755      7753      7757      7759      7755      7753      7757      7760
      7755      7753      7757      7761      7756      7753      7757      7759
      7756      7753      7757      7760      7756      7753      7757      7761
      7757      7761      7765      7767      7757      7761      7765      7768
      7757      7761      7765      7769      7759      7757      7761      7763
      7759      7757      7761      7764      7759      7757      7761      7765
      7760      7757      7761      7763      7760      7757      7761      7764
      7760      7757      7761      7765      7763      7761      7765      7767
      7763      7761      7765      7768      7763      7761      7765      7769
      7764      7761      7765      7767      7764      7761      7765      7768
      7764      7761      7765      7769      7770      7774      7778      7780
      7770      7774      7778      7781      7770      7774      7778      7782
      7772      7770      7774      7776      7772      7770      7774      7777
      7772      7770      7774      7778      7773      7770      7774      7776
      7773      7770      7774      7777      7773      7770      7774      7778
      7774      7778      7782      7784      7774      7778      7782      7785
      7774      7778      7782      7786      7776      7774      7778      7780
      7776      7774      7778      7781      7776      7774      7778      7782
      7777      7774      7778      7780      7777      7774      7778      7781
      7777      7774      7778      7782      7778      7782      7786      7788
      7778      7782      7786      7789      7778      7782      7786      7790
      7780      7778      7782      7784      7780      7778      7782      7785
      7780      7778      7782      7786      7781      7778      7782      7784
      7781      7778      7782      7785      7781      7778      7782      7786
      7782      7786      7790      7792      7782      7786      7790      7793
      7782      7786      7790      7794      7784      7782      7786      7788
      7784      7782      7786      7789      7784      7782      7786      7790
      7785      7782      7786      7788      7785      7782      7786      7789
      7785      7782      7786      7790      7786      7790      7794      7796
      7786      7790      7794      7797      7786      7790      7794      7798
      7788      7786      7790      7792      7788      7786      7790      7793
      7788      7786      7790      7794      7789      7786      7790      7792
      7789      7786      7790      7793      7789      7786      7790      7794
      7790      7794      7798      7800      7790      7794      7798      7801
      7790      7794      7798      7802      7792      7790      7794      7796
      7792      7790      7794      7797      7792      7790      7794      7798
      7793      7790      7794      7796      7793      7790      7794      7797
      7793      7790      7794      7798      7794      7798      7802      7804
      7794      7798      7802      7805      7794      7798      7802      7806
      7796      7794      7798      7800      7796      7794      7798      7801
      7796      7794      7798      7802      7797      7794      7798      7800
      7797      7794      7798      7801      7797      7794      7798      7802
      7798      7802      7806      7808      7798      7802      7806      7809
      7798      7802      7806      7810      7800      7798      7802      7804
      7800      7798      7802      7805      7800      7798      7802      7806
      7801      7798      7802      7804      7801      7798      7802      7805
      7801      7798      7802      7806      7802      7806      7810      7812
      7802      7806      7810      7813      7802      7806      7810      7814
      7804      7802      7806      7808      7804      7802      7806      7809
      7804      7802      7806      7810      7805      7802      7806      7808
      7805      7802      7806      7809      7805      7802      7806      7810
      7806      7810      7814      7816      7806      7810      7814      7817
      7806      7810      7814      7818      7808      7806      7810      7812
      7808      7806      7810      7813      7808      7806      7810      7814
      7809      7806      7810      7812      7809      7806      7810      7813
      7809      7806      7810      7814      7810      7814      7818      7820
      7810      7814      7818      7821      7810      7814      7818      7822
      7812      7810      7814      7816      7812      7810      7814      7817
      7812      7810      7814      7818      7813      7810      7814      7816
      7813      7810      7814      7817      7813      7810      7814      7818
      7814      7818      7822      7824      7814      7818      7822      7825
      7814      7818      7822      7826      7816      7814      7818      7820
      7816      7814      7818      7821      7816      7814      7818      7822
      7817      7814      7818      7820      7817      7814      7818      7821
      7817      7814      7818      7822      7820      7818      7822      7824
      7820      7818      7822      7825      7820      7818      7822      7826
      7821      7818      7822      7824      7821      7818      7822      7825
      7821      7818      7822      7826      7827      7832      7836      7838
      7827      7832      7836      7839      7827      7832      7836      7848
      7829      7827      7832      7834      7829      7827      7832      7835
      7829      7827      7832      7836      7830      7827      7832      7834
      7830      7827      7832      7835      7830      7827      7832      7836
      7831      7827      7832      7834      7831      7827      7832      7835
      7831      7827      7832      7836      7832      7836      7848      7840
      7834      7832      7836      7838      7834      7832      7836      7839
      7834      7832      7836      7848      7835      7832      7836      7838
      7835      7832      7836      7839      7835      7832      7836      7848
      7836      7848      7840      7842      7836      7848      7840      7844
      7836      7848      7840      7846      7838      7836      7848      7840
      7839      7836      7848      7840      7840      7846      7850      7852
      7840      7846      7850      7853      7840      7846      7850      7854
      7842      7840      7846      7850      7844      7840      7846      7850
      7846      7850      7854      7856      7846      7850      7854      7857
      7846      7850      7854      7871      7848      7840      7846      7850
      7850      7854      7857      7859      7850      7854      7871      7873
      7850      7854      7871      7874      7850      7854      7871      7875
      7852      7850      7854      7856      7852      7850      7854      7857
      7852      7850      7854      7871      7853      7850      7854      7856
      7853      7850      7854      7857      7853      7850      7854      7871
      7854      7857      7859      7861      7854      7857      7859      7863
      7854      7871      7875      7877      7856      7854      7857      7859
      7856      7854      7871      7873      7856      7854      7871      7874
      7856      7854      7871      7875      7857      7854      7871      7873
      7857      7854      7871      7874      7857      7854      7871      7875
      7857      7859      7863      7865      7857      7859      7863      7866
      7857      7859      7863      7889      7859      7857      7854      7871
      7859      7863      7889      7891      7859      7863      7889      7892
      7859      7863      7889      7893      7861      7859      7863      7865
      7861      7859      7863      7866      7861      7859      7863      7889
      7863      7889      7893      7895      7863      7889      7893      7896
      7863      7889      7893      7897      7865      7863      7889      7891
      7865      7863      7889      7892      7865      7863      7889      7893
      7866      7863      7889      7891      7866      7863      7889      7892
      7866      7863      7889      7893      7871      7875      7877      7879
      7871      7875      7877      7881      7873      7871      7875      7877
      7874      7871      7875      7877      7875      7877      7881      7883
      7875      7877      7881      7884      7875      7877      7881      7952
      7877      7881      7952      7954      7877      7881      7952      7955
      7877      7881      7952      7956      7879      7877      7881      7883
      7879      7877      7881      7884      7879      7877      7881      7952
      7881      7952      7956      7958      7881      7952      7956      7959
      7881      7952      7956      7960      7883      7881      7952      7954
      7883      7881      7952      7955      7883      7881      7952      7956
      7884      7881      7952      7954      7884      7881      7952      7955
      7884      7881      7952      7956      7889      7893      7897      7899
      7889      7893      7897      7900      7889      7893      7897      7901
      7891      7889      7893      7895      7891      7889      7893      7896
      7891      7889      7893      7897      7892      7889      7893      7895
      7892      7889      7893      7896      7892      7889      7893      7897
      7893      7897      7901      7903      7893      7897      7901      7904
      7893      7897      7901      7905      7895      7893      7897      7899
      7895      7893      7897      7900      7895      7893      7897      7901
      7896      7893      7897      7899      7896      7893      7897      7900
      7896      7893      7897      7901      7897      7901      7905      7907
      7897      7901      7905      7908      7897      7901      7905      7909
      7899      7897      7901      7903      7899      7897      7901      7904
      7899      7897      7901      7905      7900      7897      7901      7903
      7900      7897      7901      7904      7900      7897      7901      7905
      7901      7905      7909      7911      7901      7905      7909      7912
      7901      7905      7909      7913      7903      7901      7905      7907
      7903      7901      7905      7908      7903      7901      7905      7909
      7904      7901      7905      7907      7904      7901      7905      7908
      7904      7901      7905      7909      7905      7909      7913      7915
      7905      7909      7913      7916      7907      7905      7909      7911
      7907      7905      7909      7912      7907      7905      7909      7913
      7908      7905      7909      7911      7908      7905      7909      7912
      7908      7905      7909      7913      7909      7913      7916      7918
      7909      7913      7916      7919      7911      7909      7913      7915
      7911      7909      7913      7916      7912      7909      7913      7915
      7912      7909      7913      7916      7913      7916      7919      7921
      7913      7916      7919      7922      7913      7916      7919      7923
      7915      7913      7916      7918      7915      7913      7916      7919
      7916      7919      7923      7925      7916      7919      7923      7926
      7916      7919      7923      7927      7918      7916      7919      7921
      7918      7916      7919      7922      7918      7916      7919      7923
      7919      7923      7927      7929      7919      7923      7927      7930
      7919      7923      7927      7931      7921      7919      7923      7925
      7921      7919      7923      7926      7921      7919      7923      7927
      7922      7919      7923      7925      7922      7919      7923      7926
      7922      7919      7923      7927      7923      7927      7931      7933
      7923      7927      7931      7934      7923      7927      7931      7935
      7925      7923      7927      7929      7925      7923      7927      7930
      7925      7923      7927      7931      7926      7923      7927      7929
      7926      7923      7927      7930      7926      7923      7927      7931
      7927      7931      7935      7937      7927      7931      7935      7938
      7927      7931      7935      7939      7929      7927      7931      7933
      7929      7927      7931      7934      7929      7927      7931      7935
      7930      7927      7931      7933      7930      7927      7931      7934
      7930      7927      7931      7935      7931      7935      7939      7941
      7931      7935      7939      7942      7931      7935      7939      7943
      7933      7931      7935      7937      7933      7931      7935      7938
      7933      7931      7935      7939      7934      7931      7935      7937
      7934      7931      7935      7938      7934      7931      7935      7939
      7935      7939      7943      7945      7935      7939      7943      7946
      7935      7939      7943      7947      7937      7935      7939      7941
      7937      7935      7939      7942      7937      7935      7939      7943
      7938      7935      7939      7941      7938      7935      7939      7942
      7938      7935      7939      7943      7939      7943      7947      7949
      7939      7943      7947      7950      7939      7943      7947      7951
      7941      7939      7943      7945      7941      7939      7943      7946
      7941      7939      7943      7947      7942      7939      7943      7945
      7942      7939      7943      7946      7942      7939      7943      7947
      7945      7943      7947      7949      7945      7943      7947      7950
      7945      7943      7947      7951      7946      7943      7947      7949
      7946      7943      7947      7950      7946      7943      7947      7951
      7952      7956      7960      7962      7952      7956      7960      7963
      7952      7956      7960      7964      7954      7952      7956      7958
      7954      7952      7956      7959      7954      7952      7956      7960
      7955      7952      7956      7958      7955      7952      7956      7959
      7955      7952      7956      7960      7956      7960      7964      7966
      7956      7960      7964      7967      7956      7960      7964      7968
      7958      7956      7960      7962      7958      7956      7960      7963
      7958      7956      7960      7964      7959      7956      7960      7962
      7959      7956      7960      7963      7959      7956      7960      7964
      7960      7964      7968      7970      7960      7964      7968      7971
      7960      7964      7968      7972      7962      7960      7964      7966
      7962      7960      7964      7967      7962      7960      7964      7968
      7963      7960      7964      7966      7963      7960      7964      7967
      7963      7960      7964      7968      7964      7968      7972      7974
      7964      7968      7972      7975      7964      7968      7972      7976
      7966      7964      7968      7970      7966      7964      7968      7971
      7966      7964      7968      7972      7967      7964      7968      7970
      7967      7964      7968      7971      7967      7964      7968      7972
      7968      7972      7976      7978      7968      7972      7976      7979
      7968      7972      7976      7980      7970      7968      7972      7974
      7970      7968      7972      7975      7970      7968      7972      7976
      7971      7968      7972      7974      7971      7968      7972      7975
      7971      7968      7972      7976      7972      7976      7980      7982
      7972      7976      7980      7983      7972      7976      7980      7984
      7974      7972      7976      7978      7974      7972      7976      7979
      7974      7972      7976      7980      7975      7972      7976      7978
      7975      7972      7976      7979      7975      7972      7976      7980
      7976      7980      7984      7986      7976      7980      7984      7987
      7976      7980      7984      7988      7978      7976      7980      7982
      7978      7976      7980      7983      7978      7976      7980      7984
      7979      7976      7980      7982      7979      7976      7980      7983
      7979      7976      7980      7984      7980      7984      7988      7990
      7980      7984      7988      7991      7980      7984      7988      7992
      7982      7980      7984      7986      7982      7980      7984      7987
      7982      7980      7984      7988      7983      7980      7984      7986
      7983      7980      7984      7987      7983      7980      7984      7988
      7984      7988      7992      7994      7984      7988      7992      7995
      7984      7988      7992      7996      7986      7984      7988      7990
      7986      7984      7988      7991      7986      7984      7988      7992
      7987      7984      7988      7990      7987      7984      7988      7991
      7987      7984      7988      7992      7988      7992      7996      7998
      7988      7992      7996      7999      7988      7992      7996      8000
      7990      7988      7992      7994      7990      7988      7992      7995
      7990      7988      7992      7996      7991      7988      7992      7994
      7991      7988      7992      7995      7991      7988      7992      7996
      7992      7996      8000      8002      7992      7996      8000      8003
      7992      7996      8000      8004      7994      7992      7996      7998
      7994      7992      7996      7999      7994      7992      7996      8000
      7995      7992      7996      7998      7995      7992      7996      7999
      7995      7992      7996      8000      7996      8000      8004      8006
      7996      8000      8004      8007      7996      8000      8004      8008
      7998      7996      8000      8002      7998      7996      8000      8003
      7998      7996      8000      8004      7999      7996      8000      8002
      7999      7996      8000      8003      7999      7996      8000      8004
      8002      8000      8004      8006      8002      8000      8004      8007
      8002      8000      8004      8008      8003      8000      8004      8006
      8003      8000      8004      8007      8003      8000      8004      8008
      8009      8014      8018      8020      8009      8014      8018      8021
      8009      8014      8018      8030      8011      8009      8014      8016
      8011      8009      8014      8017      8011      8009      8014      8018
      8012      8009      8014      8016      8012      8009      8014      8017
      8012      8009      8014      8018      8013      8009      8014      8016
      8013      8009      8014      8017      8013      8009      8014      8018
      8014      8018      8030      8022      8016      8014      8018      8020
      8016      8014      8018      8021      8016      8014      8018      8030
      8017      8014      8018      8020      8017      8014      8018      8021
      8017      8014      8018      8030      8018      8030      8022      8024
      8018      8030      8022      8026      8018      8030      8022      8028
      8020      8018      8030      8022      8021      8018      8030      8022
      8022      8028      8032      8034      8022      8028      8032      8035
      8022      8028      8032      8036      8024      8022      8028      8032
      8026      8022      8028      8032      8028      8032      8036      8038
      8028      8032      8036      8039      8028      8032      8036      8053
      8030      8022      8028      8032      8032      8036      8039      8041
      8032      8036      8053      8055      8032      8036      8053      8056
      8032      8036      8053      8057      8034      8032      8036      8038
      8034      8032      8036      8039      8034      8032      8036      8053
      8035      8032      8036      8038      8035      8032      8036      8039
      8035      8032      8036      8053      8036      8039      8041      8043
      8036      8039      8041      8045      8036      8053      8057      8059
      8038      8036      8039      8041      8038      8036      8053      8055
      8038      8036      8053      8056      8038      8036      8053      8057
      8039      8036      8053      8055      8039      8036      8053      8056
      8039      8036      8053      8057      8039      8041      8045      8047
      8039      8041      8045      8048      8039      8041      8045      8071
      8041      8039      8036      8053      8041      8045      8071      8073
      8041      8045      8071      8074      8041      8045      8071      8075
      8043      8041      8045      8047      8043      8041      8045      8048
      8043      8041      8045      8071      8045      8071      8075      8077
      8045      8071      8075      8078      8045      8071      8075      8079
      8047      8045      8071      8073      8047      8045      8071      8074
      8047      8045      8071      8075      8048      8045      8071      8073
      8048      8045      8071      8074      8048      8045      8071      8075
      8053      8057      8059      8061      8053      8057      8059      8063
      8055      8053      8057      8059      8056      8053      8057      8059
      8057      8059      8063      8065      8057      8059      8063      8066
      8057      8059      8063      8134      8059      8063      8134      8136
      8059      8063      8134      8137      8059      8063      8134      8138
      8061      8059      8063      8065      8061      8059      8063      8066
      8061      8059      8063      8134      8063      8134      8138      8140
      8063      8134      8138      8141      8063      8134      8138      8142
      8065      8063      8134      8136      8065      8063      8134      8137
      8065      8063      8134      8138      8066      8063      8134      8136
      8066      8063      8134      8137      8066      8063      8134      8138
      8071      8075      8079      8081      8071      8075      8079      8082
      8071      8075      8079      8083      8073      8071      8075      8077
      8073      8071      8075      8078      8073      8071      8075      8079
      8074      8071      8075      8077      8074      8071      8075      8078
      8074      8071      8075      8079      8075      8079      8083      8085
      8075      8079      8083      8086      8075      8079      8083      8087
      8077      8075      8079      8081      8077      8075      8079      8082
      8077      8075      8079      8083      8078      8075      8079      8081
      8078      8075      8079      8082      8078      8075      8079      8083
      8079      8083      8087      8089      8079      8083      8087      8090
      8079      8083      8087      8091      8081      8079      8083      8085
      8081      8079      8083      8086      8081      8079      8083      8087
      8082      8079      8083      8085      8082      8079      8083      8086
      8082      8079      8083      8087      8083      8087      8091      8093
      8083      8087      8091      8094      8083      8087      8091      8095
      8085      8083      8087      8089      8085      8083      8087      8090
      8085      8083      8087      8091      8086      8083      8087      8089
      8086      8083      8087      8090      8086      8083      8087      8091
      8087      8091      8095      8097      8087      8091      8095      8098
      8089      8087      8091      8093      8089      8087      8091      8094
      8089      8087      8091      8095      8090      8087      8091      8093
      8090      8087      8091      8094      8090      8087      8091      8095
      8091      8095      8098      8100      8091      8095      8098      8101
      8093      8091      8095      8097      8093      8091      8095      8098
      8094      8091      8095      8097      8094      8091      8095      8098
      8095      8098      8101      8103      8095      8098      8101      8104
      8095      8098      8101      8105      8097      8095      8098      8100
      8097      8095      8098      8101      8098      8101      8105      8107
      8098      8101      8105      8108      8098      8101      8105      8109
      8100      8098      8101      8103      8100      8098      8101      8104
      8100      8098      8101      8105      8101      8105      8109      8111
      8101      8105      8109      8112      8101      8105      8109      8113
      8103      8101      8105      8107      8103      8101      8105      8108
      8103      8101      8105      8109      8104      8101      8105      8107
      8104      8101      8105      8108      8104      8101      8105      8109
      8105      8109      8113      8115      8105      8109      8113      8116
      8105      8109      8113      8117      8107      8105      8109      8111
      8107      8105      8109      8112      8107      8105      8109      8113
      8108      8105      8109      8111      8108      8105      8109      8112
      8108      8105      8109      8113      8109      8113      8117      8119
      8109      8113      8117      8120      8109      8113      8117      8121
      8111      8109      8113      8115      8111      8109      8113      8116
      8111      8109      8113      8117      8112      8109      8113      8115
      8112      8109      8113      8116      8112      8109      8113      8117
      8113      8117      8121      8123      8113      8117      8121      8124
      8113      8117      8121      8125      8115      8113      8117      8119
      8115      8113      8117      8120      8115      8113      8117      8121
      8116      8113      8117      8119      8116      8113      8117      8120
      8116      8113      8117      8121      8117      8121      8125      8127
      8117      8121      8125      8128      8117      8121      8125      8129
      8119      8117      8121      8123      8119      8117      8121      8124
      8119      8117      8121      8125      8120      8117      8121      8123
      8120      8117      8121      8124      8120      8117      8121      8125
      8121      8125      8129      8131      8121      8125      8129      8132
      8121      8125      8129      8133      8123      8121      8125      8127
      8123      8121      8125      8128      8123      8121      8125      8129
      8124      8121      8125      8127      8124      8121      8125      8128
      8124      8121      8125      8129      8127      8125      8129      8131
      8127      8125      8129      8132      8127      8125      8129      8133
      8128      8125      8129      8131      8128      8125      8129      8132
      8128      8125      8129      8133      8134      8138      8142      8144
      8134      8138      8142      8145      8134      8138      8142      8146
      8136      8134      8138      8140      8136      8134      8138      8141
      8136      8134      8138      8142      8137      8134      8138      8140
      8137      8134      8138      8141      8137      8134      8138      8142
      8138      8142      8146      8148      8138      8142      8146      8149
      8138      8142      8146      8150      8140      8138      8142      8144
      8140      8138      8142      8145      8140      8138      8142      8146
      8141      8138      8142      8144      8141      8138      8142      8145
      8141      8138      8142      8146      8142      8146      8150      8152
      8142      8146      8150      8153      8142      8146      8150      8154
      8144      8142      8146      8148      8144      8142      8146      8149
      8144      8142      8146      8150      8145      8142      8146      8148
      8145      8142      8146      8149      8145      8142      8146      8150
      8146      8150      8154      8156      8146      8150      8154      8157
      8146      8150      8154      8158      8148      8146      8150      8152
      8148      8146      8150      8153      8148      8146      8150      8154
      8149      8146      8150      8152      8149      8146      8150      8153
      8149      8146      8150      8154      8150      8154      8158      8160
      8150      8154      8158      8161      8150      8154      8158      8162
      8152      8150      8154      8156      8152      8150      8154      8157
      8152      8150      8154      8158      8153      8150      8154      8156
      8153      8150      8154      8157      8153      8150      8154      8158
      8154      8158      8162      8164      8154      8158      8162      8165
      8154      8158      8162      8166      8156      8154      8158      8160
      8156      8154      8158      8161      8156      8154      8158      8162
      8157      8154      8158      8160      8157      8154      8158      8161
      8157      8154      8158      8162      8158      8162      8166      8168
      8158      8162      8166      8169      8158      8162      8166      8170
      8160      8158      8162      8164      8160      8158      8162      8165
      8160      8158      8162      8166      8161      8158      8162      8164
      8161      8158      8162      8165      8161      8158      8162      8166
      8162      8166      8170      8172      8162      8166      8170      8173
      8162      8166      8170      8174      8164      8162      8166      8168
      8164      8162      8166      8169      8164      8162      8166      8170
      8165      8162      8166      8168      8165      8162      8166      8169
      8165      8162      8166      8170      8166      8170      8174      8176
      8166      8170      8174      8177      8166      8170      8174      8178
      8168      8166      8170      8172      8168      8166      8170      8173
      8168      8166      8170      8174      8169      8166      8170      8172
      8169      8166      8170      8173      8169      8166      8170      8174
      8170      8174      8178      8180      8170      8174      8178      8181
      8170      8174      8178      8182      8172      8170      8174      8176
      8172      8170      8174      8177      8172      8170      8174      8178
      8173      8170      8174      8176      8173      8170      8174      8177
      8173      8170      8174      8178      8174      8178      8182      8184
      8174      8178      8182      8185      8174      8178      8182      8186
      8176      8174      8178      8180      8176      8174      8178      8181
      8176      8174      8178      8182      8177      8174      8178      8180
      8177      8174      8178      8181      8177      8174      8178      8182
      8178      8182      8186      8188      8178      8182      8186      8189
      8178      8182      8186      8190      8180      8178      8182      8184
      8180      8178      8182      8185      8180      8178      8182      8186
      8181      8178      8182      8184      8181      8178      8182      8185
      8181      8178      8182      8186      8184      8182      8186      8188
      8184      8182      8186      8189      8184      8182      8186      8190
      8185      8182      8186      8188      8185      8182      8186      8189
      8185      8182      8186      8190      8191      8196      8200      8202
      8191      8196      8200      8203      8191      8196      8200      8212
      8193      8191      8196      8198      8193      8191      8196      8199
      8193      8191      8196      8200      8194      8191      8196      8198
      8194      8191      8196      8199      8194      8191      8196      8200
      8195      8191      8196      8198      8195      8191      8196      8199
      8195      8191      8196      8200      8196      8200      8212      8204
      8198      8196      8200      8202      8198      8196      8200      8203
      8198      8196      8200      8212      8199      8196      8200      8202
      8199      8196      8200      8203      8199      8196      8200      8212
      8200      8212      8204      8206      8200      8212      8204      8208
      8200      8212      8204      8210      8202      8200      8212      8204
      8203      8200      8212      8204      8204      8210      8214      8216
      8204      8210      8214      8217      8204      8210      8214      8218
      8206      8204      8210      8214      8208      8204      8210      8214
      8210      8214      8218      8220      8210      8214      8218      8221
      8210      8214      8218      8235      8212      8204      8210      8214
      8214      8218      8221      8223      8214      8218      8235      8237
      8214      8218      8235      8238      8214      8218      8235      8239
      8216      8214      8218      8220      8216      8214      8218      8221
      8216      8214      8218      8235      8217      8214      8218      8220
      8217      8214      8218      8221      8217      8214      8218      8235
      8218      8221      8223      8225      8218      8221      8223      8227
      8218      8235      8239      8241      8220      8218      8221      8223
      8220      8218      8235      8237      8220      8218      8235      8238
      8220      8218      8235      8239      8221      8218      8235      8237
      8221      8218      8235      8238      8221      8218      8235      8239
      8221      8223      8227      8229      8221      8223      8227      8230
      8221      8223      8227      8253      8223      8221      8218      8235
      8223      8227      8253      8255      8223      8227      8253      8256
      8223      8227      8253      8257      8225      8223      8227      8229
      8225      8223      8227      8230      8225      8223      8227      8253
      8227      8253      8257      8259      8227      8253      8257      8260
      8227      8253      8257      8261      8229      8227      8253      8255
      8229      8227      8253      8256      8229      8227      8253      8257
      8230      8227      8253      8255      8230      8227      8253      8256
      8230      8227      8253      8257      8235      8239      8241      8243
      8235      8239      8241      8245      8237      8235      8239      8241
      8238      8235      8239      8241      8239      8241      8245      8247
      8239      8241      8245      8248      8239      8241      8245      8316
      8241      8245      8316      8318      8241      8245      8316      8319
      8241      8245      8316      8320      8243      8241      8245      8247
      8243      8241      8245      8248      8243      8241      8245      8316
      8245      8316      8320      8322      8245      8316      8320      8323
      8245      8316      8320      8324      8247      8245      8316      8318
      8247      8245      8316      8319      8247      8245      8316      8320
      8248      8245      8316      8318      8248      8245      8316      8319
      8248      8245      8316      8320      8253      8257      8261      8263
      8253      8257      8261      8264      8253      8257      8261      8265
      8255      8253      8257      8259      8255      8253      8257      8260
      8255      8253      8257      8261      8256      8253      8257      8259
      8256      8253      8257      8260      8256      8253      8257      8261
      8257      8261      8265      8267      8257      8261      8265      8268
      8257      8261      8265      8269      8259      8257      8261      8263
      8259      8257      8261      8264      8259      8257      8261      8265
      8260      8257      8261      8263      8260      8257      8261      8264
      8260      8257      8261      8265      8261      8265      8269      8271
      8261      8265      8269      8272      8261      8265      8269      8273
      8263      8261      8265      8267      8263      8261      8265      8268
      8263      8261      8265      8269      8264      8261      8265      8267
      8264      8261      8265      8268      8264      8261      8265      8269
      8265      8269      8273      8275      8265      8269      8273      8276
      8265      8269      8273      8277      8267      8265      8269      8271
      8267      8265      8269      8272      8267      8265      8269      8273
      8268      8265      8269      8271      8268      8265      8269      8272
      8268      8265      8269      8273      8269      8273      8277      8279
      8269      8273      8277      8280      8271      8269      8273      8275
      8271      8269      8273      8276      8271      8269      8273      8277
      8272      8269      8273      8275      8272      8269      8273      8276
      8272      8269      8273      8277      8273      8277      8280      8282
      8273      8277      8280      8283      8275      8273      8277      8279
      8275      8273      8277      8280      8276      8273      8277      8279
      8276      8273      8277      8280      8277      8280      8283      8285
      8277      8280      8283      8286      8277      8280      8283      8287
      8279      8277      8280      8282      8279      8277      8280      8283
      8280      8283      8287      8289      8280      8283      8287      8290
      8280      8283      8287      8291      8282      8280      8283      8285
      8282      8280      8283      8286      8282      8280      8283      8287
      8283      8287      8291      8293      8283      8287      8291      8294
      8283      8287      8291      8295      8285      8283      8287      8289
      8285      8283      8287      8290      8285      8283      8287      8291
      8286      8283      8287      8289      8286      8283      8287      8290
      8286      8283      8287      8291      8287      8291      8295      8297
      8287      8291      8295      8298      8287      8291      8295      8299
      8289      8287      8291      8293      8289      8287      8291      8294
      8289      8287      8291      8295      8290      8287      8291      8293
      8290      8287      8291      8294      8290      8287      8291      8295
      8291      8295      8299      8301      8291      8295      8299      8302
      8291      8295      8299      8303      8293      8291      8295      8297
      8293      8291      8295      8298      8293      8291      8295      8299
      8294      8291      8295      8297      8294      8291      8295      8298
      8294      8291      8295      8299      8295      8299      8303      8305
      8295      8299      8303      8306      8295      8299      8303      8307
      8297      8295      8299      8301      8297      8295      8299      8302
      8297      8295      8299      8303      8298      8295      8299      8301
      8298      8295      8299      8302      8298      8295      8299      8303
      8299      8303      8307      8309      8299      8303      8307      8310
      8299      8303      8307      8311      8301      8299      8303      8305
      8301      8299      8303      8306      8301      8299      8303      8307
      8302      8299      8303      8305      8302      8299      8303      8306
      8302      8299      8303      8307      8303      8307      8311      8313
      8303      8307      8311      8314      8303      8307      8311      8315
      8305      8303      8307      8309      8305      8303      8307      8310
      8305      8303      8307      8311      8306      8303      8307      8309
      8306      8303      8307      8310      8306      8303      8307      8311
      8309      8307      8311      8313      8309      8307      8311      8314
      8309      8307      8311      8315      8310      8307      8311      8313
      8310      8307      8311      8314      8310      8307      8311      8315
      8316      8320      8324      8326      8316      8320      8324      8327
      8316      8320      8324      8328      8318      8316      8320      8322
      8318      8316      8320      8323      8318      8316      8320      8324
      8319      8316      8320      8322      8319      8316      8320      8323
      8319      8316      8320      8324      8320      8324      8328      8330
      8320      8324      8328      8331      8320      8324      8328      8332
      8322      8320      8324      8326      8322      8320      8324      8327
      8322      8320      8324      8328      8323      8320      8324      8326
      8323      8320      8324      8327      8323      8320      8324      8328
      8324      8328      8332      8334      8324      8328      8332      8335
      8324      8328      8332      8336      8326      8324      8328      8330
      8326      8324      8328      8331      8326      8324      8328      8332
      8327      8324      8328      8330      8327      8324      8328      8331
      8327      8324      8328      8332      8328      8332      8336      8338
      8328      8332      8336      8339      8328      8332      8336      8340
      8330      8328      8332      8334      8330      8328      8332      8335
      8330      8328      8332      8336      8331      8328      8332      8334
      8331      8328      8332      8335      8331      8328      8332      8336
      8332      8336      8340      8342      8332      8336      8340      8343
      8332      8336      8340      8344      8334      8332      8336      8338
      8334      8332      8336      8339      8334      8332      8336      8340
      8335      8332      8336      8338      8335      8332      8336      8339
      8335      8332      8336      8340      8336      8340      8344      8346
      8336      8340      8344      8347      8336      8340      8344      8348
      8338      8336      8340      8342      8338      8336      8340      8343
      8338      8336      8340      8344      8339      8336      8340      8342
      8339      8336      8340      8343      8339      8336      8340      8344
      8340      8344      8348      8350      8340      8344      8348      8351
      8340      8344      8348      8352      8342      8340      8344      8346
      8342      8340      8344      8347      8342      8340      8344      8348
      8343      8340      8344      8346      8343      8340      8344      8347
      8343      8340      8344      8348      8344      8348      8352      8354
      8344      8348      8352      8355      8344      8348      8352      8356
      8346      8344      8348      8350      8346      8344      8348      8351
      8346      8344      8348      8352      8347      8344      8348      8350
      8347      8344      8348      8351      8347      8344      8348      8352
      8348      8352      8356      8358      8348      8352      8356      8359
      8348      8352      8356      8360      8350      8348      8352      8354
      8350      8348      8352      8355      8350      8348      8352      8356
      8351      8348      8352      8354      8351      8348      8352      8355
      8351      8348      8352      8356      8352      8356      8360      8362
      8352      8356      8360      8363      8352      8356      8360      8364
      8354      8352      8356      8358      8354      8352      8356      8359
      8354      8352      8356      8360      8355      8352      8356      8358
      8355      8352      8356      8359      8355      8352      8356      8360
      8356      8360      8364      8366      8356      8360      8364      8367
      8356      8360      8364      8368      8358      8356      8360      8362
      8358      8356      8360      8363      8358      8356      8360      8364
      8359      8356      8360      8362      8359      8356      8360      8363
      8359      8356      8360      8364      8360      8364      8368      8370
      8360      8364      8368      8371      8360      8364      8368      8372
      8362      8360      8364      8366      8362      8360      8364      8367
      8362      8360      8364      8368      8363      8360      8364      8366
      8363      8360      8364      8367      8363      8360      8364      8368
      8366      8364      8368      8370      8366      8364      8368      8371
      8366      8364      8368      8372      8367      8364      8368      8370
      8367      8364      8368      8371      8367      8364      8368      8372
      8373      8378      8382      8384      8373      8378      8382      8385
      8373      8378      8382      8394      8375      8373      8378      8380
      8375      8373      8378      8381      8375      8373      8378      8382
      8376      8373      8378      8380      8376      8373      8378      8381
      8376      8373      8378      8382      8377      8373      8378      8380
      8377      8373      8378      8381      8377      8373      8378      8382
      8378      8382      8394      8386      8380      8378      8382      8384
      8380      8378      8382      8385      8380      8378      8382      8394
      8381      8378      8382      8384      8381      8378      8382      8385
      8381      8378      8382      8394      8382      8394      8386      8388
      8382      8394      8386      8390      8382      8394      8386      8392
      8384      8382      8394      8386      8385      8382      8394      8386
      8386      8392      8396      8398      8386      8392      8396      8399
      8386      8392      8396      8400      8388      8386      8392      8396
      8390      8386      8392      8396      8392      8396      8400      8402
      8392      8396      8400      8403      8392      8396      8400      8417
      8394      8386      8392      8396      8396      8400      8403      8405
      8396      8400      8417      8419      8396      8400      8417      8420
      8396      8400      8417      8421      8398      8396      8400      8402
      8398      8396      8400      8403      8398      8396      8400      8417
      8399      8396      8400      8402      8399      8396      8400      8403
      8399      8396      8400      8417      8400      8403      8405      8407
      8400      8403      8405      8409      8400      8417      8421      8423
      8402      8400      8403      8405      8402      8400      8417      8419
      8402      8400      8417      8420      8402      8400      8417      8421
      8403      8400      8417      8419      8403      8400      8417      8420
      8403      8400      8417      8421      8403      8405      8409      8411
      8403      8405      8409      8412      8403      8405      8409      8435
      8405      8403      8400      8417      8405      8409      8435      8437
      8405      8409      8435      8438      8405      8409      8435      8439
      8407      8405      8409      8411      8407      8405      8409      8412
      8407      8405      8409      8435      8409      8435      8439      8441
      8409      8435      8439      8442      8409      8435      8439      8443
      8411      8409      8435      8437      8411      8409      8435      8438
      8411      8409      8435      8439      8412      8409      8435      8437
      8412      8409      8435      8438      8412      8409      8435      8439
      8417      8421      8423      8425      8417      8421      8423      8427
      8419      8417      8421      8423      8420      8417      8421      8423
      8421      8423      8427      8429      8421      8423      8427      8430
      8421      8423      8427      8498      8423      8427      8498      8500
      8423      8427      8498      8501      8423      8427      8498      8502
      8425      8423      8427      8429      8425      8423      8427      8430
      8425      8423      8427      8498      8427      8498      8502      8504
      8427      8498      8502      8505      8427      8498      8502      8506
      8429      8427      8498      8500      8429      8427      8498      8501
      8429      8427      8498      8502      8430      8427      8498      8500
      8430      8427      8498      8501      8430      8427      8498      8502
      8435      8439      8443      8445      8435      8439      8443      8446
      8435      8439      8443      8447      8437      8435      8439      8441
      8437      8435      8439      8442      8437      8435      8439      8443
      8438      8435      8439      8441      8438      8435      8439      8442
      8438      8435      8439      8443      8439      8443      8447      8449
      8439      8443      8447      8450      8439      8443      8447      8451
      8441      8439      8443      8445      8441      8439      8443      8446
      8441      8439      8443      8447      8442      8439      8443      8445
      8442      8439      8443      8446      8442      8439      8443      8447
      8443      8447      8451      8453      8443      8447      8451      8454
      8443      8447      8451      8455      8445      8443      8447      8449
      8445      8443      8447      8450      8445      8443      8447      8451
      8446      8443      8447      8449      8446      8443      8447      8450
      8446      8443      8447      8451      8447      8451      8455      8457
      8447      8451      8455      8458      8447      8451      8455      8459
      8449      8447      8451      8453      8449      8447      8451      8454
      8449      8447      8451      8455      8450      8447      8451      8453
      8450      8447      8451      8454      8450      8447      8451      8455
      8451      8455      8459      8461      8451      8455      8459      8462
      8453      8451      8455      8457      8453      8451      8455      8458
      8453      8451      8455      8459      8454      8451      8455      8457
      8454      8451      8455      8458      8454      8451      8455      8459
      8455      8459      8462      8464      8455      8459      8462      8465
      8457      8455      8459      8461      8457      8455      8459      8462
      8458      8455      8459      8461      8458      8455      8459      8462
      8459      8462      8465      8467      8459      8462      8465      8468
      8459      8462      8465      8469      8461      8459      8462      8464
      8461      8459      8462      8465      8462      8465      8469      8471
      8462      8465      8469      8472      8462      8465      8469      8473
      8464      8462      8465      8467      8464      8462      8465      8468
      8464      8462      8465      8469      8465      8469      8473      8475
      8465      8469      8473      8476      8465      8469      8473      8477
      8467      8465      8469      8471      8467      8465      8469      8472
      8467      8465      8469      8473      8468      8465      8469      8471
      8468      8465      8469      8472      8468      8465      8469      8473
      8469      8473      8477      8479      8469      8473      8477      8480
      8469      8473      8477      8481      8471      8469      8473      8475
      8471      8469      8473      8476      8471      8469      8473      8477
      8472      8469      8473      8475      8472      8469      8473      8476
      8472      8469      8473      8477      8473      8477      8481      8483
      8473      8477      8481      8484      8473      8477      8481      8485
      8475      8473      8477      8479      8475      8473      8477      8480
      8475      8473      8477      8481      8476      8473      8477      8479
      8476      8473      8477      8480      8476      8473      8477      8481
      8477      8481      8485      8487      8477      8481      8485      8488
      8477      8481      8485      8489      8479      8477      8481      8483
      8479      8477      8481      8484      8479      8477      8481      8485
      8480      8477      8481      8483      8480      8477      8481      8484
      8480      8477      8481      8485      8481      8485      8489      8491
      8481      8485      8489      8492      8481      8485      8489      8493
      8483      8481      8485      8487      8483      8481      8485      8488
      8483      8481      8485      8489      8484      8481      8485      8487
      8484      8481      8485      8488      8484      8481      8485      8489
      8485      8489      8493      8495      8485      8489      8493      8496
      8485      8489      8493      8497      8487      8485      8489      8491
      8487      8485      8489      8492      8487      8485      8489      8493
      8488      8485      8489      8491      8488      8485      8489      8492
      8488      8485      8489      8493      8491      8489      8493      8495
      8491      8489      8493      8496      8491      8489      8493      8497
      8492      8489      8493      8495      8492      8489      8493      8496
      8492      8489      8493      8497      8498      8502      8506      8508
      8498      8502      8506      8509      8498      8502      8506      8510
      8500      8498      8502      8504      8500      8498      8502      8505
      8500      8498      8502      8506      8501      8498      8502      8504
      8501      8498      8502      8505      8501      8498      8502      8506
      8502      8506      8510      8512      8502      8506      8510      8513
      8502      8506      8510      8514      8504      8502      8506      8508
      8504      8502      8506      8509      8504      8502      8506      8510
      8505      8502      8506      8508      8505      8502      8506      8509
      8505      8502      8506      8510      8506      8510      8514      8516
      8506      8510      8514      8517      8506      8510      8514      8518
      8508      8506      8510      8512      8508      8506      8510      8513
      8508      8506      8510      8514      8509      8506      8510      8512
      8509      8506      8510      8513      8509      8506      8510      8514
      8510      8514      8518      8520      8510      8514      8518      8521
      8510      8514      8518      8522      8512      8510      8514      8516
      8512      8510      8514      8517      8512      8510      8514      8518
      8513      8510      8514      8516      8513      8510      8514      8517
      8513      8510      8514      8518      8514      8518      8522      8524
      8514      8518      8522      8525      8514      8518      8522      8526
      8516      8514      8518      8520      8516      8514      8518      8521
      8516      8514      8518      8522      8517      8514      8518      8520
      8517      8514      8518      8521      8517      8514      8518      8522
      8518      8522      8526      8528      8518      8522      8526      8529
      8518      8522      8526      8530      8520      8518      8522      8524
      8520      8518      8522      8525      8520      8518      8522      8526
      8521      8518      8522      8524      8521      8518      8522      8525
      8521      8518      8522      8526      8522      8526      8530      8532
      8522      8526      8530      8533      8522      8526      8530      8534
      8524      8522      8526      8528      8524      8522      8526      8529
      8524      8522      8526      8530      8525      8522      8526      8528
      8525      8522      8526      8529      8525      8522      8526      8530
      8526      8530      8534      8536      8526      8530      8534      8537
      8526      8530      8534      8538      8528      8526      8530      8532
      8528      8526      8530      8533      8528      8526      8530      8534
      8529      8526      8530      8532      8529      8526      8530      8533
      8529      8526      8530      8534      8530      8534      8538      8540
      8530      8534      8538      8541      8530      8534      8538      8542
      8532      8530      8534      8536      8532      8530      8534      8537
      8532      8530      8534      8538      8533      8530      8534      8536
      8533      8530      8534      8537      8533      8530      8534      8538
      8534      8538      8542      8544      8534      8538      8542      8545
      8534      8538      8542      8546      8536      8534      8538      8540
      8536      8534      8538      8541      8536      8534      8538      8542
      8537      8534      8538      8540      8537      8534      8538      8541
      8537      8534      8538      8542      8538      8542      8546      8548
      8538      8542      8546      8549      8538      8542      8546      8550
      8540      8538      8542      8544      8540      8538      8542      8545
      8540      8538      8542      8546      8541      8538      8542      8544
      8541      8538      8542      8545      8541      8538      8542      8546
      8542      8546      8550      8552      8542      8546      8550      8553
      8542      8546      8550      8554      8544      8542      8546      8548
      8544      8542      8546      8549      8544      8542      8546      8550
      8545      8542      8546      8548      8545      8542      8546      8549
      8545      8542      8546      8550      8548      8546      8550      8552
      8548      8546      8550      8553      8548      8546      8550      8554
      8549      8546      8550      8552      8549      8546      8550      8553
      8549      8546      8550      8554      8555      8560      8564      8566
      8555      8560      8564      8567      8555      8560      8564      8576
      8557      8555      8560      8562      8557      8555      8560      8563
      8557      8555      8560      8564      8558      8555      8560      8562
      8558      8555      8560      8563      8558      8555      8560      8564
      8559      8555      8560      8562      8559      8555      8560      8563
      8559      8555      8560      8564      8560      8564      8576      8568
      8562      8560      8564      8566      8562      8560      8564      8567
      8562      8560      8564      8576      8563      8560      8564      8566
      8563      8560      8564      8567      8563      8560      8564      8576
      8564      8576      8568      8570      8564      8576      8568      8572
      8564      8576      8568      8574      8566      8564      8576      8568
      8567      8564      8576      8568      8568      8574      8578      8580
      8568      8574      8578      8581      8568      8574      8578      8582
      8570      8568      8574      8578      8572      8568      8574      8578
      8574      8578      8582      8584      8574      8578      8582      8585
      8574      8578      8582      8599      8576      8568      8574      8578
      8578      8582      8585      8587      8578      8582      8599      8601
      8578      8582      8599      8602      8578      8582      8599      8603
      8580      8578      8582      8584      8580      8578      8582      8585
      8580      8578      8582      8599      8581      8578      8582      8584
      8581      8578      8582      8585      8581      8578      8582      8599
      8582      8585      8587      8589      8582      8585      8587      8591
      8582      8599      8603      8605      8584      8582      8585      8587
      8584      8582      8599      8601      8584      8582      8599      8602
      8584      8582      8599      8603      8585      8582      8599      8601
      8585      8582      8599      8602      8585      8582      8599      8603
      8585      8587      8591      8593      8585      8587      8591      8594
      8585      8587      8591      8617      8587      8585      8582      8599
      8587      8591      8617      8619      8587      8591      8617      8620
      8587      8591      8617      8621      8589      8587      8591      8593
      8589      8587      8591      8594      8589      8587      8591      8617
      8591      8617      8621      8623      8591      8617      8621      8624
      8591      8617      8621      8625      8593      8591      8617      8619
      8593      8591      8617      8620      8593      8591      8617      8621
      8594      8591      8617      8619      8594      8591      8617      8620
      8594      8591      8617      8621      8599      8603      8605      8607
      8599      8603      8605      8609      8601      8599      8603      8605
      8602      8599      8603      8605      8603      8605      8609      8611
      8603      8605      8609      8612      8603      8605      8609      8680
      8605      8609      8680      8682      8605      8609      8680      8683
      8605      8609      8680      8684      8607      8605      8609      8611
      8607      8605      8609      8612      8607      8605      8609      8680
      8609      8680      8684      8686      8609      8680      8684      8687
      8609      8680      8684      8688      8611      8609      8680      8682
      8611      8609      8680      8683      8611      8609      8680      8684
      8612      8609      8680      8682      8612      8609      8680      8683
      8612      8609      8680      8684      8617      8621      8625      8627
      8617      8621      8625      8628      8617      8621      8625      8629
      8619      8617      8621      8623      8619      8617      8621      8624
      8619      8617      8621      8625      8620      8617      8621      8623
      8620      8617      8621      8624      8620      8617      8621      8625
      8621      8625      8629      8631      8621      8625      8629      8632
      8621      8625      8629      8633      8623      8621      8625      8627
      8623      8621      8625      8628      8623      8621      8625      8629
      8624      8621      8625      8627      8624      8621      8625      8628
      8624      8621      8625      8629      8625      8629      8633      8635
      8625      8629      8633      8636      8625      8629      8633      8637
      8627      8625      8629      8631      8627      8625      8629      8632
      8627      8625      8629      8633      8628      8625      8629      8631
      8628      8625      8629      8632      8628      8625      8629      8633
      8629      8633      8637      8639      8629      8633      8637      8640
      8629      8633      8637      8641      8631      8629      8633      8635
      8631      8629      8633      8636      8631      8629      8633      8637
      8632      8629      8633      8635      8632      8629      8633      8636
      8632      8629      8633      8637      8633      8637      8641      8643
      8633      8637      8641      8644      8635      8633      8637      8639
      8635      8633      8637      8640      8635      8633      8637      8641
      8636      8633      8637      8639      8636      8633      8637      8640
      8636      8633      8637      8641      8637      8641      8644      8646
      8637      8641      8644      8647      8639      8637      8641      8643
      8639      8637      8641      8644      8640      8637      8641      8643
      8640      8637      8641      8644      8641      8644      8647      8649
      8641      8644      8647      8650      8641      8644      8647      8651
      8643      8641      8644      8646      8643      8641      8644      8647
      8644      8647      8651      8653      8644      8647      8651      8654
      8644      8647      8651      8655      8646      8644      8647      8649
      8646      8644      8647      8650      8646      8644      8647      8651
      8647      8651      8655      8657      8647      8651      8655      8658
      8647      8651      8655      8659      8649      8647      8651      8653
      8649      8647      8651      8654      8649      8647      8651      8655
      8650      8647      8651      8653      8650      8647      8651      8654
      8650      8647      8651      8655      8651      8655      8659      8661
      8651      8655      8659      8662      8651      8655      8659      8663
      8653      8651      8655      8657      8653      8651      8655      8658
      8653      8651      8655      8659      8654      8651      8655      8657
      8654      8651      8655      8658      8654      8651      8655      8659
      8655      8659      8663      8665      8655      8659      8663      8666
      8655      8659      8663      8667      8657      8655      8659      8661
      8657      8655      8659      8662      8657      8655      8659      8663
      8658      8655      8659      8661      8658      8655      8659      8662
      8658      8655      8659      8663      8659      8663      8667      8669
      8659      8663      8667      8670      8659      8663      8667      8671
      8661      8659      8663      8665      8661      8659      8663      8666
      8661      8659      8663      8667      8662      8659      8663      8665
      8662      8659      8663      8666      8662      8659      8663      8667
      8663      8667      8671      8673      8663      8667      8671      8674
      8663      8667      8671      8675      8665      8663      8667      8669
      8665      8663      8667      8670      8665      8663      8667      8671
      8666      8663      8667      8669      8666      8663      8667      8670
      8666      8663      8667      8671      8667      8671      8675      8677
      8667      8671      8675      8678      8667      8671      8675      8679
      8669      8667      8671      8673      8669      8667      8671      8674
      8669      8667      8671      8675      8670      8667      8671      8673
      8670      8667      8671      8674      8670      8667      8671      8675
      8673      8671      8675      8677      8673      8671      8675      8678
      8673      8671      8675      8679      8674      8671      8675      8677
      8674      8671      8675      8678      8674      8671      8675      8679
      8680      8684      8688      8690      8680      8684      8688      8691
      8680      8684      8688      8692      8682      8680      8684      8686
      8682      8680      8684      8687      8682      8680      8684      8688
      8683      8680      8684      8686      8683      8680      8684      8687
      8683      8680      8684      8688      8684      8688      8692      8694
      8684      8688      8692      8695      8684      8688      8692      8696
      8686      8684      8688      8690      8686      8684      8688      8691
      8686      8684      8688      8692      8687      8684      8688      8690
      8687      8684      8688      8691      8687      8684      8688      8692
      8688      8692      8696      8698      8688      8692      8696      8699
      8688      8692      8696      8700      8690      8688      8692      8694
      8690      8688      8692      8695      8690      8688      8692      8696
      8691      8688      8692      8694      8691      8688      8692      8695
      8691      8688      8692      8696      8692      8696      8700      8702
      8692      8696      8700      8703      8692      8696      8700      8704
      8694      8692      8696      8698      8694      8692      8696      8699
      8694      8692      8696      8700      8695      8692      8696      8698
      8695      8692      8696      8699      8695      8692      8696      8700
      8696      8700      8704      8706      8696      8700      8704      8707
      8696      8700      8704      8708      8698      8696      8700      8702
      8698      8696      8700      8703      8698      8696      8700      8704
      8699      8696      8700      8702      8699      8696      8700      8703
      8699      8696      8700      8704      8700      8704      8708      8710
      8700      8704      8708      8711      8700      8704      8708      8712
      8702      8700      8704      8706      8702      8700      8704      8707
      8702      8700      8704      8708      8703      8700      8704      8706
      8703      8700      8704      8707      8703      8700      8704      8708
      8704      8708      8712      8714      8704      8708      8712      8715
      8704      8708      8712      8716      8706      8704      8708      8710
      8706      8704      8708      8711      8706      8704      8708      8712
      8707      8704      8708      8710      8707      8704      8708      8711
      8707      8704      8708      8712      8708      8712      8716      8718
      8708      8712      8716      8719      8708      8712      8716      8720
      8710      8708      8712      8714      8710      8708      8712      8715
      8710      8708      8712      8716      8711      8708      8712      8714
      8711      8708      8712      8715      8711      8708      8712      8716
      8712      8716      8720      8722      8712      8716      8720      8723
      8712      8716      8720      8724      8714      8712      8716      8718
      8714      8712      8716      8719      8714      8712      8716      8720
      8715      8712      8716      8718      8715      8712      8716      8719
      8715      8712      8716      8720      8716      8720      8724      8726
      8716      8720      8724      8727      8716      8720      8724      8728
      8718      8716      8720      8722      8718      8716      8720      8723
      8718      8716      8720      8724      8719      8716      8720      8722
      8719      8716      8720      8723      8719      8716      8720      8724
      8720      8724      8728      8730      8720      8724      8728      8731
      8720      8724      8728      8732      8722      8720      8724      8726
      8722      8720      8724      8727      8722      8720      8724      8728
      8723      8720      8724      8726      8723      8720      8724      8727
      8723      8720      8724      8728      8724      8728      8732      8734
      8724      8728      8732      8735      8724      8728      8732      8736
      8726      8724      8728      8730      8726      8724      8728      8731
      8726      8724      8728      8732      8727      8724      8728      8730
      8727      8724      8728      8731      8727      8724      8728      8732
      8730      8728      8732      8734      8730      8728      8732      8735
      8730      8728      8732      8736      8731      8728      8732      8734
      8731      8728      8732      8735      8731      8728      8732      8736
      8737      8742      8746      8748      8737      8742      8746      8749
      8737      8742      8746      8758      8739      8737      8742      8744
      8739      8737      8742      8745      8739      8737      8742      8746
      8740      8737      8742      8744      8740      8737      8742      8745
      8740      8737      8742      8746      8741      8737      8742      8744
      8741      8737      8742      8745      8741      8737      8742      8746
      8742      8746      8758      8750      8744      8742      8746      8748
      8744      8742      8746      8749      8744      8742      8746      8758
      8745      8742      8746      8748      8745      8742      8746      8749
      8745      8742      8746      8758      8746      8758      8750      8752
      8746      8758      8750      8754      8746      8758      8750      8756
      8748      8746      8758      8750      8749      8746      8758      8750
      8750      8756      8760      8762      8750      8756      8760      8763
      8750      8756      8760      8764      8752      8750      8756      8760
      8754      8750      8756      8760      8756      8760      8764      8766
      8756      8760      8764      8767      8756      8760      8764      8781
      8758      8750      8756      8760      8760      8764      8767      8769
      8760      8764      8781      8783      8760      8764      8781      8784
      8760      8764      8781      8785      8762      8760      8764      8766
      8762      8760      8764      8767      8762      8760      8764      8781
      8763      8760      8764      8766      8763      8760      8764      8767
      8763      8760      8764      8781      8764      8767      8769      8771
      8764      8767      8769      8773      8764      8781      8785      8787
      8766      8764      8767      8769      8766      8764      8781      8783
      8766      8764      8781      8784      8766      8764      8781      8785
      8767      8764      8781      8783      8767      8764      8781      8784
      8767      8764      8781      8785      8767      8769      8773      8775
      8767      8769      8773      8776      8767      8769      8773      8799
      8769      8767      8764      8781      8769      8773      8799      8801
      8769      8773      8799      8802      8769      8773      8799      8803
      8771      8769      8773      8775      8771      8769      8773      8776
      8771      8769      8773      8799      8773      8799      8803      8805
      8773      8799      8803      8806      8773      8799      8803      8807
      8775      8773      8799      8801      8775      8773      8799      8802
      8775      8773      8799      8803      8776      8773      8799      8801
      8776      8773      8799      8802      8776      8773      8799      8803
      8781      8785      8787      8789      8781      8785      8787      8791
      8783      8781      8785      8787      8784      8781      8785      8787
      8785      8787      8791      8793      8785      8787      8791      8794
      8785      8787      8791      8862      8787      8791      8862      8864
      8787      8791      8862      8865      8787      8791      8862      8866
      8789      8787      8791      8793      8789      8787      8791      8794
      8789      8787      8791      8862      8791      8862      8866      8868
      8791      8862      8866      8869      8791      8862      8866      8870
      8793      8791      8862      8864      8793      8791      8862      8865
      8793      8791      8862      8866      8794      8791      8862      8864
      8794      8791      8862      8865      8794      8791      8862      8866
      8799      8803      8807      8809      8799      8803      8807      8810
      8799      8803      8807      8811      8801      8799      8803      8805
      8801      8799      8803      8806      8801      8799      8803      8807
      8802      8799      8803      8805      8802      8799      8803      8806
      8802      8799      8803      8807      8803      8807      8811      8813
      8803      8807      8811      8814      8803      8807      8811      8815
      8805      8803      8807      8809      8805      8803      8807      8810
      8805      8803      8807      8811      8806      8803      8807      8809
      8806      8803      8807      8810      8806      8803      8807      8811
      8807      8811      8815      8817      8807      8811      8815      8818
      8807      8811      8815      8819      8809      8807      8811      8813
      8809      8807      8811      8814      8809      8807      8811      8815
      8810      8807      8811      8813      8810      8807      8811      8814
      8810      8807      8811      8815      8811      8815      8819      8821
      8811      8815      8819      8822      8811      8815      8819      8823
      8813      8811      8815      8817      8813      8811      8815      8818
      8813      8811      8815      8819      8814      8811      8815      8817
      8814      8811      8815      8818      8814      8811      8815      8819
      8815      8819      8823      8825      8815      8819      8823      8826
      8817      8815      8819      8821      8817      8815      8819      8822
      8817      8815      8819      8823      8818      8815      8819      8821
      8818      8815      8819      8822      8818      8815      8819      8823
      8819      8823      8826      8828      8819      8823      8826      8829
      8821      8819      8823      8825      8821      8819      8823      8826
      8822      8819      8823      8825      8822      8819      8823      8826
      8823      8826      8829      8831      8823      8826      8829      8832
      8823      8826      8829      8833      8825      8823      8826      8828
      8825      8823      8826      8829      8826      8829      8833      8835
      8826      8829      8833      8836      8826      8829      8833      8837
      8828      8826      8829      8831      8828      8826      8829      8832
      8828      8826      8829      8833      8829      8833      8837      8839
      8829      8833      8837      8840      8829      8833      8837      8841
      8831      8829      8833      8835      8831      8829      8833      8836
      8831      8829      8833      8837      8832      8829      8833      8835
      8832      8829      8833      8836      8832      8829      8833      8837
      8833      8837      8841      8843      8833      8837      8841      8844
      8833      8837      8841      8845      8835      8833      8837      8839
      8835      8833      8837      8840      8835      8833      8837      8841
      8836      8833      8837      8839      8836      8833      8837      8840
      8836      8833      8837      8841      8837      8841      8845      8847
      8837      8841      8845      8848      8837      8841      8845      8849
      8839      8837      8841      8843      8839      8837      8841      8844
      8839      8837      8841      8845      8840      8837      8841      8843
      8840      8837      8841      8844      8840      8837      8841      8845
      8841      8845      8849      8851      8841      8845      8849      8852
      8841      8845      8849      8853      8843      8841      8845      8847
      8843      8841      8845      8848      8843      8841      8845      8849
      8844      8841      8845      8847      8844      8841      8845      8848
      8844      8841      8845      8849      8845      8849      8853      8855
      8845      8849      8853      8856      8845      8849      8853      8857
      8847      8845      8849      8851      8847      8845      8849      8852
      8847      8845      8849      8853      8848      8845      8849      8851
      8848      8845      8849      8852      8848      8845      8849      8853
      8849      8853      8857      8859      8849      8853      8857      8860
      8849      8853      8857      8861      8851      8849      8853      8855
      8851      8849      8853      8856      8851      8849      8853      8857
      8852      8849      8853      8855      8852      8849      8853      8856
      8852      8849      8853      8857      8855      8853      8857      8859
      8855      8853      8857      8860      8855      8853      8857      8861
      8856      8853      8857      8859      8856      8853      8857      8860
      8856      8853      8857      8861      8862      8866      8870      8872
      8862      8866      8870      8873      8862      8866      8870      8874
      8864      8862      8866      8868      8864      8862      8866      8869
      8864      8862      8866      8870      8865      8862      8866      8868
      8865      8862      8866      8869      8865      8862      8866      8870
      8866      8870      8874      8876      8866      8870      8874      8877
      8866      8870      8874      8878      8868      8866      8870      8872
      8868      8866      8870      8873      8868      8866      8870      8874
      8869      8866      8870      8872      8869      8866      8870      8873
      8869      8866      8870      8874      8870      8874      8878      8880
      8870      8874      8878      8881      8870      8874      8878      8882
      8872      8870      8874      8876      8872      8870      8874      8877
      8872      8870      8874      8878      8873      8870      8874      8876
      8873      8870      8874      8877      8873      8870      8874      8878
      8874      8878      8882      8884      8874      8878      8882      8885
      8874      8878      8882      8886      8876      8874      8878      8880
      8876      8874      8878      8881      8876      8874      8878      8882
      8877      8874      8878      8880      8877      8874      8878      8881
      8877      8874      8878      8882      8878      8882      8886      8888
      8878      8882      8886      8889      8878      8882      8886      8890
      8880      8878      8882      8884      8880      8878      8882      8885
      8880      8878      8882      8886      8881      8878      8882      8884
      8881      8878      8882      8885      8881      8878      8882      8886
      8882      8886      8890      8892      8882      8886      8890      8893
      8882      8886      8890      8894      8884      8882      8886      8888
      8884      8882      8886      8889      8884      8882      8886      8890
      8885      8882      8886      8888      8885      8882      8886      8889
      8885      8882      8886      8890      8886      8890      8894      8896
      8886      8890      8894      8897      8886      8890      8894      8898
      8888      8886      8890      8892      8888      8886      8890      8893
      8888      8886      8890      8894      8889      8886      8890      8892
      8889      8886      8890      8893      8889      8886      8890      8894
      8890      8894      8898      8900      8890      8894      8898      8901
      8890      8894      8898      8902      8892      8890      8894      8896
      8892      8890      8894      8897      8892      8890      8894      8898
      8893      8890      8894      8896      8893      8890      8894      8897
      8893      8890      8894      8898      8894      8898      8902      8904
      8894      8898      8902      8905      8894      8898      8902      8906
      8896      8894      8898      8900      8896      8894      8898      8901
      8896      8894      8898      8902      8897      8894      8898      8900
      8897      8894      8898      8901      8897      8894      8898      8902
      8898      8902      8906      8908      8898      8902      8906      8909
      8898      8902      8906      8910      8900      8898      8902      8904
      8900      8898      8902      8905      8900      8898      8902      8906
      8901      8898      8902      8904      8901      8898      8902      8905
      8901      8898      8902      8906      8902      8906      8910      8912
      8902      8906      8910      8913      8902      8906      8910      8914
      8904      8902      8906      8908      8904      8902      8906      8909
      8904      8902      8906      8910      8905      8902      8906      8908
      8905      8902      8906      8909      8905      8902      8906      8910
      8906      8910      8914      8916      8906      8910      8914      8917
      8906      8910      8914      8918      8908      8906      8910      8912
      8908      8906      8910      8913      8908      8906      8910      8914
      8909      8906      8910      8912      8909      8906      8910      8913
      8909      8906      8910      8914      8912      8910      8914      8916
      8912      8910      8914      8917      8912      8910      8914      8918
      8913      8910      8914      8916      8913      8910      8914      8917
      8913      8910      8914      8918      8919      8924      8928      8930
      8919      8924      8928      8931      8919      8924      8928      8940
      8921      8919      8924      8926      8921      8919      8924      8927
      8921      8919      8924      8928      8922      8919      8924      8926
      8922      8919      8924      8927      8922      8919      8924      8928
      8923      8919      8924      8926      8923      8919      8924      8927
      8923      8919      8924      8928      8924      8928      8940      8932
      8926      8924      8928      8930      8926      8924      8928      8931
      8926      8924      8928      8940      8927      8924      8928      8930
      8927      8924      8928      8931      8927      8924      8928      8940
      8928      8940      8932      8934      8928      8940      8932      8936
      8928      8940      8932      8938      8930      8928      8940      8932
      8931      8928      8940      8932      8932      8938      8942      8944
      8932      8938      8942      8945      8932      8938      8942      8946
      8934      8932      8938      8942      8936      8932      8938      8942
      8938      8942      8946      8948      8938      8942      8946      8949
      8938      8942      8946      8963      8940      8932      8938      8942
      8942      8946      8949      8951      8942      8946      8963      8965
      8942      8946      8963      8966      8942      8946      8963      8967
      8944      8942      8946      8948      8944      8942      8946      8949
      8944      8942      8946      8963      8945      8942      8946      8948
      8945      8942      8946      8949      8945      8942      8946      8963
      8946      8949      8951      8953      8946      8949      8951      8955
      8946      8963      8967      8969      8948      8946      8949      8951
      8948      8946      8963      8965      8948      8946      8963      8966
      8948      8946      8963      8967      8949      8946      8963      8965
      8949      8946      8963      8966      8949      8946      8963      8967
      8949      8951      8955      8957      8949      8951      8955      8958
      8949      8951      8955      8981      8951      8949      8946      8963
      8951      8955      8981      8983      8951      8955      8981      8984
      8951      8955      8981      8985      8953      8951      8955      8957
      8953      8951      8955      8958      8953      8951      8955      8981
      8955      8981      8985      8987      8955      8981      8985      8988
      8955      8981      8985      8989      8957      8955      8981      8983
      8957      8955      8981      8984      8957      8955      8981      8985
      8958      8955      8981      8983      8958      8955      8981      8984
      8958      8955      8981      8985      8963      8967      8969      8971
      8963      8967      8969      8973      8965      8963      8967      8969
      8966      8963      8967      8969      8967      8969      8973      8975
      8967      8969      8973      8976      8967      8969      8973      9044
      8969      8973      9044      9046      8969      8973      9044      9047
      8969      8973      9044      9048      8971      8969      8973      8975
      8971      8969      8973      8976      8971      8969      8973      9044
      8973      9044      9048      9050      8973      9044      9048      9051
      8973      9044      9048      9052      8975      8973      9044      9046
      8975      8973      9044      9047      8975      8973      9044      9048
      8976      8973      9044      9046      8976      8973      9044      9047
      8976      8973      9044      9048      8981      8985      8989      8991
      8981      8985      8989      8992      8981      8985      8989      8993
      8983      8981      8985      8987      8983      8981      8985      8988
      8983      8981      8985      8989      8984      8981      8985      8987
      8984      8981      8985      8988      8984      8981      8985      8989
      8985      8989      8993      8995      8985      8989      8993      8996
      8985      8989      8993      8997      8987      8985      8989      8991
      8987      8985      8989      8992      8987      8985      8989      8993
      8988      8985      8989      8991      8988      8985      8989      8992
      8988      8985      8989      8993      8989      8993      8997      8999
      8989      8993      8997      9000      8989      8993      8997      9001
      8991      8989      8993      8995      8991      8989      8993      8996
      8991      8989      8993      8997      8992      8989      8993      8995
      8992      8989      8993      8996      8992      8989      8993      8997
      8993      8997      9001      9003      8993      8997      9001      9004
      8993      8997      9001      9005      8995      8993      8997      8999
      8995      8993      8997      9000      8995      8993      8997      9001
      8996      8993      8997      8999      8996      8993      8997      9000
      8996      8993      8997      9001      8997      9001      9005      9007
      8997      9001      9005      9008      8999      8997      9001      9003
      8999      8997      9001      9004      8999      8997      9001      9005
      9000      8997      9001      9003      9000      8997      9001      9004
      9000      8997      9001      9005      9001      9005      9008      9010
      9001      9005      9008      9011      9003      9001      9005      9007
      9003      9001      9005      9008      9004      9001      9005      9007
      9004      9001      9005      9008      9005      9008      9011      9013
      9005      9008      9011      9014      9005      9008      9011      9015
      9007      9005      9008      9010      9007      9005      9008      9011
      9008      9011      9015      9017      9008      9011      9015      9018
      9008      9011      9015      9019      9010      9008      9011      9013
      9010      9008      9011      9014      9010      9008      9011      9015
      9011      9015      9019      9021      9011      9015      9019      9022
      9011      9015      9019      9023      9013      9011      9015      9017
      9013      9011      9015      9018      9013      9011      9015      9019
      9014      9011      9015      9017      9014      9011      9015      9018
      9014      9011      9015      9019      9015      9019      9023      9025
      9015      9019      9023      9026      9015      9019      9023      9027
      9017      9015      9019      9021      9017      9015      9019      9022
      9017      9015      9019      9023      9018      9015      9019      9021
      9018      9015      9019      9022      9018      9015      9019      9023
      9019      9023      9027      9029      9019      9023      9027      9030
      9019      9023      9027      9031      9021      9019      9023      9025
      9021      9019      9023      9026      9021      9019      9023      9027
      9022      9019      9023      9025      9022      9019      9023      9026
      9022      9019      9023      9027      9023      9027      9031      9033
      9023      9027      9031      9034      9023      9027      9031      9035
      9025      9023      9027      9029      9025      9023      9027      9030
      9025      9023      9027      9031      9026      9023      9027      9029
      9026      9023      9027      9030      9026      9023      9027      9031
      9027      9031      9035      9037      9027      9031      9035      9038
      9027      9031      9035      9039      9029      9027      9031      9033
      9029      9027      9031      9034      9029      9027      9031      9035
      9030      9027      9031      9033      9030      9027      9031      9034
      9030      9027      9031      9035      9031      9035      9039      9041
      9031      9035      9039      9042      9031      9035      9039      9043
      9033      9031      9035      9037      9033      9031      9035      9038
      9033      9031      9035      9039      9034      9031      9035      9037
      9034      9031      9035      9038      9034      9031      9035      9039
      9037      9035      9039      9041      9037      9035      9039      9042
      9037      9035      9039      9043      9038      9035      9039      9041
      9038      9035      9039      9042      9038      9035      9039      9043
      9044      9048      9052      9054      9044      9048      9052      9055
      9044      9048      9052      9056      9046      9044      9048      9050
      9046      9044      9048      9051      9046      9044      9048      9052
      9047      9044      9048      9050      9047      9044      9048      9051
      9047      9044      9048      9052      9048      9052      9056      9058
      9048      9052      9056      9059      9048      9052      9056      9060
      9050      9048      9052      9054      9050      9048      9052      9055
      9050      9048      9052      9056      9051      9048      9052      9054
      9051      9048      9052      9055      9051      9048      9052      9056
      9052      9056      9060      9062      9052      9056      9060      9063
      9052      9056      9060      9064      9054      9052      9056      9058
      9054      9052      9056      9059      9054      9052      9056      9060
      9055      9052      9056      9058      9055      9052      9056      9059
      9055      9052      9056      9060      9056      9060      9064      9066
      9056      9060      9064      9067      9056      9060      9064      9068
      9058      9056      9060      9062      9058      9056      9060      9063
      9058      9056      9060      9064      9059      9056      9060      9062
      9059      9056      9060      9063      9059      9056      9060      9064
      9060      9064      9068      9070      9060      9064      9068      9071
      9060      9064      9068      9072      9062      9060      9064      9066
      9062      9060      9064      9067      9062      9060      9064      9068
      9063      9060      9064      9066      9063      9060      9064      9067
      9063      9060      9064      9068      9064      9068      9072      9074
      9064      9068      9072      9075      9064      9068      9072      9076
      9066      9064      9068      9070      9066      9064      9068      9071
      9066      9064      9068      9072      9067      9064      9068      9070
      9067      9064      9068      9071      9067      9064      9068      9072
      9068      9072      9076      9078      9068      9072      9076      9079
      9068      9072      9076      9080      9070      9068      9072      9074
      9070      9068      9072      9075      9070      9068      9072      9076
      9071      9068      9072      9074      9071      9068      9072      9075
      9071      9068      9072      9076      9072      9076      9080      9082
      9072      9076      9080      9083      9072      9076      9080      9084
      9074      9072      9076      9078      9074      9072      9076      9079
      9074      9072      9076      9080      9075      9072      9076      9078
      9075      9072      9076      9079      9075      9072      9076      9080
      9076      9080      9084      9086      9076      9080      9084      9087
      9076      9080      9084      9088      9078      9076      9080      9082
      9078      9076      9080      9083      9078      9076      9080      9084
      9079      9076      9080      9082      9079      9076      9080      9083
      9079      9076      9080      9084      9080      9084      9088      9090
      9080      9084      9088      9091      9080      9084      9088      9092
      9082      9080      9084      9086      9082      9080      9084      9087
      9082      9080      9084      9088      9083      9080      9084      9086
      9083      9080      9084      9087      9083      9080      9084      9088
      9084      9088      9092      9094      9084      9088      9092      9095
      9084      9088      9092      9096      9086      9084      9088      9090
      9086      9084      9088      9091      9086      9084      9088      9092
      9087      9084      9088      9090      9087      9084      9088      9091
      9087      9084      9088      9092      9088      9092      9096      9098
      9088      9092      9096      9099      9088      9092      9096      9100
      9090      9088      9092      9094      9090      9088      9092      9095
      9090      9088      9092      9096      9091      9088      9092      9094
      9091      9088      9092      9095      9091      9088      9092      9096
      9094      9092      9096      9098      9094      9092      9096      9099
      9094      9092      9096      9100      9095      9092      9096      9098
      9095      9092      9096      9099      9095      9092      9096      9100
      9101      9106      9110      9112      9101      9106      9110      9113
      9101      9106      9110      9122      9103      9101      9106      9108
      9103      9101      9106      9109      9103      9101      9106      9110
      9104      9101      9106      9108      9104      9101      9106      9109
      9104      9101      9106      9110      9105      9101      9106      9108
      9105      9101      9106      9109      9105      9101      9106      9110
      9106      9110      9122      9114      9108      9106      9110      9112
      9108      9106      9110      9113      9108      9106      9110      9122
      9109      9106      9110      9112      9109      9106      9110      9113
      9109      9106      9110      9122      9110      9122      9114      9116
      9110      9122      9114      9118      9110      9122      9114      9120
      9112      9110      9122      9114      9113      9110      9122      9114
      9114      9120      9124      9126      9114      9120      9124      9127
      9114      9120      9124      9128      9116      9114      9120      9124
      9118      9114      9120      9124      9120      9124      9128      9130
      9120      9124      9128      9131      9120      9124      9128      9145
      9122      9114      9120      9124      9124      9128      9131      9133
      9124      9128      9145      9147      9124      9128      9145      9148
      9124      9128      9145      9149      9126      9124      9128      9130
      9126      9124      9128      9131      9126      9124      9128      9145
      9127      9124      9128      9130      9127      9124      9128      9131
      9127      9124      9128      9145      9128      9131      9133      9135
      9128      9131      9133      9137      9128      9145      9149      9151
      9130      9128      9131      9133      9130      9128      9145      9147
      9130      9128      9145      9148      9130      9128      9145      9149
      9131      9128      9145      9147      9131      9128      9145      9148
      9131      9128      9145      9149      9131      9133      9137      9139
      9131      9133      9137      9140      9131      9133      9137      9163
      9133      9131      9128      9145      9133      9137      9163      9165
      9133      9137      9163      9166      9133      9137      9163      9167
      9135      9133      9137      9139      9135      9133      9137      9140
      9135      9133      9137      9163      9137      9163      9167      9169
      9137      9163      9167      9170      9137      9163      9167      9171
      9139      9137      9163      9165      9139      9137      9163      9166
      9139      9137      9163      9167      9140      9137      9163      9165
      9140      9137      9163      9166      9140      9137      9163      9167
      9145      9149      9151      9153      9145      9149      9151      9155
      9147      9145      9149      9151      9148      9145      9149      9151
      9149      9151      9155      9157      9149      9151      9155      9158
      9149      9151      9155      9226      9151      9155      9226      9228
      9151      9155      9226      9229      9151      9155      9226      9230
      9153      9151      9155      9157      9153      9151      9155      9158
      9153      9151      9155      9226      9155      9226      9230      9232
      9155      9226      9230      9233      9155      9226      9230      9234
      9157      9155      9226      9228      9157      9155      9226      9229
      9157      9155      9226      9230      9158      9155      9226      9228
      9158      9155      9226      9229      9158      9155      9226      9230
      9163      9167      9171      9173      9163      9167      9171      9174
      9163      9167      9171      9175      9165      9163      9167      9169
      9165      9163      9167      9170      9165      9163      9167      9171
      9166      9163      9167      9169      9166      9163      9167      9170
      9166      9163      9167      9171      9167      9171      9175      9177
      9167      9171      9175      9178      9167      9171      9175      9179
      9169      9167      9171      9173      9169      9167      9171      9174
      9169      9167      9171      9175      9170      9167      9171      9173
      9170      9167      9171      9174      9170      9167      9171      9175
      9171      9175      9179      9181      9171      9175      9179      9182
      9171      9175      9179      9183      9173      9171      9175      9177
      9173      9171      9175      9178      9173      9171      9175      9179
      9174      9171      9175      9177      9174      9171      9175      9178
      9174      9171      9175      9179      9175      9179      9183      9185
      9175      9179      9183      9186      9175      9179      9183      9187
      9177      9175      9179      9181      9177      9175      9179      9182
      9177      9175      9179      9183      9178      9175      9179      9181
      9178      9175      9179      9182      9178      9175      9179      9183
      9179      9183      9187      9189      9179      9183      9187      9190
      9181      9179      9183      9185      9181      9179      9183      9186
      9181      9179      9183      9187      9182      9179      9183      9185
      9182      9179      9183      9186      9182      9179      9183      9187
      9183      9187      9190      9192      9183      9187      9190      9193
      9185      9183      9187      9189      9185      9183      9187      9190
      9186      9183      9187      9189      9186      9183      9187      9190
      9187      9190      9193      9195      9187      9190      9193      9196
      9187      9190      9193      9197      9189      9187      9190      9192
      9189      9187      9190      9193      9190      9193      9197      9199
      9190      9193      9197      9200      9190      9193      9197      9201
      9192      9190      9193      9195      9192      9190      9193      9196
      9192      9190      9193      9197      9193      9197      9201      9203
      9193      9197      9201      9204      9193      9197      9201      9205
      9195      9193      9197      9199      9195      9193      9197      9200
      9195      9193      9197      9201      9196      9193      9197      9199
      9196      9193      9197      9200      9196      9193      9197      9201
      9197      9201      9205      9207      9197      9201      9205      9208
      9197      9201      9205      9209      9199      9197      9201      9203
      9199      9197      9201      9204      9199      9197      9201      9205
      9200      9197      9201      9203      9200      9197      9201      9204
      9200      9197      9201      9205      9201      9205      9209      9211
      9201      9205      9209      9212      9201      9205      9209      9213
      9203      9201      9205      9207      9203      9201      9205      9208
      9203      9201      9205      9209      9204      9201      9205      9207
      9204      9201      9205      9208      9204      9201      9205      9209
      9205      9209      9213      9215      9205      9209      9213      9216
      9205      9209      9213      9217      9207      9205      9209      9211
      9207      9205      9209      9212      9207      9205      9209      9213
      9208      9205      9209      9211      9208      9205      9209      9212
      9208      9205      9209      9213      9209      9213      9217      9219
      9209      9213      9217      9220      9209      9213      9217      9221
      9211      9209      9213      9215      9211      9209      9213      9216
      9211      9209      9213      9217      9212      9209      9213      9215
      9212      9209      9213      9216      9212      9209      9213      9217
      9213      9217      9221      9223      9213      9217      9221      9224
      9213      9217      9221      9225      9215      9213      9217      9219
      9215      9213      9217      9220      9215      9213      9217      9221
      9216      9213      9217      9219      9216      9213      9217      9220
      9216      9213      9217      9221      9219      9217      9221      9223
      9219      9217      9221      9224      9219      9217      9221      9225
      9220      9217      9221      9223      9220      9217      9221      9224
      9220      9217      9221      9225      9226      9230      9234      9236
      9226      9230      9234      9237      9226      9230      9234      9238
      9228      9226      9230      9232      9228      9226      9230      9233
      9228      9226      9230      9234      9229      9226      9230      9232
      9229      9226      9230      9233      9229      9226      9230      9234
      9230      9234      9238      9240      9230      9234      9238      9241
      9230      9234      9238      9242      9232      9230      9234      9236
      9232      9230      9234      9237      9232      9230      9234      9238
      9233      9230      9234      9236      9233      9230      9234      9237
      9233      9230      9234      9238      9234      9238      9242      9244
      9234      9238      9242      9245      9234      9238      9242      9246
      9236      9234      9238      9240      9236      9234      9238      9241
      9236      9234      9238      9242      9237      9234      9238      9240
      9237      9234      9238      9241      9237      9234      9238      9242
      9238      9242      9246      9248      9238      9242      9246      9249
      9238      9242      9246      9250      9240      9238      9242      9244
      9240      9238      9242      9245      9240      9238      9242      9246
      9241      9238      9242      9244      9241      9238      9242      9245
      9241      9238      9242      9246      9242      9246      9250      9252
      9242      9246      9250      9253      9242      9246      9250      9254
      9244      9242      9246      9248      9244      9242      9246      9249
      9244      9242      9246      9250      9245      9242      9246      9248
      9245      9242      9246      9249      9245      9242      9246      9250
      9246      9250      9254      9256      9246      9250      9254      9257
      9246      9250      9254      9258      9248      9246      9250      9252
      9248      9246      9250      9253      9248      9246      9250      9254
      9249      9246      9250      9252      9249      9246      9250      9253
      9249      9246      9250      9254      9250      9254      9258      9260
      9250      9254      9258      9261      9250      9254      9258      9262
      9252      9250      9254      9256      9252      9250      9254      9257
      9252      9250      9254      9258      9253      9250      9254      9256
      9253      9250      9254      9257      9253      9250      9254      9258
      9254      9258      9262      9264      9254      9258      9262      9265
      9254      9258      9262      9266      9256      9254      9258      9260
      9256      9254      9258      9261      9256      9254      9258      9262
      9257      9254      9258      9260      9257      9254      9258      9261
      9257      9254      9258      9262      9258      9262      9266      9268
      9258      9262      9266      9269      9258      9262      9266      9270
      9260      9258      9262      9264      9260      9258      9262      9265
      9260      9258      9262      9266      9261      9258      9262      9264
      9261      9258      9262      9265      9261      9258      9262      9266
      9262      9266      9270      9272      9262      9266      9270      9273
      9262      9266      9270      9274      9264      9262      9266      9268
      9264      9262      9266      9269      9264      9262      9266      9270
      9265      9262      9266      9268      9265      9262      9266      9269
      9265      9262      9266      9270      9266      9270      9274      9276
      9266      9270      9274      9277      9266      9270      9274      9278
      9268      9266      9270      9272      9268      9266      9270      9273
      9268      9266      9270      9274      9269      9266      9270      9272
      9269      9266      9270      9273      9269      9266      9270      9274
      9270      9274      9278      9280      9270      9274      9278      9281
      9270      9274      9278      9282      9272      9270      9274      9276
      9272      9270      9274      9277      9272      9270      9274      9278
      9273      9270      9274      9276      9273      9270      9274      9277
      9273      9270      9274      9278      9276      9274      9278      9280
      9276      9274      9278      9281      9276      9274      9278      9282
      9277      9274      9278      9280      9277      9274      9278      9281
      9277      9274      9278      9282      9283      9288      9292      9294
      9283      9288      9292      9295      9283      9288      9292      9304
      9285      9283      9288      9290      9285      9283      9288      9291
      9285      9283      9288      9292      9286      9283      9288      9290
      9286      9283      9288      9291      9286      9283      9288      9292
      9287      9283      9288      9290      9287      9283      9288      9291
      9287      9283      9288      9292      9288      9292      9304      9296
      9290      9288      9292      9294      9290      9288      9292      9295
      9290      9288      9292      9304      9291      9288      9292      9294
      9291      9288      9292      9295      9291      9288      9292      9304
      9292      9304      9296      9298      9292      9304      9296      9300
      9292      9304      9296      9302      9294      9292      9304      9296
      9295      9292      9304      9296      9296      9302      9306      9308
      9296      9302      9306      9309      9296      9302      9306      9310
      9298      9296      9302      9306      9300      9296      9302      9306
      9302      9306      9310      9312      9302      9306      9310      9313
      9302      9306      9310      9327      9304      9296      9302      9306
      9306      9310      9313      9315      9306      9310      9327      9329
      9306      9310      9327      9330      9306      9310      9327      9331
      9308      9306      9310      9312      9308      9306      9310      9313
      9308      9306      9310      9327      9309      9306      9310      9312
      9309      9306      9310      9313      9309      9306      9310      9327
      9310      9313      9315      9317      9310      9313      9315      9319
      9310      9327      9331      9333      9312      9310      9313      9315
      9312      9310      9327      9329      9312      9310      9327      9330
      9312      9310      9327      9331      9313      9310      9327      9329
      9313      9310      9327      9330      9313      9310      9327      9331
      9313      9315      9319      9321      9313      9315      9319      9322
      9313      9315      9319      9345      9315      9313      9310      9327
      9315      9319      9345      9347      9315      9319      9345      9348
      9315      9319      9345      9349      9317      9315      9319      9321
      9317      9315      9319      9322      9317      9315      9319      9345
      9319      9345      9349      9351      9319      9345      9349      9352
      9319      9345      9349      9353      9321      9319      9345      9347
      9321      9319      9345      9348      9321      9319      9345      9349
      9322      9319      9345      9347      9322      9319      9345      9348
      9322      9319      9345      9349      9327      9331      9333      9335
      9327      9331      9333      9337      9329      9327      9331      9333
      9330      9327      9331      9333      9331      9333      9337      9339
      9331      9333      9337      9340      9331      9333      9337      9408
      9333      9337      9408      9410      9333      9337      9408      9411
      9333      9337      9408      9412      9335      9333      9337      9339
      9335      9333      9337      9340      9335      9333      9337      9408
      9337      9408      9412      9414      9337      9408      9412      9415
      9337      9408      9412      9416      9339      9337      9408      9410
      9339      9337      9408      9411      9339      9337      9408      9412
      9340      9337      9408      9410      9340      9337      9408      9411
      9340      9337      9408      9412      9345      9349      9353      9355
      9345      9349      9353      9356      9345      9349      9353      9357
      9347      9345      9349      9351      9347      9345      9349      9352
      9347      9345      9349      9353      9348      9345      9349      9351
      9348      9345      9349      9352      9348      9345      9349      9353
      9349      9353      9357      9359      9349      9353      9357      9360
      9349      9353      9357      9361      9351      9349      9353      9355
      9351      9349      9353      9356      9351      9349      9353      9357
      9352      9349      9353      9355      9352      9349      9353      9356
      9352      9349      9353      9357      9353      9357      9361      9363
      9353      9357      9361      9364      9353      9357      9361      9365
      9355      9353      9357      9359      9355      9353      9357      9360
      9355      9353      9357      9361      9356      9353      9357      9359
      9356      9353      9357      9360      9356      9353      9357      9361
      9357      9361      9365      9367      9357      9361      9365      9368
      9357      9361      9365      9369      9359      9357      9361      9363
      9359      9357      9361      9364      9359      9357      9361      9365
      9360      9357      9361      9363      9360      9357      9361      9364
      9360      9357      9361      9365      9361      9365      9369      9371
      9361      9365      9369      9372      9363      9361      9365      9367
      9363      9361      9365      9368      9363      9361      9365      9369
      9364      9361      9365      9367      9364      9361      9365      9368
      9364      9361      9365      9369      9365      9369      9372      9374
      9365      9369      9372      9375      9367      9365      9369      9371
      9367      9365      9369      9372      9368      9365      9369      9371
      9368      9365      9369      9372      9369      9372      9375      9377
      9369      9372      9375      9378      9369      9372      9375      9379
      9371      9369      9372      9374      9371      9369      9372      9375
      9372      9375      9379      9381      9372      9375      9379      9382
      9372      9375      9379      9383      9374      9372      9375      9377
      9374      9372      9375      9378      9374      9372      9375      9379
      9375      9379      9383      9385      9375      9379      9383      9386
      9375      9379      9383      9387      9377      9375      9379      9381
      9377      9375      9379      9382      9377      9375      9379      9383
      9378      9375      9379      9381      9378      9375      9379      9382
      9378      9375      9379      9383      9379      9383      9387      9389
      9379      9383      9387      9390      9379      9383      9387      9391
      9381      9379      9383      9385      9381      9379      9383      9386
      9381      9379      9383      9387      9382      9379      9383      9385
      9382      9379      9383      9386      9382      9379      9383      9387
      9383      9387      9391      9393      9383      9387      9391      9394
      9383      9387      9391      9395      9385      9383      9387      9389
      9385      9383      9387      9390      9385      9383      9387      9391
      9386      9383      9387      9389      9386      9383      9387      9390
      9386      9383      9387      9391      9387      9391      9395      9397
      9387      9391      9395      9398      9387      9391      9395      9399
      9389      9387      9391      9393      9389      9387      9391      9394
      9389      9387      9391      9395      9390      9387      9391      9393
      9390      9387      9391      9394      9390      9387      9391      9395
      9391      9395      9399      9401      9391      9395      9399      9402
      9391      9395      9399      9403      9393      9391      9395      9397
      9393      9391      9395      9398      9393      9391      9395      9399
      9394      9391      9395      9397      9394      9391      9395      9398
      9394      9391      9395      9399      9395      9399      9403      9405
      9395      9399      9403      9406      9395      9399      9403      9407
      9397      9395      9399      9401      9397      9395      9399      9402
      9397      9395      9399      9403      9398      9395      9399      9401
      9398      9395      9399      9402      9398      9395      9399      9403
      9401      9399      9403      9405      9401      9399      9403      9406
      9401      9399      9403      9407      9402      9399      9403      9405
      9402      9399      9403      9406      9402      9399      9403      9407
      9408      9412      9416      9418      9408      9412      9416      9419
      9408      9412      9416      9420      9410      9408      9412      9414
      9410      9408      9412      9415      9410      9408      9412      9416
      9411      9408      9412      9414      9411      9408      9412      9415
      9411      9408      9412      9416      9412      9416      9420      9422
      9412      9416      9420      9423      9412      9416      9420      9424
      9414      9412      9416      9418      9414      9412      9416      9419
      9414      9412      9416      9420      9415      9412      9416      9418
      9415      9412      9416      9419      9415      9412      9416      9420
      9416      9420      9424      9426      9416      9420      9424      9427
      9416      9420      9424      9428      9418      9416      9420      9422
      9418      9416      9420      9423      9418      9416      9420      9424
      9419      9416      9420      9422      9419      9416      9420      9423
      9419      9416      9420      9424      9420      9424      9428      9430
      9420      9424      9428      9431      9420      9424      9428      9432
      9422      9420      9424      9426      9422      9420      9424      9427
      9422      9420      9424      9428      9423      9420      9424      9426
      9423      9420      9424      9427      9423      9420      9424      9428
      9424      9428      9432      9434      9424      9428      9432      9435
      9424      9428      9432      9436      9426      9424      9428      9430
      9426      9424      9428      9431      9426      9424      9428      9432
      9427      9424      9428      9430      9427      9424      9428      9431
      9427      9424      9428      9432      9428      9432      9436      9438
      9428      9432      9436      9439      9428      9432      9436      9440
      9430      9428      9432      9434      9430      9428      9432      9435
      9430      9428      9432      9436      9431      9428      9432      9434
      9431      9428      9432      9435      9431      9428      9432      9436
      9432      9436      9440      9442      9432      9436      9440      9443
      9432      9436      9440      9444      9434      9432      9436      9438
      9434      9432      9436      9439      9434      9432      9436      9440
      9435      9432      9436      9438      9435      9432      9436      9439
      9435      9432      9436      9440      9436      9440      9444      9446
      9436      9440      9444      9447      9436      9440      9444      9448
      9438      9436      9440      9442      9438      9436      9440      9443
      9438      9436      9440      9444      9439      9436      9440      9442
      9439      9436      9440      9443      9439      9436      9440      9444
      9440      9444      9448      9450      9440      9444      9448      9451
      9440      9444      9448      9452      9442      9440      9444      9446
      9442      9440      9444      9447      9442      9440      9444      9448
      9443      9440      9444      9446      9443      9440      9444      9447
      9443      9440      9444      9448      9444      9448      9452      9454
      9444      9448      9452      9455      9444      9448      9452      9456
      9446      9444      9448      9450      9446      9444      9448      9451
      9446      9444      9448      9452      9447      9444      9448      9450
      9447      9444      9448      9451      9447      9444      9448      9452
      9448      9452      9456      9458      9448      9452      9456      9459
      9448      9452      9456      9460      9450      9448      9452      9454
      9450      9448      9452      9455      9450      9448      9452      9456
      9451      9448      9452      9454      9451      9448      9452      9455
      9451      9448      9452      9456      9452      9456      9460      9462
      9452      9456      9460      9463      9452      9456      9460      9464
      9454      9452      9456      9458      9454      9452      9456      9459
      9454      9452      9456      9460      9455      9452      9456      9458
      9455      9452      9456      9459      9455      9452      9456      9460
      9458      9456      9460      9462      9458      9456      9460      9463
      9458      9456      9460      9464      9459      9456      9460      9462
      9459      9456      9460      9463      9459      9456      9460      9464
      9465      9470      9474      9476      9465      9470      9474      9477
      9465      9470      9474      9486      9467      9465      9470      9472
      9467      9465      9470      9473      9467      9465      9470      9474
      9468      9465      9470      9472      9468      9465      9470      9473
      9468      9465      9470      9474      9469      9465      9470      9472
      9469      9465      9470      9473      9469      9465      9470      9474
      9470      9474      9486      9478      9472      9470      9474      9476
      9472      9470      9474      9477      9472      9470      9474      9486
      9473      9470      9474      9476      9473      9470      9474      9477
      9473      9470      9474      9486      9474      9486      9478      9480
      9474      9486      9478      9482      9474      9486      9478      9484
      9476      9474      9486      9478      9477      9474      9486      9478
      9478      9484      9488      9490      9478      9484      9488      9491
      9478      9484      9488      9492      9480      9478      9484      9488
      9482      9478      9484      9488      9484      9488      9492      9494
      9484      9488      9492      9495      9484      9488      9492      9509
      9486      9478      9484      9488      9488      9492      9495      9497
      9488      9492      9509      9511      9488      9492      9509      9512
      9488      9492      9509      9513      9490      9488      9492      9494
      9490      9488      9492      9495      9490      9488      9492      9509
      9491      9488      9492      9494      9491      9488      9492      9495
      9491      9488      9492      9509      9492      9495      9497      9499
      9492      9495      9497      9501      9492      9509      9513      9515
      9494      9492      9495      9497      9494      9492      9509      9511
      9494      9492      9509      9512      9494      9492      9509      9513
      9495      9492      9509      9511      9495      9492      9509      9512
      9495      9492      9509      9513      9495      9497      9501      9503
      9495      9497      9501      9504      9495      9497      9501      9527
      9497      9495      9492      9509      9497      9501      9527      9529
      9497      9501      9527      9530      9497      9501      9527      9531
      9499      9497      9501      9503      9499      9497      9501      9504
      9499      9497      9501      9527      9501      9527      9531      9533
      9501      9527      9531      9534      9501      9527      9531      9535
      9503      9501      9527      9529      9503      9501      9527      9530
      9503      9501      9527      9531      9504      9501      9527      9529
      9504      9501      9527      9530      9504      9501      9527      9531
      9509      9513      9515      9517      9509      9513      9515      9519
      9511      9509      9513      9515      9512      9509      9513      9515
      9513      9515      9519      9521      9513      9515      9519      9522
      9513      9515      9519      9590      9515      9519      9590      9592
      9515      9519      9590      9593      9515      9519      9590      9594
      9517      9515      9519      9521      9517      9515      9519      9522
      9517      9515      9519      9590      9519      9590      9594      9596
      9519      9590      9594      9597      9519      9590      9594      9598
      9521      9519      9590      9592      9521      9519      9590      9593
      9521      9519      9590      9594      9522      9519      9590      9592
      9522      9519      9590      9593      9522      9519      9590      9594
      9527      9531      9535      9537      9527      9531      9535      9538
      9527      9531      9535      9539      9529      9527      9531      9533
      9529      9527      9531      9534      9529      9527      9531      9535
      9530      9527      9531      9533      9530      9527      9531      9534
      9530      9527      9531      9535      9531      9535      9539      9541
      9531      9535      9539      9542      9531      9535      9539      9543
      9533      9531      9535      9537      9533      9531      9535      9538
      9533      9531      9535      9539      9534      9531      9535      9537
      9534      9531      9535      9538      9534      9531      9535      9539
      9535      9539      9543      9545      9535      9539      9543      9546
      9535      9539      9543      9547      9537      9535      9539      9541
      9537      9535      9539      9542      9537      9535      9539      9543
      9538      9535      9539      9541      9538      9535      9539      9542
      9538      9535      9539      9543      9539      9543      9547      9549
      9539      9543      9547      9550      9539      9543      9547      9551
      9541      9539      9543      9545      9541      9539      9543      9546
      9541      9539      9543      9547      9542      9539      9543      9545
      9542      9539      9543      9546      9542      9539      9543      9547
      9543      9547      9551      9553      9543      9547      9551      9554
      9545      9543      9547      9549      9545      9543      9547      9550
      9545      9543      9547      9551      9546      9543      9547      9549
      9546      9543      9547      9550      9546      9543      9547      9551
      9547      9551      9554      9556      9547      9551      9554      9557
      9549      9547      9551      9553      9549      9547      9551      9554
      9550      9547      9551      9553      9550      9547      9551      9554
      9551      9554      9557      9559      9551      9554      9557      9560
      9551      9554      9557      9561      9553      9551      9554      9556
      9553      9551      9554      9557      9554      9557      9561      9563
      9554      9557      9561      9564      9554      9557      9561      9565
      9556      9554      9557      9559      9556      9554      9557      9560
      9556      9554      9557      9561      9557      9561      9565      9567
      9557      9561      9565      9568      9557      9561      9565      9569
      9559      9557      9561      9563      9559      9557      9561      9564
      9559      9557      9561      9565      9560      9557      9561      9563
      9560      9557      9561      9564      9560      9557      9561      9565
      9561      9565      9569      9571      9561      9565      9569      9572
      9561      9565      9569      9573      9563      9561      9565      9567
      9563      9561      9565      9568      9563      9561      9565      9569
      9564      9561      9565      9567      9564      9561      9565      9568
      9564      9561      9565      9569      9565      9569      9573      9575
      9565      9569      9573      9576      9565      9569      9573      9577
      9567      9565      9569      9571      9567      9565      9569      9572
      9567      9565      9569      9573      9568      9565      9569      9571
      9568      9565      9569      9572      9568      9565      9569      9573
      9569      9573      9577      9579      9569      9573      9577      9580
      9569      9573      9577      9581      9571      9569      9573      9575
      9571      9569      9573      9576      9571      9569      9573      9577
      9572      9569      9573      9575      9572      9569      9573      9576
      9572      9569      9573      9577      9573      9577      9581      9583
      9573      9577      9581      9584      9573      9577      9581      9585
      9575      9573      9577      9579      9575      9573      9577      9580
      9575      9573      9577      9581      9576      9573      9577      9579
      9576      9573      9577      9580      9576      9573      9577      9581
      9577      9581      9585      9587      9577      9581      9585      9588
      9577      9581      9585      9589      9579      9577      9581      9583
      9579      9577      9581      9584      9579      9577      9581      9585
      9580      9577      9581      9583      9580      9577      9581      9584
      9580      9577      9581      9585      9583      9581      9585      9587
      9583      9581      9585      9588      9583      9581      9585      9589
      9584      9581      9585      9587      9584      9581      9585      9588
      9584      9581      9585      9589      9590      9594      9598      9600
      9590      9594      9598      9601      9590      9594      9598      9602
      9592      9590      9594      9596      9592      9590      9594      9597
      9592      9590      9594      9598      9593      9590      9594      9596
      9593      9590      9594      9597      9593      9590      9594      9598
      9594      9598      9602      9604      9594      9598      9602      9605
      9594      9598      9602      9606      9596      9594      9598      9600
      9596      9594      9598      9601      9596      9594      9598      9602
      9597      9594      9598      9600      9597      9594      9598      9601
      9597      9594      9598      9602      9598      9602      9606      9608
      9598      9602      9606      9609      9598      9602      9606      9610
      9600      9598      9602      9604      9600      9598      9602      9605
      9600      9598      9602      9606      9601      9598      9602      9604
      9601      9598      9602      9605      9601      9598      9602      9606
      9602      9606      9610      9612      9602      9606      9610      9613
      9602      9606      9610      9614      9604      9602      9606      9608
      9604      9602      9606      9609      9604      9602      9606      9610
      9605      9602      9606      9608      9605      9602      9606      9609
      9605      9602      9606      9610      9606      9610      9614      9616
      9606      9610      9614      9617      9606      9610      9614      9618
      9608      9606      9610      9612      9608      9606      9610      9613
      9608      9606      9610      9614      9609      9606      9610      9612
      9609      9606      9610      9613      9609      9606      9610      9614
      9610      9614      9618      9620      9610      9614      9618      9621
      9610      9614      9618      9622      9612      9610      9614      9616
      9612      9610      9614      9617      9612      9610      9614      9618
      9613      9610      9614      9616      9613      9610      9614      9617
      9613      9610      9614      9618      9614      9618      9622      9624
      9614      9618      9622      9625      9614      9618      9622      9626
      9616      9614      9618      9620      9616      9614      9618      9621
      9616      9614      9618      9622      9617      9614      9618      9620
      9617      9614      9618      9621      9617      9614      9618      9622
      9618      9622      9626      9628      9618      9622      9626      9629
      9618      9622      9626      9630      9620      9618      9622      9624
      9620      9618      9622      9625      9620      9618      9622      9626
      9621      9618      9622      9624      9621      9618      9622      9625
      9621      9618      9622      9626      9622      9626      9630      9632
      9622      9626      9630      9633      9622      9626      9630      9634
      9624      9622      9626      9628      9624      9622      9626      9629
      9624      9622      9626      9630      9625      9622      9626      9628
      9625      9622      9626      9629      9625      9622      9626      9630
      9626      9630      9634      9636      9626      9630      9634      9637
      9626      9630      9634      9638      9628      9626      9630      9632
      9628      9626      9630      9633      9628      9626      9630      9634
      9629      9626      9630      9632      9629      9626      9630      9633
      9629      9626      9630      9634      9630      9634      9638      9640
      9630      9634      9638      9641      9630      9634      9638      9642
      9632      9630      9634      9636      9632      9630      9634      9637
      9632      9630      9634      9638      9633      9630      9634      9636
      9633      9630      9634      9637      9633      9630      9634      9638
      9634      9638      9642      9644      9634      9638      9642      9645
      9634      9638      9642      9646      9636      9634      9638      9640
      9636      9634      9638      9641      9636      9634      9638      9642
      9637      9634      9638      9640      9637      9634      9638      9641
      9637      9634      9638      9642      9640      9638      9642      9644
      9640      9638      9642      9645      9640      9638      9642      9646
      9641      9638      9642      9644      9641      9638      9642      9645
      9641      9638      9642      9646      9647      9652      9656      9658
      9647      9652      9656      9659      9647      9652      9656      9668
      9649      9647      9652      9654      9649      9647      9652      9655
      9649      9647      9652      9656      9650      9647      9652      9654
      9650      9647      9652      9655      9650      9647      9652      9656
      9651      9647      9652      9654      9651      9647      9652      9655
      9651      9647      9652      9656      9652      9656      9668      9660
      9654      9652      9656      9658      9654      9652      9656      9659
      9654      9652      9656      9668      9655      9652      9656      9658
      9655      9652      9656      9659      9655      9652      9656      9668
      9656      9668      9660      9662      9656      9668      9660      9664
      9656      9668      9660      9666      9658      9656      9668      9660
      9659      9656      9668      9660      9660      9666      9670      9672
      9660      9666      9670      9673      9660      9666      9670      9674
      9662      9660      9666      9670      9664      9660      9666      9670
      9666      9670      9674      9676      9666      9670      9674      9677
      9666      9670      9674      9691      9668      9660      9666      9670
      9670      9674      9677      9679      9670      9674      9691      9693
      9670      9674      9691      9694      9670      9674      9691      9695
      9672      9670      9674      9676      9672      9670      9674      9677
      9672      9670      9674      9691      9673      9670      9674      9676
      9673      9670      9674      9677      9673      9670      9674      9691
      9674      9677      9679      9681      9674      9677      9679      9683
      9674      9691      9695      9697      9676      9674      9677      9679
      9676      9674      9691      9693      9676      9674      9691      9694
      9676      9674      9691      9695      9677      9674      9691      9693
      9677      9674      9691      9694      9677      9674      9691      9695
      9677      9679      9683      9685      9677      9679      9683      9686
      9677      9679      9683      9709      9679      9677      9674      9691
      9679      9683      9709      9711      9679      9683      9709      9712
      9679      9683      9709      9713      9681      9679      9683      9685
      9681      9679      9683      9686      9681      9679      9683      9709
      9683      9709      9713      9715      9683      9709      9713      9716
      9683      9709      9713      9717      9685      9683      9709      9711
      9685      9683      9709      9712      9685      9683      9709      9713
      9686      9683      9709      9711      9686      9683      9709      9712
      9686      9683      9709      9713      9691      9695      9697      9699
      9691      9695      9697      9701      9693      9691      9695      9697
      9694      9691      9695      9697      9695      9697      9701      9703
      9695      9697      9701      9704      9695      9697      9701      9772
      9697      9701      9772      9774      9697      9701      9772      9775
      9697      9701      9772      9776      9699      9697      9701      9703
      9699      9697      9701      9704      9699      9697      9701      9772
      9701      9772      9776      9778      9701      9772      9776      9779
      9701      9772      9776      9780      9703      9701      9772      9774
      9703      9701      9772      9775      9703      9701      9772      9776
      9704      9701      9772      9774      9704      9701      9772      9775
      9704      9701      9772      9776      9709      9713      9717      9719
      9709      9713      9717      9720      9709      9713      9717      9721
      9711      9709      9713      9715      9711      9709      9713      9716
      9711      9709      9713      9717      9712      9709      9713      9715
      9712      9709      9713      9716      9712      9709      9713      9717
      9713      9717      9721      9723      9713      9717      9721      9724
      9713      9717      9721      9725      9715      9713      9717      9719
      9715      9713      9717      9720      9715      9713      9717      9721
      9716      9713      9717      9719      9716      9713      9717      9720
      9716      9713      9717      9721      9717      9721      9725      9727
      9717      9721      9725      9728      9717      9721      9725      9729
      9719      9717      9721      9723      9719      9717      9721      9724
      9719      9717      9721      9725      9720      9717      9721      9723
      9720      9717      9721      9724      9720      9717      9721      9725
      9721      9725      9729      9731      9721      9725      9729      9732
      9721      9725      9729      9733      9723      9721      9725      9727
      9723      9721      9725      9728      9723      9721      9725      9729
      9724      9721      9725      9727      9724      9721      9725      9728
      9724      9721      9725      9729      9725      9729      9733      9735
      9725      9729      9733      9736      9727      9725      9729      9731
      9727      9725      9729      9732      9727      9725      9729      9733
      9728      9725      9729      9731      9728      9725      9729      9732
      9728      9725      9729      9733      9729      9733      9736      9738
      9729      9733      9736      9739      9731      9729      9733      9735
      9731      9729      9733      9736      9732      9729      9733      9735
      9732      9729      9733      9736      9733      9736      9739      9741
      9733      9736      9739      9742      9733      9736      9739      9743
      9735      9733      9736      9738      9735      9733      9736      9739
      9736      9739      9743      9745      9736      9739      9743      9746
      9736      9739      9743      9747      9738      9736      9739      9741
      9738      9736      9739      9742      9738      9736      9739      9743
      9739      9743      9747      9749      9739      9743      9747      9750
      9739      9743      9747      9751      9741      9739      9743      9745
      9741      9739      9743      9746      9741      9739      9743      9747
      9742      9739      9743      9745      9742      9739      9743      9746
      9742      9739      9743      9747      9743      9747      9751      9753
      9743      9747      9751      9754      9743      9747      9751      9755
      9745      9743      9747      9749      9745      9743      9747      9750
      9745      9743      9747      9751      9746      9743      9747      9749
      9746      9743      9747      9750      9746      9743      9747      9751
      9747      9751      9755      9757      9747      9751      9755      9758
      9747      9751      9755      9759      9749      9747      9751      9753
      9749      9747      9751      9754      9749      9747      9751      9755
      9750      9747      9751      9753      9750      9747      9751      9754
      9750      9747      9751      9755      9751      9755      9759      9761
      9751      9755      9759      9762      9751      9755      9759      9763
      9753      9751      9755      9757      9753      9751      9755      9758
      9753      9751      9755      9759      9754      9751      9755      9757
      9754      9751      9755      9758      9754      9751      9755      9759
      9755      9759      9763      9765      9755      9759      9763      9766
      9755      9759      9763      9767      9757      9755      9759      9761
      9757      9755      9759      9762      9757      9755      9759      9763
      9758      9755      9759      9761      9758      9755      9759      9762
      9758      9755      9759      9763      9759      9763      9767      9769
      9759      9763      9767      9770      9759      9763      9767      9771
      9761      9759      9763      9765      9761      9759      9763      9766
      9761      9759      9763      9767      9762      9759      9763      9765
      9762      9759      9763      9766      9762      9759      9763      9767
      9765      9763      9767      9769      9765      9763      9767      9770
      9765      9763      9767      9771      9766      9763      9767      9769
      9766      9763      9767      9770      9766      9763      9767      9771
      9772      9776      9780      9782      9772      9776      9780      9783
      9772      9776      9780      9784      9774      9772      9776      9778
      9774      9772      9776      9779      9774      9772      9776      9780
      9775      9772      9776      9778      9775      9772      9776      9779
      9775      9772      9776      9780      9776      9780      9784      9786
      9776      9780      9784      9787      9776      9780      9784      9788
      9778      9776      9780      9782      9778      9776      9780      9783
      9778      9776      9780      9784      9779      9776      9780      9782
      9779      9776      9780      9783      9779      9776      9780      9784
      9780      9784      9788      9790      9780      9784      9788      9791
      9780      9784      9788      9792      9782      9780      9784      9786
      9782      9780      9784      9787      9782      9780      9784      9788
      9783      9780      9784      9786      9783      9780      9784      9787
      9783      9780      9784      9788      9784      9788      9792      9794
      9784      9788      9792      9795      9784      9788      9792      9796
      9786      9784      9788      9790      9786      9784      9788      9791
      9786      9784      9788      9792      9787      9784      9788      9790
      9787      9784      9788      9791      9787      9784      9788      9792
      9788      9792      9796      9798      9788      9792      9796      9799
      9788      9792      9796      9800      9790      9788      9792      9794
      9790      9788      9792      9795      9790      9788      9792      9796
      9791      9788      9792      9794      9791      9788      9792      9795
      9791      9788      9792      9796      9792      9796      9800      9802
      9792      9796      9800      9803      9792      9796      9800      9804
      9794      9792      9796      9798      9794      9792      9796      9799
      9794      9792      9796      9800      9795      9792      9796      9798
      9795      9792      9796      9799      9795      9792      9796      9800
      9796      9800      9804      9806      9796      9800      9804      9807
      9796      9800      9804      9808      9798      9796      9800      9802
      9798      9796      9800      9803      9798      9796      9800      9804
      9799      9796      9800      9802      9799      9796      9800      9803
      9799      9796      9800      9804      9800      9804      9808      9810
      9800      9804      9808      9811      9800      9804      9808      9812
      9802      9800      9804      9806      9802      9800      9804      9807
      9802      9800      9804      9808      9803      9800      9804      9806
      9803      9800      9804      9807      9803      9800      9804      9808
      9804      9808      9812      9814      9804      9808      9812      9815
      9804      9808      9812      9816      9806      9804      9808      9810
      9806      9804      9808      9811      9806      9804      9808      9812
      9807      9804      9808      9810      9807      9804      9808      9811
      9807      9804      9808      9812      9808      9812      9816      9818
      9808      9812      9816      9819      9808      9812      9816      9820
      9810      9808      9812      9814      9810      9808      9812      9815
      9810      9808      9812      9816      9811      9808      9812      9814
      9811      9808      9812      9815      9811      9808      9812      9816
      9812      9816      9820      9822      9812      9816      9820      9823
      9812      9816      9820      9824      9814      9812      9816      9818
      9814      9812      9816      9819      9814      9812      9816      9820
      9815      9812      9816      9818      9815      9812      9816      9819
      9815      9812      9816      9820      9816      9820      9824      9826
      9816      9820      9824      9827      9816      9820      9824      9828
      9818      9816      9820      9822      9818      9816      9820      9823
      9818      9816      9820      9824      9819      9816      9820      9822
      9819      9816      9820      9823      9819      9816      9820      9824
      9822      9820      9824      9826      9822      9820      9824      9827
      9822      9820      9824      9828      9823      9820      9824      9826
      9823      9820      9824      9827      9823      9820      9824      9828
      9829      9834      9838      9840      9829      9834      9838      9841
      9829      9834      9838      9850      9831      9829      9834      9836
      9831      9829      9834      9837      9831      9829      9834      9838
      9832      9829      9834      9836      9832      9829      9834      9837
      9832      9829      9834      9838      9833      9829      9834      9836
      9833      9829      9834      9837      9833      9829      9834      9838
      9834      9838      9850      9842      9836      9834      9838      9840
      9836      9834      9838      9841      9836      9834      9838      9850
      9837      9834      9838      9840      9837      9834      9838      9841
      9837      9834      9838      9850      9838      9850      9842      9844
      9838      9850      9842      9846      9838      9850      9842      9848
      9840      9838      9850      9842      9841      9838      9850      9842
      9842      9848      9852      9854      9842      9848      9852      9855
      9842      9848      9852      9856      9844      9842      9848      9852
      9846      9842      9848      9852      9848      9852      9856      9858
      9848      9852      9856      9859      9848      9852      9856      9873
      9850      9842      9848      9852      9852      9856      9859      9861
      9852      9856      9873      9875      9852      9856      9873      9876
      9852      9856      9873      9877      9854      9852      9856      9858
      9854      9852      9856      9859      9854      9852      9856      9873
      9855      9852      9856      9858      9855      9852      9856      9859
      9855      9852      9856      9873      9856      9859      9861      9863
      9856      9859      9861      9865      9856      9873      9877      9879
      9858      9856      9859      9861      9858      9856      9873      9875
      9858      9856      9873      9876      9858      9856      9873      9877
      9859      9856      9873      9875      9859      9856      9873      9876
      9859      9856      9873      9877      9859      9861      9865      9867
      9859      9861      9865      9868      9859      9861      9865      9891
      9861      9859      9856      9873      9861      9865      9891      9893
      9861      9865      9891      9894      9861      9865      9891      9895
      9863      9861      9865      9867      9863      9861      9865      9868
      9863      9861      9865      9891      9865      9891      9895      9897
      9865      9891      9895      9898      9865      9891      9895      9899
      9867      9865      9891      9893      9867      9865      9891      9894
      9867      9865      9891      9895      9868      9865      9891      9893
      9868      9865      9891      9894      9868      9865      9891      9895
      9873      9877      9879      9881      9873      9877      9879      9883
      9875      9873      9877      9879      9876      9873      9877      9879
      9877      9879      9883      9885      9877      9879      9883      9886
      9877      9879      9883      9954      9879      9883      9954      9956
      9879      9883      9954      9957      9879      9883      9954      9958
      9881      9879      9883      9885      9881      9879      9883      9886
      9881      9879      9883      9954      9883      9954      9958      9960
      9883      9954      9958      9961      9883      9954      9958      9962
      9885      9883      9954      9956      9885      9883      9954      9957
      9885      9883      9954      9958      9886      9883      9954      9956
      9886      9883      9954      9957      9886      9883      9954      9958
      9891      9895      9899      9901      9891      9895      9899      9902
      9891      9895      9899      9903      9893      9891      9895      9897
      9893      9891      9895      9898      9893      9891      9895      9899
      9894      9891      9895      9897      9894      9891      9895      9898
      9894      9891      9895      9899      9895      9899      9903      9905
      9895      9899      9903      9906      9895      9899      9903      9907
      9897      9895      9899      9901      9897      9895      9899      9902
      9897      9895      9899      9903      9898      9895      9899      9901
      9898      9895      9899      9902      9898      9895      9899      9903
      9899      9903      9907      9909      9899      9903      9907      9910
      9899      9903      9907      9911      9901      9899      9903      9905
      9901      9899      9903      9906      9901      9899      9903      9907
      9902      9899      9903      9905      9902      9899      9903      9906
      9902      9899      9903      9907      9903      9907      9911      9913
      9903      9907      9911      9914      9903      9907      9911      9915
      9905      9903      9907      9909      9905      9903      9907      9910
      9905      9903      9907      9911      9906      9903      9907      9909
      9906      9903      9907      9910      9906      9903      9907      9911
      9907      9911      9915      9917      9907      9911      9915      9918
      9909      9907      9911      9913      9909      9907      9911      9914
      9909      9907      9911      9915      9910      9907      9911      9913
      9910      9907      9911      9914      9910      9907      9911      9915
      9911      9915      9918      9920      9911      9915      9918      9921
      9913      9911      9915      9917      9913      9911      9915      9918
      9914      9911      9915      9917      9914      9911      9915      9918
      9915      9918      9921      9923      9915      9918      9921      9924
      9915      9918      9921      9925      9917      9915      9918      9920
      9917      9915      9918      9921      9918      9921      9925      9927
      9918      9921      9925      9928      9918      9921      9925      9929
      9920      9918      9921      9923      9920      9918      9921      9924
      9920      9918      9921      9925      9921      9925      9929      9931
      9921      9925      9929      9932      9921      9925      9929      9933
      9923      9921      9925      9927      9923      9921      9925      9928
      9923      9921      9925      9929      9924      9921      9925      9927
      9924      9921      9925      9928      9924      9921      9925      9929
      9925      9929      9933      9935      9925      9929      9933      9936
      9925      9929      9933      9937      9927      9925      9929      9931
      9927      9925      9929      9932      9927      9925      9929      9933
      9928      9925      9929      9931      9928      9925      9929      9932
      9928      9925      9929      9933      9929      9933      9937      9939
      9929      9933      9937      9940      9929      9933      9937      9941
      9931      9929      9933      9935      9931      9929      9933      9936
      9931      9929      9933      9937      9932      9929      9933      9935
      9932      9929      9933      9936      9932      9929      9933      9937
      9933      9937      9941      9943      9933      9937      9941      9944
      9933      9937      9941      9945      9935      9933      9937      9939
      9935      9933      9937      9940      9935      9933      9937      9941
      9936      9933      9937      9939      9936      9933      9937      9940
      9936      9933      9937      9941      9937      9941      9945      9947
      9937      9941      9945      9948      9937      9941      9945      9949
      9939      9937      9941      9943      9939      9937      9941      9944
      9939      9937      9941      9945      9940      9937      9941      9943
      9940      9937      9941      9944      9940      9937      9941      9945
      9941      9945      9949      9951      9941      9945      9949      9952
      9941      9945      9949      9953      9943      9941      9945      9947
      9943      9941      9945      9948      9943      9941      9945      9949
      9944      9941      9945      9947      9944      9941      9945      9948
      9944      9941      9945      9949      9947      9945      9949      9951
      9947      9945      9949      9952      9947      9945      9949      9953
      9948      9945      9949      9951      9948      9945      9949      9952
      9948      9945      9949      9953      9954      9958      9962      9964
      9954      9958      9962      9965      9954      9958      9962      9966
      9956      9954      9958      9960      9956      9954      9958      9961
      9956      9954      9958      9962      9957      9954      9958      9960
      9957      9954      9958      9961      9957      9954      9958      9962
      9958      9962      9966      9968      9958      9962      9966      9969
      9958      9962      9966      9970      9960      9958      9962      9964
      9960      9958      9962      9965      9960      9958      9962      9966
      9961      9958      9962      9964      9961      9958      9962      9965
      9961      9958      9962      9966      9962      9966      9970      9972
      9962      9966      9970      9973      9962      9966      9970      9974
      9964      9962      9966      9968      9964      9962      9966      9969
      9964      9962      9966      9970      9965      9962      9966      9968
      9965      9962      9966      9969      9965      9962      9966      9970
      9966      9970      9974      9976      9966      9970      9974      9977
      9966      9970      9974      9978      9968      9966      9970      9972
      9968      9966      9970      9973      9968      9966      9970      9974
      9969      9966      9970      9972      9969      9966      9970      9973
      9969      9966      9970      9974      9970      9974      9978      9980
      9970      9974      9978      9981      9970      9974      9978      9982
      9972      9970      9974      9976      9972      9970      9974      9977
      9972      9970      9974      9978      9973      9970      9974      9976
      9973      9970      9974      9977      9973      9970      9974      9978
      9974      9978      9982      9984      9974      9978      9982      9985
      9974      9978      9982      9986      9976      9974      9978      9980
      9976      9974      9978      9981      9976      9974      9978      9982
      9977      9974      9978      9980      9977      9974      9978      9981
      9977      9974      9978      9982      9978      9982      9986      9988
      9978      9982      9986      9989      9978      9982      9986      9990
      9980      9978      9982      9984      9980      9978      9982      9985
      9980      9978      9982      9986      9981      9978      9982      9984
      9981      9978      9982      9985      9981      9978      9982      9986
      9982      9986      9990      9992      9982      9986      9990      9993
      9982      9986      9990      9994      9984      9982      9986      9988
      9984      9982      9986      9989      9984      9982      9986      9990
      9985      9982      9986      9988      9985      9982      9986      9989
      9985      9982      9986      9990      9986      9990      9994      9996
      9986      9990      9994      9997      9986      9990      9994      9998
      9988      9986      9990      9992      9988      9986      9990      9993
      9988      9986      9990      9994      9989      9986      9990      9992
      9989      9986      9990      9993      9989      9986      9990      9994
      9990      9994      9998     10000      9990      9994      9998     10001
      9990      9994      9998     10002      9992      9990      9994      9996
      9992      9990      9994      9997      9992      9990      9994      9998
      9993      9990      9994      9996      9993      9990      9994      9997
      9993      9990      9994      9998      9994      9998     10002     10004
      9994      9998     10002     10005      9994      9998     10002     10006
      9996      9994      9998     10000      9996      9994      9998     10001
      9996      9994      9998     10002      9997      9994      9998     10000
      9997      9994      9998     10001      9997      9994      9998     10002
      9998     10002     10006     10008      9998     10002     10006     10009
      9998     10002     10006     10010     10000      9998     10002     10004
     10000      9998     10002     10005     10000      9998     10002     10006
     10001      9998     10002     10004     10001      9998     10002     10005
     10001      9998     10002     10006     10004     10002     10006     10008
     10004     10002     10006     10009     10004     10002     10006     10010
     10005     10002     10006     10008     10005     10002     10006     10009
     10005     10002     10006     10010     10011     10016     10020     10022
     10011     10016     10020     10023     10011     10016     10020     10032
     10013     10011     10016     10018     10013     10011     10016     10019
     10013     10011     10016     10020     10014     10011     10016     10018
     10014     10011     10016     10019     10014     10011     10016     10020
     10015     10011     10016     10018     10015     10011     10016     10019
     10015     10011     10016     10020     10016     10020     10032     10024
     10018     10016     10020     10022     10018     10016     10020     10023
     10018     10016     10020     10032     10019     10016     10020     10022
     10019     10016     10020     10023     10019     10016     10020     10032
     10020     10032     10024     10026     10020     10032     10024     10028
     10020     10032     10024     10030     10022     10020     10032     10024
     10023     10020     10032     10024     10024     10030     10034     10036
     10024     10030     10034     10037     10024     10030     10034     10038
     10026     10024     10030     10034     10028     10024     10030     10034
     10030     10034     10038     10040     10030     10034     10038     10041
     10030     10034     10038     10055     10032     10024     10030     10034
     10034     10038     10041     10043     10034     10038     10055     10057
     10034     10038     10055     10058     10034     10038     10055     10059
     10036     10034     10038     10040     10036     10034     10038     10041
     10036     10034     10038     10055     10037     10034     10038     10040
     10037     10034     10038     10041     10037     10034     10038     10055
     10038     10041     10043     10045     10038     10041     10043     10047
     10038     10055     10059     10061     10040     10038     10041     10043
     10040     10038     10055     10057     10040     10038     10055     10058
     10040     10038     10055     10059     10041     10038     10055     10057
     10041     10038     10055     10058     10041     10038     10055     10059
     10041     10043     10047     10049     10041     10043     10047     10050
     10041     10043     10047     10073     10043     10041     10038     10055
     10043     10047     10073     10075     10043     10047     10073     10076
     10043     10047     10073     10077     10045     10043     10047     10049
     10045     10043     10047     10050     10045     10043     10047     10073
     10047     10073     10077     10079     10047     10073     10077     10080
     10047     10073     10077     10081     10049     10047     10073     10075
     10049     10047     10073     10076     10049     10047     10073     10077
     10050     10047     10073     10075     10050     10047     10073     10076
     10050     10047     10073     10077     10055     10059     10061     10063
     10055     10059     10061     10065     10057     10055     10059     10061
     10058     10055     10059     10061     10059     10061     10065     10067
     10059     10061     10065     10068     10059     10061     10065     10136
     10061     10065     10136     10138     10061     10065     10136     10139
     10061     10065     10136     10140     10063     10061     10065     10067
     10063     10061     10065     10068     10063     10061     10065     10136
     10065     10136     10140     10142     10065     10136     10140     10143
     10065     10136     10140     10144     10067     10065     10136     10138
     10067     10065     10136     10139     10067     10065     10136     10140
     10068     10065     10136     10138     10068     10065     10136     10139
     10068     10065     10136     10140     10073     10077     10081     10083
     10073     10077     10081     10084     10073     10077     10081     10085
     10075     10073     10077     10079     10075     10073     10077     10080
     10075     10073     10077     10081     10076     10073     10077     10079
     10076     10073     10077     10080     10076     10073     10077     10081
     10077     10081     10085     10087     10077     10081     10085     10088
     10077     10081     10085     10089     10079     10077     10081     10083
     10079     10077     10081     10084     10079     10077     10081     10085
     10080     10077     10081     10083     10080     10077     10081     10084
     10080     10077     10081     10085     10081     10085     10089     10091
     10081     10085     10089     10092     10081     10085     10089     10093
     10083     10081     10085     10087     10083     10081     10085     10088
     10083     10081     10085     10089     10084     10081     10085     10087
     10084     10081     10085     10088     10084     10081     10085     10089
     10085     10089     10093     10095     10085     10089     10093     10096
     10085     10089     10093     10097     10087     10085     10089     10091
     10087     10085     10089     10092     10087     10085     10089     10093
     10088     10085     10089     10091     10088     10085     10089     10092
     10088     10085     10089     10093     10089     10093     10097     10099
     10089     10093     10097     10100     10091     10089     10093     10095
     10091     10089     10093     10096     10091     10089     10093     10097
     10092     10089     10093     10095     10092     10089     10093     10096
     10092     10089     10093     10097     10093     10097     10100     10102
     10093     10097     10100     10103     10095     10093     10097     10099
     10095     10093     10097     10100     10096     10093     10097     10099
     10096     10093     10097     10100     10097     10100     10103     10105
     10097     10100     10103     10106     10097     10100     10103     10107
     10099     10097     10100     10102     10099     10097     10100     10103
     10100     10103     10107     10109     10100     10103     10107     10110
     10100     10103     10107     10111     10102     10100     10103     10105
     10102     10100     10103     10106     10102     10100     10103     10107
     10103     10107     10111     10113     10103     10107     10111     10114
     10103     10107     10111     10115     10105     10103     10107     10109
     10105     10103     10107     10110     10105     10103     10107     10111
     10106     10103     10107     10109     10106     10103     10107     10110
     10106     10103     10107     10111     10107     10111     10115     10117
     10107     10111     10115     10118     10107     10111     10115     10119
     10109     10107     10111     10113     10109     10107     10111     10114
     10109     10107     10111     10115     10110     10107     10111     10113
     10110     10107     10111     10114     10110     10107     10111     10115
     10111     10115     10119     10121     10111     10115     10119     10122
     10111     10115     10119     10123     10113     10111     10115     10117
     10113     10111     10115     10118     10113     10111     10115     10119
     10114     10111     10115     10117     10114     10111     10115     10118
     10114     10111     10115     10119     10115     10119     10123     10125
     10115     10119     10123     10126     10115     10119     10123     10127
     10117     10115     10119     10121     10117     10115     10119     10122
     10117     10115     10119     10123     10118     10115     10119     10121
     10118     10115     10119     10122     10118     10115     10119     10123
     10119     10123     10127     10129     10119     10123     10127     10130
     10119     10123     10127     10131     10121     10119     10123     10125
     10121     10119     10123     10126     10121     10119     10123     10127
     10122     10119     10123     10125     10122     10119     10123     10126
     10122     10119     10123     10127     10123     10127     10131     10133
     10123     10127     10131     10134     10123     10127     10131     10135
     10125     10123     10127     10129     10125     10123     10127     10130
     10125     10123     10127     10131     10126     10123     10127     10129
     10126     10123     10127     10130     10126     10123     10127     10131
     10129     10127     10131     10133     10129     10127     10131     10134
     10129     10127     10131     10135     10130     10127     10131     10133
     10130     10127     10131     10134     10130     10127     10131     10135
     10136     10140     10144     10146     10136     10140     10144     10147
     10136     10140     10144     10148     10138     10136     10140     10142
     10138     10136     10140     10143     10138     10136     10140     10144
     10139     10136     10140     10142     10139     10136     10140     10143
     10139     10136     10140     10144     10140     10144     10148     10150
     10140     10144     10148     10151     10140     10144     10148     10152
     10142     10140     10144     10146     10142     10140     10144     10147
     10142     10140     10144     10148     10143     10140     10144     10146
     10143     10140     10144     10147     10143     10140     10144     10148
     10144     10148     10152     10154     10144     10148     10152     10155
     10144     10148     10152     10156     10146     10144     10148     10150
     10146     10144     10148     10151     10146     10144     10148     10152
     10147     10144     10148     10150     10147     10144     10148     10151
     10147     10144     10148     10152     10148     10152     10156     10158
     10148     10152     10156     10159     10148     10152     10156     10160
     10150     10148     10152     10154     10150     10148     10152     10155
     10150     10148     10152     10156     10151     10148     10152     10154
     10151     10148     10152     10155     10151     10148     10152     10156
     10152     10156     10160     10162     10152     10156     10160     10163
     10152     10156     10160     10164     10154     10152     10156     10158
     10154     10152     10156     10159     10154     10152     10156     10160
     10155     10152     10156     10158     10155     10152     10156     10159
     10155     10152     10156     10160     10156     10160     10164     10166
     10156     10160     10164     10167     10156     10160     10164     10168
     10158     10156     10160     10162     10158     10156     10160     10163
     10158     10156     10160     10164     10159     10156     10160     10162
     10159     10156     10160     10163     10159     10156     10160     10164
     10160     10164     10168     10170     10160     10164     10168     10171
     10160     10164     10168     10172     10162     10160     10164     10166
     10162     10160     10164     10167     10162     10160     10164     10168
     10163     10160     10164     10166     10163     10160     10164     10167
     10163     10160     10164     10168     10164     10168     10172     10174
     10164     10168     10172     10175     10164     10168     10172     10176
     10166     10164     10168     10170     10166     10164     10168     10171
     10166     10164     10168     10172     10167     10164     10168     10170
     10167     10164     10168     10171     10167     10164     10168     10172
     10168     10172     10176     10178     10168     10172     10176     10179
     10168     10172     10176     10180     10170     10168     10172     10174
     10170     10168     10172     10175     10170     10168     10172     10176
     10171     10168     10172     10174     10171     10168     10172     10175
     10171     10168     10172     10176     10172     10176     10180     10182
     10172     10176     10180     10183     10172     10176     10180     10184
     10174     10172     10176     10178     10174     10172     10176     10179
     10174     10172     10176     10180     10175     10172     10176     10178
     10175     10172     10176     10179     10175     10172     10176     10180
     10176     10180     10184     10186     10176     10180     10184     10187
     10176     10180     10184     10188     10178     10176     10180     10182
     10178     10176     10180     10183     10178     10176     10180     10184
     10179     10176     10180     10182     10179     10176     10180     10183
     10179     10176     10180     10184     10180     10184     10188     10190
     10180     10184     10188     10191     10180     10184     10188     10192
     10182     10180     10184     10186     10182     10180     10184     10187
     10182     10180     10184     10188     10183     10180     10184     10186
     10183     10180     10184     10187     10183     10180     10184     10188
     10186     10184     10188     10190     10186     10184     10188     10191
     10186     10184     10188     10192     10187     10184     10188     10190
     10187     10184     10188     10191     10187     10184     10188     10192
     10193     10198     10202     10204     10193     10198     10202     10205
     10193     10198     10202     10214     10195     10193     10198     10200
     10195     10193     10198     10201     10195     10193     10198     10202
     10196     10193     10198     10200     10196     10193     10198     10201
     10196     10193     10198     10202     10197     10193     10198     10200
     10197     10193     10198     10201     10197     10193     10198     10202
     10198     10202     10214     10206     10200     10198     10202     10204
     10200     10198     10202     10205     10200     10198     10202     10214
     10201     10198     10202     10204     10201     10198     10202     10205
     10201     10198     10202     10214     10202     10214     10206     10208
     10202     10214     10206     10210     10202     10214     10206     10212
     10204     10202     10214     10206     10205     10202     10214     10206
     10206     10212     10216     10218     10206     10212     10216     10219
     10206     10212     10216     10220     10208     10206     10212     10216
     10210     10206     10212     10216     10212     10216     10220     10222
     10212     10216     10220     10223     10212     10216     10220     10237
     10214     10206     10212     10216     10216     10220     10223     10225
     10216     10220     10237     10239     10216     10220     10237     10240
     10216     10220     10237     10241     10218     10216     10220     10222
     10218     10216     10220     10223     10218     10216     10220     10237
     10219     10216     10220     10222     10219     10216     10220     10223
     10219     10216     10220     10237     10220     10223     10225     10227
     10220     10223     10225     10229     10220     10237     10241     10243
     10222     10220     10223     10225     10222     10220     10237     10239
     10222     10220     10237     10240     10222     10220     10237     10241
     10223     10220     10237     10239     10223     10220     10237     10240
     10223     10220     10237     10241     10223     10225     10229     10231
     10223     10225     10229     10232     10223     10225     10229     10255
     10225     10223     10220     10237     10225     10229     10255     10257
     10225     10229     10255     10258     10225     10229     10255     10259
     10227     10225     10229     10231     10227     10225     10229     10232
     10227     10225     10229     10255     10229     10255     10259     10261
     10229     10255     10259     10262     10229     10255     10259     10263
     10231     10229     10255     10257     10231     10229     10255     10258
     10231     10229     10255     10259     10232     10229     10255     10257
     10232     10229     10255     10258     10232     10229     10255     10259
     10237     10241     10243     10245     10237     10241     10243     10247
     10239     10237     10241     10243     10240     10237     10241     10243
     10241     10243     10247     10249     10241     10243     10247     10250
     10241     10243     10247     10318     10243     10247     10318     10320
     10243     10247     10318     10321     10243     10247     10318     10322
     10245     10243     10247     10249     10245     10243     10247     10250
     10245     10243     10247     10318     10247     10318     10322     10324
     10247     10318     10322     10325     10247     10318     10322     10326
     10249     10247     10318     10320     10249     10247     10318     10321
     10249     10247     10318     10322     10250     10247     10318     10320
     10250     10247     10318     10321     10250     10247     10318     10322
     10255     10259     10263     10265     10255     10259     10263     10266
     10255     10259     10263     10267     10257     10255     10259     10261
     10257     10255     10259     10262     10257     10255     10259     10263
     10258     10255     10259     10261     10258     10255     10259     10262
     10258     10255     10259     10263     10259     10263     10267     10269
     10259     10263     10267     10270     10259     10263     10267     10271
     10261     10259     10263     10265     10261     10259     10263     10266
     10261     10259     10263     10267     10262     10259     10263     10265
     10262     10259     10263     10266     10262     10259     10263     10267
     10263     10267     10271     10273     10263     10267     10271     10274
     10263     10267     10271     10275     10265     10263     10267     10269
     10265     10263     10267     10270     10265     10263     10267     10271
     10266     10263     10267     10269     10266     10263     10267     10270
     10266     10263     10267     10271     10267     10271     10275     10277
     10267     10271     10275     10278     10267     10271     10275     10279
     10269     10267     10271     10273     10269     10267     10271     10274
     10269     10267     10271     10275     10270     10267     10271     10273
     10270     10267     10271     10274     10270     10267     10271     10275
     10271     10275     10279     10281     10271     10275     10279     10282
     10273     10271     10275     10277     10273     10271     10275     10278
     10273     10271     10275     10279     10274     10271     10275     10277
     10274     10271     10275     10278     10274     10271     10275     10279
     10275     10279     10282     10284     10275     10279     10282     10285
     10277     10275     10279     10281     10277     10275     10279     10282
     10278     10275     10279     10281     10278     10275     10279     10282
     10279     10282     10285     10287     10279     10282     10285     10288
     10279     10282     10285     10289     10281     10279     10282     10284
     10281     10279     10282     10285     10282     10285     10289     10291
     10282     10285     10289     10292     10282     10285     10289     10293
     10284     10282     10285     10287     10284     10282     10285     10288
     10284     10282     10285     10289     10285     10289     10293     10295
     10285     10289     10293     10296     10285     10289     10293     10297
     10287     10285     10289     10291     10287     10285     10289     10292
     10287     10285     10289     10293     10288     10285     10289     10291
     10288     10285     10289     10292     10288     10285     10289     10293
     10289     10293     10297     10299     10289     10293     10297     10300
     10289     10293     10297     10301     10291     10289     10293     10295
     10291     10289     10293     10296     10291     10289     10293     10297
     10292     10289     10293     10295     10292     10289     10293     10296
     10292     10289     10293     10297     10293     10297     10301     10303
     10293     10297     10301     10304     10293     10297     10301     10305
     10295     10293     10297     10299     10295     10293     10297     10300
     10295     10293     10297     10301     10296     10293     10297     10299
     10296     10293     10297     10300     10296     10293     10297     10301
     10297     10301     10305     10307     10297     10301     10305     10308
     10297     10301     10305     10309     10299     10297     10301     10303
     10299     10297     10301     10304     10299     10297     10301     10305
     10300     10297     10301     10303     10300     10297     10301     10304
     10300     10297     10301     10305     10301     10305     10309     10311
     10301     10305     10309     10312     10301     10305     10309     10313
     10303     10301     10305     10307     10303     10301     10305     10308
     10303     10301     10305     10309     10304     10301     10305     10307
     10304     10301     10305     10308     10304     10301     10305     10309
     10305     10309     10313     10315     10305     10309     10313     10316
     10305     10309     10313     10317     10307     10305     10309     10311
     10307     10305     10309     10312     10307     10305     10309     10313
     10308     10305     10309     10311     10308     10305     10309     10312
     10308     10305     10309     10313     10311     10309     10313     10315
     10311     10309     10313     10316     10311     10309     10313     10317
     10312     10309     10313     10315     10312     10309     10313     10316
     10312     10309     10313     10317     10318     10322     10326     10328
     10318     10322     10326     10329     10318     10322     10326     10330
     10320     10318     10322     10324     10320     10318     10322     10325
     10320     10318     10322     10326     10321     10318     10322     10324
     10321     10318     10322     10325     10321     10318     10322     10326
     10322     10326     10330     10332     10322     10326     10330     10333
     10322     10326     10330     10334     10324     10322     10326     10328
     10324     10322     10326     10329     10324     10322     10326     10330
     10325     10322     10326     10328     10325     10322     10326     10329
     10325     10322     10326     10330     10326     10330     10334     10336
     10326     10330     10334     10337     10326     10330     10334     10338
     10328     10326     10330     10332     10328     10326     10330     10333
     10328     10326     10330     10334     10329     10326     10330     10332
     10329     10326     10330     10333     10329     10326     10330     10334
     10330     10334     10338     10340     10330     10334     10338     10341
     10330     10334     10338     10342     10332     10330     10334     10336
     10332     10330     10334     10337     10332     10330     10334     10338
     10333     10330     10334     10336     10333     10330     10334     10337
     10333     10330     10334     10338     10334     10338     10342     10344
     10334     10338     10342     10345     10334     10338     10342     10346
     10336     10334     10338     10340     10336     10334     10338     10341
     10336     10334     10338     10342     10337     10334     10338     10340
     10337     10334     10338     10341     10337     10334     10338     10342
     10338     10342     10346     10348     10338     10342     10346     10349
     10338     10342     10346     10350     10340     10338     10342     10344
     10340     10338     10342     10345     10340     10338     10342     10346
     10341     10338     10342     10344     10341     10338     10342     10345
     10341     10338     10342     10346     10342     10346     10350     10352
     10342     10346     10350     10353     10342     10346     10350     10354
     10344     10342     10346     10348     10344     10342     10346     10349
     10344     10342     10346     10350     10345     10342     10346     10348
     10345     10342     10346     10349     10345     10342     10346     10350
     10346     10350     10354     10356     10346     10350     10354     10357
     10346     10350     10354     10358     10348     10346     10350     10352
     10348     10346     10350     10353     10348     10346     10350     10354
     10349     10346     10350     10352     10349     10346     10350     10353
     10349     10346     10350     10354     10350     10354     10358     10360
     10350     10354     10358     10361     10350     10354     10358     10362
     10352     10350     10354     10356     10352     10350     10354     10357
     10352     10350     10354     10358     10353     10350     10354     10356
     10353     10350     10354     10357     10353     10350     10354     10358
     10354     10358     10362     10364     10354     10358     10362     10365
     10354     10358     10362     10366     10356     10354     10358     10360
     10356     10354     10358     10361     10356     10354     10358     10362
     10357     10354     10358     10360     10357     10354     10358     10361
     10357     10354     10358     10362     10358     10362     10366     10368
     10358     10362     10366     10369     10358     10362     10366     10370
     10360     10358     10362     10364     10360     10358     10362     10365
     10360     10358     10362     10366     10361     10358     10362     10364
     10361     10358     10362     10365     10361     10358     10362     10366
     10362     10366     10370     10372     10362     10366     10370     10373
     10362     10366     10370     10374     10364     10362     10366     10368
     10364     10362     10366     10369     10364     10362     10366     10370
     10365     10362     10366     10368     10365     10362     10366     10369
     10365     10362     10366     10370     10368     10366     10370     10372
     10368     10366     10370     10373     10368     10366     10370     10374
     10369     10366     10370     10372     10369     10366     10370     10373
     10369     10366     10370     10374     10375     10380     10384     10386
     10375     10380     10384     10387     10375     10380     10384     10396
     10377     10375     10380     10382     10377     10375     10380     10383
     10377     10375     10380     10384     10378     10375     10380     10382
     10378     10375     10380     10383     10378     10375     10380     10384
     10379     10375     10380     10382     10379     10375     10380     10383
     10379     10375     10380     10384     10380     10384     10396     10388
     10382     10380     10384     10386     10382     10380     10384     10387
     10382     10380     10384     10396     10383     10380     10384     10386
     10383     10380     10384     10387     10383     10380     10384     10396
     10384     10396     10388     10390     10384     10396     10388     10392
     10384     10396     10388     10394     10386     10384     10396     10388
     10387     10384     10396     10388     10388     10394     10398     10400
     10388     10394     10398     10401     10388     10394     10398     10402
     10390     10388     10394     10398     10392     10388     10394     10398
     10394     10398     10402     10404     10394     10398     10402     10405
     10394     10398     10402     10419     10396     10388     10394     10398
     10398     10402     10405     10407     10398     10402     10419     10421
     10398     10402     10419     10422     10398     10402     10419     10423
     10400     10398     10402     10404     10400     10398     10402     10405
     10400     10398     10402     10419     10401     10398     10402     10404
     10401     10398     10402     10405     10401     10398     10402     10419
     10402     10405     10407     10409     10402     10405     10407     10411
     10402     10419     10423     10425     10404     10402     10405     10407
     10404     10402     10419     10421     10404     10402     10419     10422
     10404     10402     10419     10423     10405     10402     10419     10421
     10405     10402     10419     10422     10405     10402     10419     10423
     10405     10407     10411     10413     10405     10407     10411     10414
     10405     10407     10411     10437     10407     10405     10402     10419
     10407     10411     10437     10439     10407     10411     10437     10440
     10407     10411     10437     10441     10409     10407     10411     10413
     10409     10407     10411     10414     10409     10407     10411     10437
     10411     10437     10441     10443     10411     10437     10441     10444
     10411     10437     10441     10445     10413     10411     10437     10439
     10413     10411     10437     10440     10413     10411     10437     10441
     10414     10411     10437     10439     10414     10411     10437     10440
     10414     10411     10437     10441     10419     10423     10425     10427
     10419     10423     10425     10429     10421     10419     10423     10425
     10422     10419     10423     10425     10423     10425     10429     10431
     10423     10425     10429     10432     10423     10425     10429     10500
     10425     10429     10500     10502     10425     10429     10500     10503
     10425     10429     10500     10504     10427     10425     10429     10431
     10427     10425     10429     10432     10427     10425     10429     10500
     10429     10500     10504     10506     10429     10500     10504     10507
     10429     10500     10504     10508     10431     10429     10500     10502
     10431     10429     10500     10503     10431     10429     10500     10504
     10432     10429     10500     10502     10432     10429     10500     10503
     10432     10429     10500     10504     10437     10441     10445     10447
     10437     10441     10445     10448     10437     10441     10445     10449
     10439     10437     10441     10443     10439     10437     10441     10444
     10439     10437     10441     10445     10440     10437     10441     10443
     10440     10437     10441     10444     10440     10437     10441     10445
     10441     10445     10449     10451     10441     10445     10449     10452
     10441     10445     10449     10453     10443     10441     10445     10447
     10443     10441     10445     10448     10443     10441     10445     10449
     10444     10441     10445     10447     10444     10441     10445     10448
     10444     10441     10445     10449     10445     10449     10453     10455
     10445     10449     10453     10456     10445     10449     10453     10457
     10447     10445     10449     10451     10447     10445     10449     10452
     10447     10445     10449     10453     10448     10445     10449     10451
     10448     10445     10449     10452     10448     10445     10449     10453
     10449     10453     10457     10459     10449     10453     10457     10460
     10449     10453     10457     10461     10451     10449     10453     10455
     10451     10449     10453     10456     10451     10449     10453     10457
     10452     10449     10453     10455     10452     10449     10453     10456
     10452     10449     10453     10457     10453     10457     10461     10463
     10453     10457     10461     10464     10455     10453     10457     10459
     10455     10453     10457     10460     10455     10453     10457     10461
     10456     10453     10457     10459     10456     10453     10457     10460
     10456     10453     10457     10461     10457     10461     10464     10466
     10457     10461     10464     10467     10459     10457     10461     10463
     10459     10457     10461     10464     10460     10457     10461     10463
     10460     10457     10461     10464     10461     10464     10467     10469
     10461     10464     10467     10470     10461     10464     10467     10471
     10463     10461     10464     10466     10463     10461     10464     10467
     10464     10467     10471     10473     10464     10467     10471     10474
     10464     10467     10471     10475     10466     10464     10467     10469
     10466     10464     10467     10470     10466     10464     10467     10471
     10467     10471     10475     10477     10467     10471     10475     10478
     10467     10471     10475     10479     10469     10467     10471     10473
     10469     10467     10471     10474     10469     10467     10471     10475
     10470     10467     10471     10473     10470     10467     10471     10474
     10470     10467     10471     10475     10471     10475     10479     10481
     10471     10475     10479     10482     10471     10475     10479     10483
     10473     10471     10475     10477     10473     10471     10475     10478
     10473     10471     10475     10479     10474     10471     10475     10477
     10474     10471     10475     10478     10474     10471     10475     10479
     10475     10479     10483     10485     10475     10479     10483     10486
     10475     10479     10483     10487     10477     10475     10479     10481
     10477     10475     10479     10482     10477     10475     10479     10483
     10478     10475     10479     10481     10478     10475     10479     10482
     10478     10475     10479     10483     10479     10483     10487     10489
     10479     10483     10487     10490     10479     10483     10487     10491
     10481     10479     10483     10485     10481     10479     10483     10486
     10481     10479     10483     10487     10482     10479     10483     10485
     10482     10479     10483     10486     10482     10479     10483     10487
     10483     10487     10491     10493     10483     10487     10491     10494
     10483     10487     10491     10495     10485     10483     10487     10489
     10485     10483     10487     10490     10485     10483     10487     10491
     10486     10483     10487     10489     10486     10483     10487     10490
     10486     10483     10487     10491     10487     10491     10495     10497
     10487     10491     10495     10498     10487     10491     10495     10499
     10489     10487     10491     10493     10489     10487     10491     10494
     10489     10487     10491     10495     10490     10487     10491     10493
     10490     10487     10491     10494     10490     10487     10491     10495
     10493     10491     10495     10497     10493     10491     10495     10498
     10493     10491     10495     10499     10494     10491     10495     10497
     10494     10491     10495     10498     10494     10491     10495     10499
     10500     10504     10508     10510     10500     10504     10508     10511
     10500     10504     10508     10512     10502     10500     10504     10506
     10502     10500     10504     10507     10502     10500     10504     10508
     10503     10500     10504     10506     10503     10500     10504     10507
     10503     10500     10504     10508     10504     10508     10512     10514
     10504     10508     10512     10515     10504     10508     10512     10516
     10506     10504     10508     10510     10506     10504     10508     10511
     10506     10504     10508     10512     10507     10504     10508     10510
     10507     10504     10508     10511     10507     10504     10508     10512
     10508     10512     10516     10518     10508     10512     10516     10519
     10508     10512     10516     10520     10510     10508     10512     10514
     10510     10508     10512     10515     10510     10508     10512     10516
     10511     10508     10512     10514     10511     10508     10512     10515
     10511     10508     10512     10516     10512     10516     10520     10522
     10512     10516     10520     10523     10512     10516     10520     10524
     10514     10512     10516     10518     10514     10512     10516     10519
     10514     10512     10516     10520     10515     10512     10516     10518
     10515     10512     10516     10519     10515     10512     10516     10520
     10516     10520     10524     10526     10516     10520     10524     10527
     10516     10520     10524     10528     10518     10516     10520     10522
     10518     10516     10520     10523     10518     10516     10520     10524
     10519     10516     10520     10522     10519     10516     10520     10523
     10519     10516     10520     10524     10520     10524     10528     10530
     10520     10524     10528     10531     10520     10524     10528     10532
     10522     10520     10524     10526     10522     10520     10524     10527
     10522     10520     10524     10528     10523     10520     10524     10526
     10523     10520     10524     10527     10523     10520     10524     10528
     10524     10528     10532     10534     10524     10528     10532     10535
     10524     10528     10532     10536     10526     10524     10528     10530
     10526     10524     10528     10531     10526     10524     10528     10532
     10527     10524     10528     10530     10527     10524     10528     10531
     10527     10524     10528     10532     10528     10532     10536     10538
     10528     10532     10536     10539     10528     10532     10536     10540
     10530     10528     10532     10534     10530     10528     10532     10535
     10530     10528     10532     10536     10531     10528     10532     10534
     10531     10528     10532     10535     10531     10528     10532     10536
     10532     10536     10540     10542     10532     10536     10540     10543
     10532     10536     10540     10544     10534     10532     10536     10538
     10534     10532     10536     10539     10534     10532     10536     10540
     10535     10532     10536     10538     10535     10532     10536     10539
     10535     10532     10536     10540     10536     10540     10544     10546
     10536     10540     10544     10547     10536     10540     10544     10548
     10538     10536     10540     10542     10538     10536     10540     10543
     10538     10536     10540     10544     10539     10536     10540     10542
     10539     10536     10540     10543     10539     10536     10540     10544
     10540     10544     10548     10550     10540     10544     10548     10551
     10540     10544     10548     10552     10542     10540     10544     10546
     10542     10540     10544     10547     10542     10540     10544     10548
     10543     10540     10544     10546     10543     10540     10544     10547
     10543     10540     10544     10548     10544     10548     10552     10554
     10544     10548     10552     10555     10544     10548     10552     10556
     10546     10544     10548     10550     10546     10544     10548     10551
     10546     10544     10548     10552     10547     10544     10548     10550
     10547     10544     10548     10551     10547     10544     10548     10552
     10550     10548     10552     10554     10550     10548     10552     10555
     10550     10548     10552     10556     10551     10548     10552     10554
     10551     10548     10552     10555     10551     10548     10552     10556
     10557     10562     10566     10568     10557     10562     10566     10569
     10557     10562     10566     10578     10559     10557     10562     10564
     10559     10557     10562     10565     10559     10557     10562     10566
     10560     10557     10562     10564     10560     10557     10562     10565
     10560     10557     10562     10566     10561     10557     10562     10564
     10561     10557     10562     10565     10561     10557     10562     10566
     10562     10566     10578     10570     10564     10562     10566     10568
     10564     10562     10566     10569     10564     10562     10566     10578
     10565     10562     10566     10568     10565     10562     10566     10569
     10565     10562     10566     10578     10566     10578     10570     10572
     10566     10578     10570     10574     10566     10578     10570     10576
     10568     10566     10578     10570     10569     10566     10578     10570
     10570     10576     10580     10582     10570     10576     10580     10583
     10570     10576     10580     10584     10572     10570     10576     10580
     10574     10570     10576     10580     10576     10580     10584     10586
     10576     10580     10584     10587     10576     10580     10584     10601
     10578     10570     10576     10580     10580     10584     10587     10589
     10580     10584     10601     10603     10580     10584     10601     10604
     10580     10584     10601     10605     10582     10580     10584     10586
     10582     10580     10584     10587     10582     10580     10584     10601
     10583     10580     10584     10586     10583     10580     10584     10587
     10583     10580     10584     10601     10584     10587     10589     10591
     10584     10587     10589     10593     10584     10601     10605     10607
     10586     10584     10587     10589     10586     10584     10601     10603
     10586     10584     10601     10604     10586     10584     10601     10605
     10587     10584     10601     10603     10587     10584     10601     10604
     10587     10584     10601     10605     10587     10589     10593     10595
     10587     10589     10593     10596     10587     10589     10593     10619
     10589     10587     10584     10601     10589     10593     10619     10621
     10589     10593     10619     10622     10589     10593     10619     10623
     10591     10589     10593     10595     10591     10589     10593     10596
     10591     10589     10593     10619     10593     10619     10623     10625
     10593     10619     10623     10626     10593     10619     10623     10627
     10595     10593     10619     10621     10595     10593     10619     10622
     10595     10593     10619     10623     10596     10593     10619     10621
     10596     10593     10619     10622     10596     10593     10619     10623
     10601     10605     10607     10609     10601     10605     10607     10611
     10603     10601     10605     10607     10604     10601     10605     10607
     10605     10607     10611     10613     10605     10607     10611     10614
     10605     10607     10611     10682     10607     10611     10682     10684
     10607     10611     10682     10685     10607     10611     10682     10686
     10609     10607     10611     10613     10609     10607     10611     10614
     10609     10607     10611     10682     10611     10682     10686     10688
     10611     10682     10686     10689     10611     10682     10686     10690
     10613     10611     10682     10684     10613     10611     10682     10685
     10613     10611     10682     10686     10614     10611     10682     10684
     10614     10611     10682     10685     10614     10611     10682     10686
     10619     10623     10627     10629     10619     10623     10627     10630
     10619     10623     10627     10631     10621     10619     10623     10625
     10621     10619     10623     10626     10621     10619     10623     10627
     10622     10619     10623     10625     10622     10619     10623     10626
     10622     10619     10623     10627     10623     10627     10631     10633
     10623     10627     10631     10634     10623     10627     10631     10635
     10625     10623     10627     10629     10625     10623     10627     10630
     10625     10623     10627     10631     10626     10623     10627     10629
     10626     10623     10627     10630     10626     10623     10627     10631
     10627     10631     10635     10637     10627     10631     10635     10638
     10627     10631     10635     10639     10629     10627     10631     10633
     10629     10627     10631     10634     10629     10627     10631     10635
     10630     10627     10631     10633     10630     10627     10631     10634
     10630     10627     10631     10635     10631     10635     10639     10641
     10631     10635     10639     10642     10631     10635     10639     10643
     10633     10631     10635     10637     10633     10631     10635     10638
     10633     10631     10635     10639     10634     10631     10635     10637
     10634     10631     10635     10638     10634     10631     10635     10639
     10635     10639     10643     10645     10635     10639     10643     10646
     10637     10635     10639     10641     10637     10635     10639     10642
     10637     10635     10639     10643     10638     10635     10639     10641
     10638     10635     10639     10642     10638     10635     10639     10643
     10639     10643     10646     10648     10639     10643     10646     10649
     10641     10639     10643     10645     10641     10639     10643     10646
     10642     10639     10643     10645     10642     10639     10643     10646
     10643     10646     10649     10651     10643     10646     10649     10652
     10643     10646     10649     10653     10645     10643     10646     10648
     10645     10643     10646     10649     10646     10649     10653     10655
     10646     10649     10653     10656     10646     10649     10653     10657
     10648     10646     10649     10651     10648     10646     10649     10652
     10648     10646     10649     10653     10649     10653     10657     10659
     10649     10653     10657     10660     10649     10653     10657     10661
     10651     10649     10653     10655     10651     10649     10653     10656
     10651     10649     10653     10657     10652     10649     10653     10655
     10652     10649     10653     10656     10652     10649     10653     10657
     10653     10657     10661     10663     10653     10657     10661     10664
     10653     10657     10661     10665     10655     10653     10657     10659
     10655     10653     10657     10660     10655     10653     10657     10661
     10656     10653     10657     10659     10656     10653     10657     10660
     10656     10653     10657     10661     10657     10661     10665     10667
     10657     10661     10665     10668     10657     10661     10665     10669
     10659     10657     10661     10663     10659     10657     10661     10664
     10659     10657     10661     10665     10660     10657     10661     10663
     10660     10657     10661     10664     10660     10657     10661     10665
     10661     10665     10669     10671     10661     10665     10669     10672
     10661     10665     10669     10673     10663     10661     10665     10667
     10663     10661     10665     10668     10663     10661     10665     10669
     10664     10661     10665     10667     10664     10661     10665     10668
     10664     10661     10665     10669     10665     10669     10673     10675
     10665     10669     10673     10676     10665     10669     10673     10677
     10667     10665     10669     10671     10667     10665     10669     10672
     10667     10665     10669     10673     10668     10665     10669     10671
     10668     10665     10669     10672     10668     10665     10669     10673
     10669     10673     10677     10679     10669     10673     10677     10680
     10669     10673     10677     10681     10671     10669     10673     10675
     10671     10669     10673     10676     10671     10669     10673     10677
     10672     10669     10673     10675     10672     10669     10673     10676
     10672     10669     10673     10677     10675     10673     10677     10679
     10675     10673     10677     10680     10675     10673     10677     10681
     10676     10673     10677     10679     10676     10673     10677     10680
     10676     10673     10677     10681     10682     10686     10690     10692
     10682     10686     10690     10693     10682     10686     10690     10694
     10684     10682     10686     10688     10684     10682     10686     10689
     10684     10682     10686     10690     10685     10682     10686     10688
     10685     10682     10686     10689     10685     10682     10686     10690
     10686     10690     10694     10696     10686     10690     10694     10697
     10686     10690     10694     10698     10688     10686     10690     10692
     10688     10686     10690     10693     10688     10686     10690     10694
     10689     10686     10690     10692     10689     10686     10690     10693
     10689     10686     10690     10694     10690     10694     10698     10700
     10690     10694     10698     10701     10690     10694     10698     10702
     10692     10690     10694     10696     10692     10690     10694     10697
     10692     10690     10694     10698     10693     10690     10694     10696
     10693     10690     10694     10697     10693     10690     10694     10698
     10694     10698     10702     10704     10694     10698     10702     10705
     10694     10698     10702     10706     10696     10694     10698     10700
     10696     10694     10698     10701     10696     10694     10698     10702
     10697     10694     10698     10700     10697     10694     10698     10701
     10697     10694     10698     10702     10698     10702     10706     10708
     10698     10702     10706     10709     10698     10702     10706     10710
     10700     10698     10702     10704     10700     10698     10702     10705
     10700     10698     10702     10706     10701     10698     10702     10704
     10701     10698     10702     10705     10701     10698     10702     10706
     10702     10706     10710     10712     10702     10706     10710     10713
     10702     10706     10710     10714     10704     10702     10706     10708
     10704     10702     10706     10709     10704     10702     10706     10710
     10705     10702     10706     10708     10705     10702     10706     10709
     10705     10702     10706     10710     10706     10710     10714     10716
     10706     10710     10714     10717     10706     10710     10714     10718
     10708     10706     10710     10712     10708     10706     10710     10713
     10708     10706     10710     10714     10709     10706     10710     10712
     10709     10706     10710     10713     10709     10706     10710     10714
     10710     10714     10718     10720     10710     10714     10718     10721
     10710     10714     10718     10722     10712     10710     10714     10716
     10712     10710     10714     10717     10712     10710     10714     10718
     10713     10710     10714     10716     10713     10710     10714     10717
     10713     10710     10714     10718     10714     10718     10722     10724
     10714     10718     10722     10725     10714     10718     10722     10726
     10716     10714     10718     10720     10716     10714     10718     10721
     10716     10714     10718     10722     10717     10714     10718     10720
     10717     10714     10718     10721     10717     10714     10718     10722
     10718     10722     10726     10728     10718     10722     10726     10729
     10718     10722     10726     10730     10720     10718     10722     10724
     10720     10718     10722     10725     10720     10718     10722     10726
     10721     10718     10722     10724     10721     10718     10722     10725
     10721     10718     10722     10726     10722     10726     10730     10732
     10722     10726     10730     10733     10722     10726     10730     10734
     10724     10722     10726     10728     10724     10722     10726     10729
     10724     10722     10726     10730     10725     10722     10726     10728
     10725     10722     10726     10729     10725     10722     10726     10730
     10726     10730     10734     10736     10726     10730     10734     10737
     10726     10730     10734     10738     10728     10726     10730     10732
     10728     10726     10730     10733     10728     10726     10730     10734
     10729     10726     10730     10732     10729     10726     10730     10733
     10729     10726     10730     10734     10732     10730     10734     10736
     10732     10730     10734     10737     10732     10730     10734     10738
     10733     10730     10734     10736     10733     10730     10734     10737
     10733     10730     10734     10738     10739     10744     10748     10750
     10739     10744     10748     10751     10739     10744     10748     10760
     10741     10739     10744     10746     10741     10739     10744     10747
     10741     10739     10744     10748     10742     10739     10744     10746
     10742     10739     10744     10747     10742     10739     10744     10748
     10743     10739     10744     10746     10743     10739     10744     10747
     10743     10739     10744     10748     10744     10748     10760     10752
     10746     10744     10748     10750     10746     10744     10748     10751
     10746     10744     10748     10760     10747     10744     10748     10750
     10747     10744     10748     10751     10747     10744     10748     10760
     10748     10760     10752     10754     10748     10760     10752     10756
     10748     10760     10752     10758     10750     10748     10760     10752
     10751     10748     10760     10752     10752     10758     10762     10764
     10752     10758     10762     10765     10752     10758     10762     10766
     10754     10752     10758     10762     10756     10752     10758     10762
     10758     10762     10766     10768     10758     10762     10766     10769
     10758     10762     10766     10783     10760     10752     10758     10762
     10762     10766     10769     10771     10762     10766     10783     10785
     10762     10766     10783     10786     10762     10766     10783     10787
     10764     10762     10766     10768     10764     10762     10766     10769
     10764     10762     10766     10783     10765     10762     10766     10768
     10765     10762     10766     10769     10765     10762     10766     10783
     10766     10769     10771     10773     10766     10769     10771     10775
     10766     10783     10787     10789     10768     10766     10769     10771
     10768     10766     10783     10785     10768     10766     10783     10786
     10768     10766     10783     10787     10769     10766     10783     10785
     10769     10766     10783     10786     10769     10766     10783     10787
     10769     10771     10775     10777     10769     10771     10775     10778
     10769     10771     10775     10801     10771     10769     10766     10783
     10771     10775     10801     10803     10771     10775     10801     10804
     10771     10775     10801     10805     10773     10771     10775     10777
     10773     10771     10775     10778     10773     10771     10775     10801
     10775     10801     10805     10807     10775     10801     10805     10808
     10775     10801     10805     10809     10777     10775     10801     10803
     10777     10775     10801     10804     10777     10775     10801     10805
     10778     10775     10801     10803     10778     10775     10801     10804
     10778     10775     10801     10805     10783     10787     10789     10791
     10783     10787     10789     10793     10785     10783     10787     10789
     10786     10783     10787     10789     10787     10789     10793     10795
     10787     10789     10793     10796     10787     10789     10793     10864
     10789     10793     10864     10866     10789     10793     10864     10867
     10789     10793     10864     10868     10791     10789     10793     10795
     10791     10789     10793     10796     10791     10789     10793     10864
     10793     10864     10868     10870     10793     10864     10868     10871
     10793     10864     10868     10872     10795     10793     10864     10866
     10795     10793     10864     10867     10795     10793     10864     10868
     10796     10793     10864     10866     10796     10793     10864     10867
     10796     10793     10864     10868     10801     10805     10809     10811
     10801     10805     10809     10812     10801     10805     10809     10813
     10803     10801     10805     10807     10803     10801     10805     10808
     10803     10801     10805     10809     10804     10801     10805     10807
     10804     10801     10805     10808     10804     10801     10805     10809
     10805     10809     10813     10815     10805     10809     10813     10816
     10805     10809     10813     10817     10807     10805     10809     10811
     10807     10805     10809     10812     10807     10805     10809     10813
     10808     10805     10809     10811     10808     10805     10809     10812
     10808     10805     10809     10813     10809     10813     10817     10819
     10809     10813     10817     10820     10809     10813     10817     10821
     10811     10809     10813     10815     10811     10809     10813     10816
     10811     10809     10813     10817     10812     10809     10813     10815
     10812     10809     10813     10816     10812     10809     10813     10817
     10813     10817     10821     10823     10813     10817     10821     10824
     10813     10817     10821     10825     10815     10813     10817     10819
     10815     10813     10817     10820     10815     10813     10817     10821
     10816     10813     10817     10819     10816     10813     10817     10820
     10816     10813     10817     10821     10817     10821     10825     10827
     10817     10821     10825     10828     10819     10817     10821     10823
     10819     10817     10821     10824     10819     10817     10821     10825
     10820     10817     10821     10823     10820     10817     10821     10824
     10820     10817     10821     10825     10821     10825     10828     10830
     10821     10825     10828     10831     10823     10821     10825     10827
     10823     10821     10825     10828     10824     10821     10825     10827
     10824     10821     10825     10828     10825     10828     10831     10833
     10825     10828     10831     10834     10825     10828     10831     10835
     10827     10825     10828     10830     10827     10825     10828     10831
     10828     10831     10835     10837     10828     10831     10835     10838
     10828     10831     10835     10839     10830     10828     10831     10833
     10830     10828     10831     10834     10830     10828     10831     10835
     10831     10835     10839     10841     10831     10835     10839     10842
     10831     10835     10839     10843     10833     10831     10835     10837
     10833     10831     10835     10838     10833     10831     10835     10839
     10834     10831     10835     10837     10834     10831     10835     10838
     10834     10831     10835     10839     10835     10839     10843     10845
     10835     10839     10843     10846     10835     10839     10843     10847
     10837     10835     10839     10841     10837     10835     10839     10842
     10837     10835     10839     10843     10838     10835     10839     10841
     10838     10835     10839     10842     10838     10835     10839     10843
     10839     10843     10847     10849     10839     10843     10847     10850
     10839     10843     10847     10851     10841     10839     10843     10845
     10841     10839     10843     10846     10841     10839     10843     10847
     10842     10839     10843     10845     10842     10839     10843     10846
     10842     10839     10843     10847     10843     10847     10851     10853
     10843     10847     10851     10854     10843     10847     10851     10855
     10845     10843     10847     10849     10845     10843     10847     10850
     10845     10843     10847     10851     10846     10843     10847     10849
     10846     10843     10847     10850     10846     10843     10847     10851
     10847     10851     10855     10857     10847     10851     10855     10858
     10847     10851     10855     10859     10849     10847     10851     10853
     10849     10847     10851     10854     10849     10847     10851     10855
     10850     10847     10851     10853     10850     10847     10851     10854
     10850     10847     10851     10855     10851     10855     10859     10861
     10851     10855     10859     10862     10851     10855     10859     10863
     10853     10851     10855     10857     10853     10851     10855     10858
     10853     10851     10855     10859     10854     10851     10855     10857
     10854     10851     10855     10858     10854     10851     10855     10859
     10857     10855     10859     10861     10857     10855     10859     10862
     10857     10855     10859     10863     10858     10855     10859     10861
     10858     10855     10859     10862     10858     10855     10859     10863
     10864     10868     10872     10874     10864     10868     10872     10875
     10864     10868     10872     10876     10866     10864     10868     10870
     10866     10864     10868     10871     10866     10864     10868     10872
     10867     10864     10868     10870     10867     10864     10868     10871
     10867     10864     10868     10872     10868     10872     10876     10878
     10868     10872     10876     10879     10868     10872     10876     10880
     10870     10868     10872     10874     10870     10868     10872     10875
     10870     10868     10872     10876     10871     10868     10872     10874
     10871     10868     10872     10875     10871     10868     10872     10876
     10872     10876     10880     10882     10872     10876     10880     10883
     10872     10876     10880     10884     10874     10872     10876     10878
     10874     10872     10876     10879     10874     10872     10876     10880
     10875     10872     10876     10878     10875     10872     10876     10879
     10875     10872     10876     10880     10876     10880     10884     10886
     10876     10880     10884     10887     10876     10880     10884     10888
     10878     10876     10880     10882     10878     10876     10880     10883
     10878     10876     10880     10884     10879     10876     10880     10882
     10879     10876     10880     10883     10879     10876     10880     10884
     10880     10884     10888     10890     10880     10884     10888     10891
     10880     10884     10888     10892     10882     10880     10884     10886
     10882     10880     10884     10887     10882     10880     10884     10888
     10883     10880     10884     10886     10883     10880     10884     10887
     10883     10880     10884     10888     10884     10888     10892     10894
     10884     10888     10892     10895     10884     10888     10892     10896
     10886     10884     10888     10890     10886     10884     10888     10891
     10886     10884     10888     10892     10887     10884     10888     10890
     10887     10884     10888     10891     10887     10884     10888     10892
     10888     10892     10896     10898     10888     10892     10896     10899
     10888     10892     10896     10900     10890     10888     10892     10894
     10890     10888     10892     10895     10890     10888     10892     10896
     10891     10888     10892     10894     10891     10888     10892     10895
     10891     10888     10892     10896     10892     10896     10900     10902
     10892     10896     10900     10903     10892     10896     10900     10904
     10894     10892     10896     10898     10894     10892     10896     10899
     10894     10892     10896     10900     10895     10892     10896     10898
     10895     10892     10896     10899     10895     10892     10896     10900
     10896     10900     10904     10906     10896     10900     10904     10907
     10896     10900     10904     10908     10898     10896     10900     10902
     10898     10896     10900     10903     10898     10896     10900     10904
     10899     10896     10900     10902     10899     10896     10900     10903
     10899     10896     10900     10904     10900     10904     10908     10910
     10900     10904     10908     10911     10900     10904     10908     10912
     10902     10900     10904     10906     10902     10900     10904     10907
     10902     10900     10904     10908     10903     10900     10904     10906
     10903     10900     10904     10907     10903     10900     10904     10908
     10904     10908     10912     10914     10904     10908     10912     10915
     10904     10908     10912     10916     10906     10904     10908     10910
     10906     10904     10908     10911     10906     10904     10908     10912
     10907     10904     10908     10910     10907     10904     10908     10911
     10907     10904     10908     10912     10908     10912     10916     10918
     10908     10912     10916     10919     10908     10912     10916     10920
     10910     10908     10912     10914     10910     10908     10912     10915
     10910     10908     10912     10916     10911     10908     10912     10914
     10911     10908     10912     10915     10911     10908     10912     10916
     10914     10912     10916     10918     10914     10912     10916     10919
     10914     10912     10916     10920     10915     10912     10916     10918
     10915     10912     10916     10919     10915     10912     10916     10920
     10921     10926     10930     10932     10921     10926     10930     10933
     10921     10926     10930     10942     10923     10921     10926     10928
     10923     10921     10926     10929     10923     10921     10926     10930
     10924     10921     10926     10928     10924     10921     10926     10929
     10924     10921     10926     10930     10925     10921     10926     10928
     10925     10921     10926     10929     10925     10921     10926     10930
     10926     10930     10942     10934     10928     10926     10930     10932
     10928     10926     10930     10933     10928     10926     10930     10942
     10929     10926     10930     10932     10929     10926     10930     10933
     10929     10926     10930     10942     10930     10942     10934     10936
     10930     10942     10934     10938     10930     10942     10934     10940
     10932     10930     10942     10934     10933     10930     10942     10934
     10934     10940     10944     10946     10934     10940     10944     10947
     10934     10940     10944     10948     10936     10934     10940     10944
     10938     10934     10940     10944     10940     10944     10948     10950
     10940     10944     10948     10951     10940     10944     10948     10965
     10942     10934     10940     10944     10944     10948     10951     10953
     10944     10948     10965     10967     10944     10948     10965     10968
     10944     10948     10965     10969     10946     10944     10948     10950
     10946     10944     10948     10951     10946     10944     10948     10965
     10947     10944     10948     10950     10947     10944     10948     10951
     10947     10944     10948     10965     10948     10951     10953     10955
     10948     10951     10953     10957     10948     10965     10969     10971
     10950     10948     10951     10953     10950     10948     10965     10967
     10950     10948     10965     10968     10950     10948     10965     10969
     10951     10948     10965     10967     10951     10948     10965     10968
     10951     10948     10965     10969     10951     10953     10957     10959
     10951     10953     10957     10960     10951     10953     10957     10983
     10953     10951     10948     10965     10953     10957     10983     10985
     10953     10957     10983     10986     10953     10957     10983     10987
     10955     10953     10957     10959     10955     10953     10957     10960
     10955     10953     10957     10983     10957     10983     10987     10989
     10957     10983     10987     10990     10957     10983     10987     10991
     10959     10957     10983     10985     10959     10957     10983     10986
     10959     10957     10983     10987     10960     10957     10983     10985
     10960     10957     10983     10986     10960     10957     10983     10987
     10965     10969     10971     10973     10965     10969     10971     10975
     10967     10965     10969     10971     10968     10965     10969     10971
     10969     10971     10975     10977     10969     10971     10975     10978
     10969     10971     10975     11046     10971     10975     11046     11048
     10971     10975     11046     11049     10971     10975     11046     11050
     10973     10971     10975     10977     10973     10971     10975     10978
     10973     10971     10975     11046     10975     11046     11050     11052
     10975     11046     11050     11053     10975     11046     11050     11054
     10977     10975     11046     11048     10977     10975     11046     11049
     10977     10975     11046     11050     10978     10975     11046     11048
     10978     10975     11046     11049     10978     10975     11046     11050
     10983     10987     10991     10993     10983     10987     10991     10994
     10983     10987     10991     10995     10985     10983     10987     10989
     10985     10983     10987     10990     10985     10983     10987     10991
     10986     10983     10987     10989     10986     10983     10987     10990
     10986     10983     10987     10991     10987     10991     10995     10997
     10987     10991     10995     10998     10987     10991     10995     10999
     10989     10987     10991     10993     10989     10987     10991     10994
     10989     10987     10991     10995     10990     10987     10991     10993
     10990     10987     10991     10994     10990     10987     10991     10995
     10991     10995     10999     11001     10991     10995     10999     11002
     10991     10995     10999     11003     10993     10991     10995     10997
     10993     10991     10995     10998     10993     10991     10995     10999
     10994     10991     10995     10997     10994     10991     10995     10998
     10994     10991     10995     10999     10995     10999     11003     11005
     10995     10999     11003     11006     10995     10999     11003     11007
     10997     10995     10999     11001     10997     10995     10999     11002
     10997     10995     10999     11003     10998     10995     10999     11001
     10998     10995     10999     11002     10998     10995     10999     11003
     10999     11003     11007     11009     10999     11003     11007     11010
     11001     10999     11003     11005     11001     10999     11003     11006
     11001     10999     11003     11007     11002     10999     11003     11005
     11002     10999     11003     11006     11002     10999     11003     11007
     11003     11007     11010     11012     11003     11007     11010     11013
     11005     11003     11007     11009     11005     11003     11007     11010
     11006     11003     11007     11009     11006     11003     11007     11010
     11007     11010     11013     11015     11007     11010     11013     11016
     11007     11010     11013     11017     11009     11007     11010     11012
     11009     11007     11010     11013     11010     11013     11017     11019
     11010     11013     11017     11020     11010     11013     11017     11021
     11012     11010     11013     11015     11012     11010     11013     11016
     11012     11010     11013     11017     11013     11017     11021     11023
     11013     11017     11021     11024     11013     11017     11021     11025
     11015     11013     11017     11019     11015     11013     11017     11020
     11015     11013     11017     11021     11016     11013     11017     11019
     11016     11013     11017     11020     11016     11013     11017     11021
     11017     11021     11025     11027     11017     11021     11025     11028
     11017     11021     11025     11029     11019     11017     11021     11023
     11019     11017     11021     11024     11019     11017     11021     11025
     11020     11017     11021     11023     11020     11017     11021     11024
     11020     11017     11021     11025     11021     11025     11029     11031
     11021     11025     11029     11032     11021     11025     11029     11033
     11023     11021     11025     11027     11023     11021     11025     11028
     11023     11021     11025     11029     11024     11021     11025     11027
     11024     11021     11025     11028     11024     11021     11025     11029
     11025     11029     11033     11035     11025     11029     11033     11036
     11025     11029     11033     11037     11027     11025     11029     11031
     11027     11025     11029     11032     11027     11025     11029     11033
     11028     11025     11029     11031     11028     11025     11029     11032
     11028     11025     11029     11033     11029     11033     11037     11039
     11029     11033     11037     11040     11029     11033     11037     11041
     11031     11029     11033     11035     11031     11029     11033     11036
     11031     11029     11033     11037     11032     11029     11033     11035
     11032     11029     11033     11036     11032     11029     11033     11037
     11033     11037     11041     11043     11033     11037     11041     11044
     11033     11037     11041     11045     11035     11033     11037     11039
     11035     11033     11037     11040     11035     11033     11037     11041
     11036     11033     11037     11039     11036     11033     11037     11040
     11036     11033     11037     11041     11039     11037     11041     11043
     11039     11037     11041     11044     11039     11037     11041     11045
     11040     11037     11041     11043     11040     11037     11041     11044
     11040     11037     11041     11045     11046     11050     11054     11056
     11046     11050     11054     11057     11046     11050     11054     11058
     11048     11046     11050     11052     11048     11046     11050     11053
     11048     11046     11050     11054     11049     11046     11050     11052
     11049     11046     11050     11053     11049     11046     11050     11054
     11050     11054     11058     11060     11050     11054     11058     11061
     11050     11054     11058     11062     11052     11050     11054     11056
     11052     11050     11054     11057     11052     11050     11054     11058
     11053     11050     11054     11056     11053     11050     11054     11057
     11053     11050     11054     11058     11054     11058     11062     11064
     11054     11058     11062     11065     11054     11058     11062     11066
     11056     11054     11058     11060     11056     11054     11058     11061
     11056     11054     11058     11062     11057     11054     11058     11060
     11057     11054     11058     11061     11057     11054     11058     11062
     11058     11062     11066     11068     11058     11062     11066     11069
     11058     11062     11066     11070     11060     11058     11062     11064
     11060     11058     11062     11065     11060     11058     11062     11066
     11061     11058     11062     11064     11061     11058     11062     11065
     11061     11058     11062     11066     11062     11066     11070     11072
     11062     11066     11070     11073     11062     11066     11070     11074
     11064     11062     11066     11068     11064     11062     11066     11069
     11064     11062     11066     11070     11065     11062     11066     11068
     11065     11062     11066     11069     11065     11062     11066     11070
     11066     11070     11074     11076     11066     11070     11074     11077
     11066     11070     11074     11078     11068     11066     11070     11072
     11068     11066     11070     11073     11068     11066     11070     11074
     11069     11066     11070     11072     11069     11066     11070     11073
     11069     11066     11070     11074     11070     11074     11078     11080
     11070     11074     11078     11081     11070     11074     11078     11082
     11072     11070     11074     11076     11072     11070     11074     11077
     11072     11070     11074     11078     11073     11070     11074     11076
     11073     11070     11074     11077     11073     11070     11074     11078
     11074     11078     11082     11084     11074     11078     11082     11085
     11074     11078     11082     11086     11076     11074     11078     11080
     11076     11074     11078     11081     11076     11074     11078     11082
     11077     11074     11078     11080     11077     11074     11078     11081
     11077     11074     11078     11082     11078     11082     11086     11088
     11078     11082     11086     11089     11078     11082     11086     11090
     11080     11078     11082     11084     11080     11078     11082     11085
     11080     11078     11082     11086     11081     11078     11082     11084
     11081     11078     11082     11085     11081     11078     11082     11086
     11082     11086     11090     11092     11082     11086     11090     11093
     11082     11086     11090     11094     11084     11082     11086     11088
     11084     11082     11086     11089     11084     11082     11086     11090
     11085     11082     11086     11088     11085     11082     11086     11089
     11085     11082     11086     11090     11086     11090     11094     11096
     11086     11090     11094     11097     11086     11090     11094     11098
     11088     11086     11090     11092     11088     11086     11090     11093
     11088     11086     11090     11094     11089     11086     11090     11092
     11089     11086     11090     11093     11089     11086     11090     11094
     11090     11094     11098     11100     11090     11094     11098     11101
     11090     11094     11098     11102     11092     11090     11094     11096
     11092     11090     11094     11097     11092     11090     11094     11098
     11093     11090     11094     11096     11093     11090     11094     11097
     11093     11090     11094     11098     11096     11094     11098     11100
     11096     11094     11098     11101     11096     11094     11098     11102
     11097     11094     11098     11100     11097     11094     11098     11101
     11097     11094     11098     11102     11103     11108     11112     11114
     11103     11108     11112     11115     11103     11108     11112     11124
     11105     11103     11108     11110     11105     11103     11108     11111
     11105     11103     11108     11112     11106     11103     11108     11110
     11106     11103     11108     11111     11106     11103     11108     11112
     11107     11103     11108     11110     11107     11103     11108     11111
     11107     11103     11108     11112     11108     11112     11124     11116
     11110     11108     11112     11114     11110     11108     11112     11115
     11110     11108     11112     11124     11111     11108     11112     11114
     11111     11108     11112     11115     11111     11108     11112     11124
     11112     11124     11116     11118     11112     11124     11116     11120
     11112     11124     11116     11122     11114     11112     11124     11116
     11115     11112     11124     11116     11116     11122     11126     11128
     11116     11122     11126     11129     11116     11122     11126     11130
     11118     11116     11122     11126     11120     11116     11122     11126
     11122     11126     11130     11132     11122     11126     11130     11133
     11122     11126     11130     11147     11124     11116     11122     11126
     11126     11130     11133     11135     11126     11130     11147     11149
     11126     11130     11147     11150     11126     11130     11147     11151
     11128     11126     11130     11132     11128     11126     11130     11133
     11128     11126     11130     11147     11129     11126     11130     11132
     11129     11126     11130     11133     11129     11126     11130     11147
     11130     11133     11135     11137     11130     11133     11135     11139
     11130     11147     11151     11153     11132     11130     11133     11135
     11132     11130     11147     11149     11132     11130     11147     11150
     11132     11130     11147     11151     11133     11130     11147     11149
     11133     11130     11147     11150     11133     11130     11147     11151
     11133     11135     11139     11141     11133     11135     11139     11142
     11133     11135     11139     11165     11135     11133     11130     11147
     11135     11139     11165     11167     11135     11139     11165     11168
     11135     11139     11165     11169     11137     11135     11139     11141
     11137     11135     11139     11142     11137     11135     11139     11165
     11139     11165     11169     11171     11139     11165     11169     11172
     11139     11165     11169     11173     11141     11139     11165     11167
     11141     11139     11165     11168     11141     11139     11165     11169
     11142     11139     11165     11167     11142     11139     11165     11168
     11142     11139     11165     11169     11147     11151     11153     11155
     11147     11151     11153     11157     11149     11147     11151     11153
     11150     11147     11151     11153     11151     11153     11157     11159
     11151     11153     11157     11160     11151     11153     11157     11228
     11153     11157     11228     11230     11153     11157     11228     11231
     11153     11157     11228     11232     11155     11153     11157     11159
     11155     11153     11157     11160     11155     11153     11157     11228
     11157     11228     11232     11234     11157     11228     11232     11235
     11157     11228     11232     11236     11159     11157     11228     11230
     11159     11157     11228     11231     11159     11157     11228     11232
     11160     11157     11228     11230     11160     11157     11228     11231
     11160     11157     11228     11232     11165     11169     11173     11175
     11165     11169     11173     11176     11165     11169     11173     11177
     11167     11165     11169     11171     11167     11165     11169     11172
     11167     11165     11169     11173     11168     11165     11169     11171
     11168     11165     11169     11172     11168     11165     11169     11173
     11169     11173     11177     11179     11169     11173     11177     11180
     11169     11173     11177     11181     11171     11169     11173     11175
     11171     11169     11173     11176     11171     11169     11173     11177
     11172     11169     11173     11175     11172     11169     11173     11176
     11172     11169     11173     11177     11173     11177     11181     11183
     11173     11177     11181     11184     11173     11177     11181     11185
     11175     11173     11177     11179     11175     11173     11177     11180
     11175     11173     11177     11181     11176     11173     11177     11179
     11176     11173     11177     11180     11176     11173     11177     11181
     11177     11181     11185     11187     11177     11181     11185     11188
     11177     11181     11185     11189     11179     11177     11181     11183
     11179     11177     11181     11184     11179     11177     11181     11185
     11180     11177     11181     11183     11180     11177     11181     11184
     11180     11177     11181     11185     11181     11185     11189     11191
     11181     11185     11189     11192     11183     11181     11185     11187
     11183     11181     11185     11188     11183     11181     11185     11189
     11184     11181     11185     11187     11184     11181     11185     11188
     11184     11181     11185     11189     11185     11189     11192     11194
     11185     11189     11192     11195     11187     11185     11189     11191
     11187     11185     11189     11192     11188     11185     11189     11191
     11188     11185     11189     11192     11189     11192     11195     11197
     11189     11192     11195     11198     11189     11192     11195     11199
     11191     11189     11192     11194     11191     11189     11192     11195
     11192     11195     11199     11201     11192     11195     11199     11202
     11192     11195     11199     11203     11194     11192     11195     11197
     11194     11192     11195     11198     11194     11192     11195     11199
     11195     11199     11203     11205     11195     11199     11203     11206
     11195     11199     11203     11207     11197     11195     11199     11201
     11197     11195     11199     11202     11197     11195     11199     11203
     11198     11195     11199     11201     11198     11195     11199     11202
     11198     11195     11199     11203     11199     11203     11207     11209
     11199     11203     11207     11210     11199     11203     11207     11211
     11201     11199     11203     11205     11201     11199     11203     11206
     11201     11199     11203     11207     11202     11199     11203     11205
     11202     11199     11203     11206     11202     11199     11203     11207
     11203     11207     11211     11213     11203     11207     11211     11214
     11203     11207     11211     11215     11205     11203     11207     11209
     11205     11203     11207     11210     11205     11203     11207     11211
     11206     11203     11207     11209     11206     11203     11207     11210
     11206     11203     11207     11211     11207     11211     11215     11217
     11207     11211     11215     11218     11207     11211     11215     11219
     11209     11207     11211     11213     11209     11207     11211     11214
     11209     11207     11211     11215     11210     11207     11211     11213
     11210     11207     11211     11214     11210     11207     11211     11215
     11211     11215     11219     11221     11211     11215     11219     11222
     11211     11215     11219     11223     11213     11211     11215     11217
     11213     11211     11215     11218     11213     11211     11215     11219
     11214     11211     11215     11217     11214     11211     11215     11218
     11214     11211     11215     11219     11215     11219     11223     11225
     11215     11219     11223     11226     11215     11219     11223     11227
     11217     11215     11219     11221     11217     11215     11219     11222
     11217     11215     11219     11223     11218     11215     11219     11221
     11218     11215     11219     11222     11218     11215     11219     11223
     11221     11219     11223     11225     11221     11219     11223     11226
     11221     11219     11223     11227     11222     11219     11223     11225
     11222     11219     11223     11226     11222     11219     11223     11227
     11228     11232     11236     11238     11228     11232     11236     11239
     11228     11232     11236     11240     11230     11228     11232     11234
     11230     11228     11232     11235     11230     11228     11232     11236
     11231     11228     11232     11234     11231     11228     11232     11235
     11231     11228     11232     11236     11232     11236     11240     11242
     11232     11236     11240     11243     11232     11236     11240     11244
     11234     11232     11236     11238     11234     11232     11236     11239
     11234     11232     11236     11240     11235     11232     11236     11238
     11235     11232     11236     11239     11235     11232     11236     11240
     11236     11240     11244     11246     11236     11240     11244     11247
     11236     11240     11244     11248     11238     11236     11240     11242
     11238     11236     11240     11243     11238     11236     11240     11244
     11239     11236     11240     11242     11239     11236     11240     11243
     11239     11236     11240     11244     11240     11244     11248     11250
     11240     11244     11248     11251     11240     11244     11248     11252
     11242     11240     11244     11246     11242     11240     11244     11247
     11242     11240     11244     11248     11243     11240     11244     11246
     11243     11240     11244     11247     11243     11240     11244     11248
     11244     11248     11252     11254     11244     11248     11252     11255
     11244     11248     11252     11256     11246     11244     11248     11250
     11246     11244     11248     11251     11246     11244     11248     11252
     11247     11244     11248     11250     11247     11244     11248     11251
     11247     11244     11248     11252     11248     11252     11256     11258
     11248     11252     11256     11259     11248     11252     11256     11260
     11250     11248     11252     11254     11250     11248     11252     11255
     11250     11248     11252     11256     11251     11248     11252     11254
     11251     11248     11252     11255     11251     11248     11252     11256
     11252     11256     11260     11262     11252     11256     11260     11263
     11252     11256     11260     11264     11254     11252     11256     11258
     11254     11252     11256     11259     11254     11252     11256     11260
     11255     11252     11256     11258     11255     11252     11256     11259
     11255     11252     11256     11260     11256     11260     11264     11266
     11256     11260     11264     11267     11256     11260     11264     11268
     11258     11256     11260     11262     11258     11256     11260     11263
     11258     11256     11260     11264     11259     11256     11260     11262
     11259     11256     11260     11263     11259     11256     11260     11264
     11260     11264     11268     11270     11260     11264     11268     11271
     11260     11264     11268     11272     11262     11260     11264     11266
     11262     11260     11264     11267     11262     11260     11264     11268
     11263     11260     11264     11266     11263     11260     11264     11267
     11263     11260     11264     11268     11264     11268     11272     11274
     11264     11268     11272     11275     11264     11268     11272     11276
     11266     11264     11268     11270     11266     11264     11268     11271
     11266     11264     11268     11272     11267     11264     11268     11270
     11267     11264     11268     11271     11267     11264     11268     11272
     11268     11272     11276     11278     11268     11272     11276     11279
     11268     11272     11276     11280     11270     11268     11272     11274
     11270     11268     11272     11275     11270     11268     11272     11276
     11271     11268     11272     11274     11271     11268     11272     11275
     11271     11268     11272     11276     11272     11276     11280     11282
     11272     11276     11280     11283     11272     11276     11280     11284
     11274     11272     11276     11278     11274     11272     11276     11279
     11274     11272     11276     11280     11275     11272     11276     11278
     11275     11272     11276     11279     11275     11272     11276     11280
     11278     11276     11280     11282     11278     11276     11280     11283
     11278     11276     11280     11284     11279     11276     11280     11282
     11279     11276     11280     11283     11279     11276     11280     11284
     11285     11290     11294     11296     11285     11290     11294     11297
     11285     11290     11294     11306     11287     11285     11290     11292
     11287     11285     11290     11293     11287     11285     11290     11294
     11288     11285     11290     11292     11288     11285     11290     11293
     11288     11285     11290     11294     11289     11285     11290     11292
     11289     11285     11290     11293     11289     11285     11290     11294
     11290     11294     11306     11298     11292     11290     11294     11296
     11292     11290     11294     11297     11292     11290     11294     11306
     11293     11290     11294     11296     11293     11290     11294     11297
     11293     11290     11294     11306     11294     11306     11298     11300
     11294     11306     11298     11302     11294     11306     11298     11304
     11296     11294     11306     11298     11297     11294     11306     11298
     11298     11304     11308     11310     11298     11304     11308     11311
     11298     11304     11308     11312     11300     11298     11304     11308
     11302     11298     11304     11308     11304     11308     11312     11314
     11304     11308     11312     11315     11304     11308     11312     11329
     11306     11298     11304     11308     11308     11312     11315     11317
     11308     11312     11329     11331     11308     11312     11329     11332
     11308     11312     11329     11333     11310     11308     11312     11314
     11310     11308     11312     11315     11310     11308     11312     11329
     11311     11308     11312     11314     11311     11308     11312     11315
     11311     11308     11312     11329     11312     11315     11317     11319
     11312     11315     11317     11321     11312     11329     11333     11335
     11314     11312     11315     11317     11314     11312     11329     11331
     11314     11312     11329     11332     11314     11312     11329     11333
     11315     11312     11329     11331     11315     11312     11329     11332
     11315     11312     11329     11333     11315     11317     11321     11323
     11315     11317     11321     11324     11315     11317     11321     11347
     11317     11315     11312     11329     11317     11321     11347     11349
     11317     11321     11347     11350     11317     11321     11347     11351
     11319     11317     11321     11323     11319     11317     11321     11324
     11319     11317     11321     11347     11321     11347     11351     11353
     11321     11347     11351     11354     11321     11347     11351     11355
     11323     11321     11347     11349     11323     11321     11347     11350
     11323     11321     11347     11351     11324     11321     11347     11349
     11324     11321     11347     11350     11324     11321     11347     11351
     11329     11333     11335     11337     11329     11333     11335     11339
     11331     11329     11333     11335     11332     11329     11333     11335
     11333     11335     11339     11341     11333     11335     11339     11342
     11333     11335     11339     11410     11335     11339     11410     11412
     11335     11339     11410     11413     11335     11339     11410     11414
     11337     11335     11339     11341     11337     11335     11339     11342
     11337     11335     11339     11410     11339     11410     11414     11416
     11339     11410     11414     11417     11339     11410     11414     11418
     11341     11339     11410     11412     11341     11339     11410     11413
     11341     11339     11410     11414     11342     11339     11410     11412
     11342     11339     11410     11413     11342     11339     11410     11414
     11347     11351     11355     11357     11347     11351     11355     11358
     11347     11351     11355     11359     11349     11347     11351     11353
     11349     11347     11351     11354     11349     11347     11351     11355
     11350     11347     11351     11353     11350     11347     11351     11354
     11350     11347     11351     11355     11351     11355     11359     11361
     11351     11355     11359     11362     11351     11355     11359     11363
     11353     11351     11355     11357     11353     11351     11355     11358
     11353     11351     11355     11359     11354     11351     11355     11357
     11354     11351     11355     11358     11354     11351     11355     11359
     11355     11359     11363     11365     11355     11359     11363     11366
     11355     11359     11363     11367     11357     11355     11359     11361
     11357     11355     11359     11362     11357     11355     11359     11363
     11358     11355     11359     11361     11358     11355     11359     11362
     11358     11355     11359     11363     11359     11363     11367     11369
     11359     11363     11367     11370     11359     11363     11367     11371
     11361     11359     11363     11365     11361     11359     11363     11366
     11361     11359     11363     11367     11362     11359     11363     11365
     11362     11359     11363     11366     11362     11359     11363     11367
     11363     11367     11371     11373     11363     11367     11371     11374
     11365     11363     11367     11369     11365     11363     11367     11370
     11365     11363     11367     11371     11366     11363     11367     11369
     11366     11363     11367     11370     11366     11363     11367     11371
     11367     11371     11374     11376     11367     11371     11374     11377
     11369     11367     11371     11373     11369     11367     11371     11374
     11370     11367     11371     11373     11370     11367     11371     11374
     11371     11374     11377     11379     11371     11374     11377     11380
     11371     11374     11377     11381     11373     11371     11374     11376
     11373     11371     11374     11377     11374     11377     11381     11383
     11374     11377     11381     11384     11374     11377     11381     11385
     11376     11374     11377     11379     11376     11374     11377     11380
     11376     11374     11377     11381     11377     11381     11385     11387
     11377     11381     11385     11388     11377     11381     11385     11389
     11379     11377     11381     11383     11379     11377     11381     11384
     11379     11377     11381     11385     11380     11377     11381     11383
     11380     11377     11381     11384     11380     11377     11381     11385
     11381     11385     11389     11391     11381     11385     11389     11392
     11381     11385     11389     11393     11383     11381     11385     11387
     11383     11381     11385     11388     11383     11381     11385     11389
     11384     11381     11385     11387     11384     11381     11385     11388
     11384     11381     11385     11389     11385     11389     11393     11395
     11385     11389     11393     11396     11385     11389     11393     11397
     11387     11385     11389     11391     11387     11385     11389     11392
     11387     11385     11389     11393     11388     11385     11389     11391
     11388     11385     11389     11392     11388     11385     11389     11393
     11389     11393     11397     11399     11389     11393     11397     11400
     11389     11393     11397     11401     11391     11389     11393     11395
     11391     11389     11393     11396     11391     11389     11393     11397
     11392     11389     11393     11395     11392     11389     11393     11396
     11392     11389     11393     11397     11393     11397     11401     11403
     11393     11397     11401     11404     11393     11397     11401     11405
     11395     11393     11397     11399     11395     11393     11397     11400
     11395     11393     11397     11401     11396     11393     11397     11399
     11396     11393     11397     11400     11396     11393     11397     11401
     11397     11401     11405     11407     11397     11401     11405     11408
     11397     11401     11405     11409     11399     11397     11401     11403
     11399     11397     11401     11404     11399     11397     11401     11405
     11400     11397     11401     11403     11400     11397     11401     11404
     11400     11397     11401     11405     11403     11401     11405     11407
     11403     11401     11405     11408     11403     11401     11405     11409
     11404     11401     11405     11407     11404     11401     11405     11408
     11404     11401     11405     11409     11410     11414     11418     11420
     11410     11414     11418     11421     11410     11414     11418     11422
     11412     11410     11414     11416     11412     11410     11414     11417
     11412     11410     11414     11418     11413     11410     11414     11416
     11413     11410     11414     11417     11413     11410     11414     11418
     11414     11418     11422     11424     11414     11418     11422     11425
     11414     11418     11422     11426     11416     11414     11418     11420
     11416     11414     11418     11421     11416     11414     11418     11422
     11417     11414     11418     11420     11417     11414     11418     11421
     11417     11414     11418     11422     11418     11422     11426     11428
     11418     11422     11426     11429     11418     11422     11426     11430
     11420     11418     11422     11424     11420     11418     11422     11425
     11420     11418     11422     11426     11421     11418     11422     11424
     11421     11418     11422     11425     11421     11418     11422     11426
     11422     11426     11430     11432     11422     11426     11430     11433
     11422     11426     11430     11434     11424     11422     11426     11428
     11424     11422     11426     11429     11424     11422     11426     11430
     11425     11422     11426     11428     11425     11422     11426     11429
     11425     11422     11426     11430     11426     11430     11434     11436
     11426     11430     11434     11437     11426     11430     11434     11438
     11428     11426     11430     11432     11428     11426     11430     11433
     11428     11426     11430     11434     11429     11426     11430     11432
     11429     11426     11430     11433     11429     11426     11430     11434
     11430     11434     11438     11440     11430     11434     11438     11441
     11430     11434     11438     11442     11432     11430     11434     11436
     11432     11430     11434     11437     11432     11430     11434     11438
     11433     11430     11434     11436     11433     11430     11434     11437
     11433     11430     11434     11438     11434     11438     11442     11444
     11434     11438     11442     11445     11434     11438     11442     11446
     11436     11434     11438     11440     11436     11434     11438     11441
     11436     11434     11438     11442     11437     11434     11438     11440
     11437     11434     11438     11441     11437     11434     11438     11442
     11438     11442     11446     11448     11438     11442     11446     11449
     11438     11442     11446     11450     11440     11438     11442     11444
     11440     11438     11442     11445     11440     11438     11442     11446
     11441     11438     11442     11444     11441     11438     11442     11445
     11441     11438     11442     11446     11442     11446     11450     11452
     11442     11446     11450     11453     11442     11446     11450     11454
     11444     11442     11446     11448     11444     11442     11446     11449
     11444     11442     11446     11450     11445     11442     11446     11448
     11445     11442     11446     11449     11445     11442     11446     11450
     11446     11450     11454     11456     11446     11450     11454     11457
     11446     11450     11454     11458     11448     11446     11450     11452
     11448     11446     11450     11453     11448     11446     11450     11454
     11449     11446     11450     11452     11449     11446     11450     11453
     11449     11446     11450     11454     11450     11454     11458     11460
     11450     11454     11458     11461     11450     11454     11458     11462
     11452     11450     11454     11456     11452     11450     11454     11457
     11452     11450     11454     11458     11453     11450     11454     11456
     11453     11450     11454     11457     11453     11450     11454     11458
     11454     11458     11462     11464     11454     11458     11462     11465
     11454     11458     11462     11466     11456     11454     11458     11460
     11456     11454     11458     11461     11456     11454     11458     11462
     11457     11454     11458     11460     11457     11454     11458     11461
     11457     11454     11458     11462     11460     11458     11462     11464
     11460     11458     11462     11465     11460     11458     11462     11466
     11461     11458     11462     11464     11461     11458     11462     11465
     11461     11458     11462     11466     11467     11472     11476     11478
     11467     11472     11476     11479     11467     11472     11476     11488
     11469     11467     11472     11474     11469     11467     11472     11475
     11469     11467     11472     11476     11470     11467     11472     11474
     11470     11467     11472     11475     11470     11467     11472     11476
     11471     11467     11472     11474     11471     11467     11472     11475
     11471     11467     11472     11476     11472     11476     11488     11480
     11474     11472     11476     11478     11474     11472     11476     11479
     11474     11472     11476     11488     11475     11472     11476     11478
     11475     11472     11476     11479     11475     11472     11476     11488
     11476     11488     11480     11482     11476     11488     11480     11484
     11476     11488     11480     11486     11478     11476     11488     11480
     11479     11476     11488     11480     11480     11486     11490     11492
     11480     11486     11490     11493     11480     11486     11490     11494
     11482     11480     11486     11490     11484     11480     11486     11490
     11486     11490     11494     11496     11486     11490     11494     11497
     11486     11490     11494     11511     11488     11480     11486     11490
     11490     11494     11497     11499     11490     11494     11511     11513
     11490     11494     11511     11514     11490     11494     11511     11515
     11492     11490     11494     11496     11492     11490     11494     11497
     11492     11490     11494     11511     11493     11490     11494     11496
     11493     11490     11494     11497     11493     11490     11494     11511
     11494     11497     11499     11501     11494     11497     11499     11503
     11494     11511     11515     11517     11496     11494     11497     11499
     11496     11494     11511     11513     11496     11494     11511     11514
     11496     11494     11511     11515     11497     11494     11511     11513
     11497     11494     11511     11514     11497     11494     11511     11515
     11497     11499     11503     11505     11497     11499     11503     11506
     11497     11499     11503     11529     11499     11497     11494     11511
     11499     11503     11529     11531     11499     11503     11529     11532
     11499     11503     11529     11533     11501     11499     11503     11505
     11501     11499     11503     11506     11501     11499     11503     11529
     11503     11529     11533     11535     11503     11529     11533     11536
     11503     11529     11533     11537     11505     11503     11529     11531
     11505     11503     11529     11532     11505     11503     11529     11533
     11506     11503     11529     11531     11506     11503     11529     11532
     11506     11503     11529     11533     11511     11515     11517     11519
     11511     11515     11517     11521     11513     11511     11515     11517
     11514     11511     11515     11517     11515     11517     11521     11523
     11515     11517     11521     11524     11515     11517     11521     11592
     11517     11521     11592     11594     11517     11521     11592     11595
     11517     11521     11592     11596     11519     11517     11521     11523
     11519     11517     11521     11524     11519     11517     11521     11592
     11521     11592     11596     11598     11521     11592     11596     11599
     11521     11592     11596     11600     11523     11521     11592     11594
     11523     11521     11592     11595     11523     11521     11592     11596
     11524     11521     11592     11594     11524     11521     11592     11595
     11524     11521     11592     11596     11529     11533     11537     11539
     11529     11533     11537     11540     11529     11533     11537     11541
     11531     11529     11533     11535     11531     11529     11533     11536
     11531     11529     11533     11537     11532     11529     11533     11535
     11532     11529     11533     11536     11532     11529     11533     11537
     11533     11537     11541     11543     11533     11537     11541     11544
     11533     11537     11541     11545     11535     11533     11537     11539
     11535     11533     11537     11540     11535     11533     11537     11541
     11536     11533     11537     11539     11536     11533     11537     11540
     11536     11533     11537     11541     11537     11541     11545     11547
     11537     11541     11545     11548     11537     11541     11545     11549
     11539     11537     11541     11543     11539     11537     11541     11544
     11539     11537     11541     11545     11540     11537     11541     11543
     11540     11537     11541     11544     11540     11537     11541     11545
     11541     11545     11549     11551     11541     11545     11549     11552
     11541     11545     11549     11553     11543     11541     11545     11547
     11543     11541     11545     11548     11543     11541     11545     11549
     11544     11541     11545     11547     11544     11541     11545     11548
     11544     11541     11545     11549     11545     11549     11553     11555
     11545     11549     11553     11556     11547     11545     11549     11551
     11547     11545     11549     11552     11547     11545     11549     11553
     11548     11545     11549     11551     11548     11545     11549     11552
     11548     11545     11549     11553     11549     11553     11556     11558
     11549     11553     11556     11559     11551     11549     11553     11555
     11551     11549     11553     11556     11552     11549     11553     11555
     11552     11549     11553     11556     11553     11556     11559     11561
     11553     11556     11559     11562     11553     11556     11559     11563
     11555     11553     11556     11558     11555     11553     11556     11559
     11556     11559     11563     11565     11556     11559     11563     11566
     11556     11559     11563     11567     11558     11556     11559     11561
     11558     11556     11559     11562     11558     11556     11559     11563
     11559     11563     11567     11569     11559     11563     11567     11570
     11559     11563     11567     11571     11561     11559     11563     11565
     11561     11559     11563     11566     11561     11559     11563     11567
     11562     11559     11563     11565     11562     11559     11563     11566
     11562     11559     11563     11567     11563     11567     11571     11573
     11563     11567     11571     11574     11563     11567     11571     11575
     11565     11563     11567     11569     11565     11563     11567     11570
     11565     11563     11567     11571     11566     11563     11567     11569
     11566     11563     11567     11570     11566     11563     11567     11571
     11567     11571     11575     11577     11567     11571     11575     11578
     11567     11571     11575     11579     11569     11567     11571     11573
     11569     11567     11571     11574     11569     11567     11571     11575
     11570     11567     11571     11573     11570     11567     11571     11574
     11570     11567     11571     11575     11571     11575     11579     11581
     11571     11575     11579     11582     11571     11575     11579     11583
     11573     11571     11575     11577     11573     11571     11575     11578
     11573     11571     11575     11579     11574     11571     11575     11577
     11574     11571     11575     11578     11574     11571     11575     11579
     11575     11579     11583     11585     11575     11579     11583     11586
     11575     11579     11583     11587     11577     11575     11579     11581
     11577     11575     11579     11582     11577     11575     11579     11583
     11578     11575     11579     11581     11578     11575     11579     11582
     11578     11575     11579     11583     11579     11583     11587     11589
     11579     11583     11587     11590     11579     11583     11587     11591
     11581     11579     11583     11585     11581     11579     11583     11586
     11581     11579     11583     11587     11582     11579     11583     11585
     11582     11579     11583     11586     11582     11579     11583     11587
     11585     11583     11587     11589     11585     11583     11587     11590
     11585     11583     11587     11591     11586     11583     11587     11589
     11586     11583     11587     11590     11586     11583     11587     11591
     11592     11596     11600     11602     11592     11596     11600     11603
     11592     11596     11600     11604     11594     11592     11596     11598
     11594     11592     11596     11599     11594     11592     11596     11600
     11595     11592     11596     11598     11595     11592     11596     11599
     11595     11592     11596     11600     11596     11600     11604     11606
     11596     11600     11604     11607     11596     11600     11604     11608
     11598     11596     11600     11602     11598     11596     11600     11603
     11598     11596     11600     11604     11599     11596     11600     11602
     11599     11596     11600     11603     11599     11596     11600     11604
     11600     11604     11608     11610     11600     11604     11608     11611
     11600     11604     11608     11612     11602     11600     11604     11606
     11602     11600     11604     11607     11602     11600     11604     11608
     11603     11600     11604     11606     11603     11600     11604     11607
     11603     11600     11604     11608     11604     11608     11612     11614
     11604     11608     11612     11615     11604     11608     11612     11616
     11606     11604     11608     11610     11606     11604     11608     11611
     11606     11604     11608     11612     11607     11604     11608     11610
     11607     11604     11608     11611     11607     11604     11608     11612
     11608     11612     11616     11618     11608     11612     11616     11619
     11608     11612     11616     11620     11610     11608     11612     11614
     11610     11608     11612     11615     11610     11608     11612     11616
     11611     11608     11612     11614     11611     11608     11612     11615
     11611     11608     11612     11616     11612     11616     11620     11622
     11612     11616     11620     11623     11612     11616     11620     11624
     11614     11612     11616     11618     11614     11612     11616     11619
     11614     11612     11616     11620     11615     11612     11616     11618
     11615     11612     11616     11619     11615     11612     11616     11620
     11616     11620     11624     11626     11616     11620     11624     11627
     11616     11620     11624     11628     11618     11616     11620     11622
     11618     11616     11620     11623     11618     11616     11620     11624
     11619     11616     11620     11622     11619     11616     11620     11623
     11619     11616     11620     11624     11620     11624     11628     11630
     11620     11624     11628     11631     11620     11624     11628     11632
     11622     11620     11624     11626     11622     11620     11624     11627
     11622     11620     11624     11628     11623     11620     11624     11626
     11623     11620     11624     11627     11623     11620     11624     11628
     11624     11628     11632     11634     11624     11628     11632     11635
     11624     11628     11632     11636     11626     11624     11628     11630
     11626     11624     11628     11631     11626     11624     11628     11632
     11627     11624     11628     11630     11627     11624     11628     11631
     11627     11624     11628     11632     11628     11632     11636     11638
     11628     11632     11636     11639     11628     11632     11636     11640
     11630     11628     11632     11634     11630     11628     11632     11635
     11630     11628     11632     11636     11631     11628     11632     11634
     11631     11628     11632     11635     11631     11628     11632     11636
     11632     11636     11640     11642     11632     11636     11640     11643
     11632     11636     11640     11644     11634     11632     11636     11638
     11634     11632     11636     11639     11634     11632     11636     11640
     11635     11632     11636     11638     11635     11632     11636     11639
     11635     11632     11636     11640     11636     11640     11644     11646
     11636     11640     11644     11647     11636     11640     11644     11648
     11638     11636     11640     11642     11638     11636     11640     11643
     11638     11636     11640     11644     11639     11636     11640     11642
     11639     11636     11640     11643     11639     11636     11640     11644
     11642     11640     11644     11646     11642     11640     11644     11647
     11642     11640     11644     11648     11643     11640     11644     11646
     11643     11640     11644     11647     11643     11640     11644     11648
     11649     11654     11658     11660     11649     11654     11658     11661
     11649     11654     11658     11670     11651     11649     11654     11656
     11651     11649     11654     11657     11651     11649     11654     11658
     11652     11649     11654     11656     11652     11649     11654     11657
     11652     11649     11654     11658     11653     11649     11654     11656
     11653     11649     11654     11657     11653     11649     11654     11658
     11654     11658     11670     11662     11656     11654     11658     11660
     11656     11654     11658     11661     11656     11654     11658     11670
     11657     11654     11658     11660     11657     11654     11658     11661
     11657     11654     11658     11670     11658     11670     11662     11664
     11658     11670     11662     11666     11658     11670     11662     11668
     11660     11658     11670     11662     11661     11658     11670     11662
     11662     11668     11672     11674     11662     11668     11672     11675
     11662     11668     11672     11676     11664     11662     11668     11672
     11666     11662     11668     11672     11668     11672     11676     11678
     11668     11672     11676     11679     11668     11672     11676     11693
     11670     11662     11668     11672     11672     11676     11679     11681
     11672     11676     11693     11695     11672     11676     11693     11696
     11672     11676     11693     11697     11674     11672     11676     11678
     11674     11672     11676     11679     11674     11672     11676     11693
     11675     11672     11676     11678     11675     11672     11676     11679
     11675     11672     11676     11693     11676     11679     11681     11683
     11676     11679     11681     11685     11676     11693     11697     11699
     11678     11676     11679     11681     11678     11676     11693     11695
     11678     11676     11693     11696     11678     11676     11693     11697
     11679     11676     11693     11695     11679     11676     11693     11696
     11679     11676     11693     11697     11679     11681     11685     11687
     11679     11681     11685     11688     11679     11681     11685     11711
     11681     11679     11676     11693     11681     11685     11711     11713
     11681     11685     11711     11714     11681     11685     11711     11715
     11683     11681     11685     11687     11683     11681     11685     11688
     11683     11681     11685     11711     11685     11711     11715     11717
     11685     11711     11715     11718     11685     11711     11715     11719
     11687     11685     11711     11713     11687     11685     11711     11714
     11687     11685     11711     11715     11688     11685     11711     11713
     11688     11685     11711     11714     11688     11685     11711     11715
     11693     11697     11699     11701     11693     11697     11699     11703
     11695     11693     11697     11699     11696     11693     11697     11699
     11697     11699     11703     11705     11697     11699     11703     11706
     11697     11699     11703     11774     11699     11703     11774     11776
     11699     11703     11774     11777     11699     11703     11774     11778
     11701     11699     11703     11705     11701     11699     11703     11706
     11701     11699     11703     11774     11703     11774     11778     11780
     11703     11774     11778     11781     11703     11774     11778     11782
     11705     11703     11774     11776     11705     11703     11774     11777
     11705     11703     11774     11778     11706     11703     11774     11776
     11706     11703     11774     11777     11706     11703     11774     11778
     11711     11715     11719     11721     11711     11715     11719     11722
     11711     11715     11719     11723     11713     11711     11715     11717
     11713     11711     11715     11718     11713     11711     11715     11719
     11714     11711     11715     11717     11714     11711     11715     11718
     11714     11711     11715     11719     11715     11719     11723     11725
     11715     11719     11723     11726     11715     11719     11723     11727
     11717     11715     11719     11721     11717     11715     11719     11722
     11717     11715     11719     11723     11718     11715     11719     11721
     11718     11715     11719     11722     11718     11715     11719     11723
     11719     11723     11727     11729     11719     11723     11727     11730
     11719     11723     11727     11731     11721     11719     11723     11725
     11721     11719     11723     11726     11721     11719     11723     11727
     11722     11719     11723     11725     11722     11719     11723     11726
     11722     11719     11723     11727     11723     11727     11731     11733
     11723     11727     11731     11734     11723     11727     11731     11735
     11725     11723     11727     11729     11725     11723     11727     11730
     11725     11723     11727     11731     11726     11723     11727     11729
     11726     11723     11727     11730     11726     11723     11727     11731
     11727     11731     11735     11737     11727     11731     11735     11738
     11729     11727     11731     11733     11729     11727     11731     11734
     11729     11727     11731     11735     11730     11727     11731     11733
     11730     11727     11731     11734     11730     11727     11731     11735
     11731     11735     11738     11740     11731     11735     11738     11741
     11733     11731     11735     11737     11733     11731     11735     11738
     11734     11731     11735     11737     11734     11731     11735     11738
     11735     11738     11741     11743     11735     11738     11741     11744
     11735     11738     11741     11745     11737     11735     11738     11740
     11737     11735     11738     11741     11738     11741     11745     11747
     11738     11741     11745     11748     11738     11741     11745     11749
     11740     11738     11741     11743     11740     11738     11741     11744
     11740     11738     11741     11745     11741     11745     11749     11751
     11741     11745     11749     11752     11741     11745     11749     11753
     11743     11741     11745     11747     11743     11741     11745     11748
     11743     11741     11745     11749     11744     11741     11745     11747
     11744     11741     11745     11748     11744     11741     11745     11749
     11745     11749     11753     11755     11745     11749     11753     11756
     11745     11749     11753     11757     11747     11745     11749     11751
     11747     11745     11749     11752     11747     11745     11749     11753
     11748     11745     11749     11751     11748     11745     11749     11752
     11748     11745     11749     11753     11749     11753     11757     11759
     11749     11753     11757     11760     11749     11753     11757     11761
     11751     11749     11753     11755     11751     11749     11753     11756
     11751     11749     11753     11757     11752     11749     11753     11755
     11752     11749     11753     11756     11752     11749     11753     11757
     11753     11757     11761     11763     11753     11757     11761     11764
     11753     11757     11761     11765     11755     11753     11757     11759
     11755     11753     11757     11760     11755     11753     11757     11761
     11756     11753     11757     11759     11756     11753     11757     11760
     11756     11753     11757     11761     11757     11761     11765     11767
     11757     11761     11765     11768     11757     11761     11765     11769
     11759     11757     11761     11763     11759     11757     11761     11764
     11759     11757     11761     11765     11760     11757     11761     11763
     11760     11757     11761     11764     11760     11757     11761     11765
     11761     11765     11769     11771     11761     11765     11769     11772
     11761     11765     11769     11773     11763     11761     11765     11767
     11763     11761     11765     11768     11763     11761     11765     11769
     11764     11761     11765     11767     11764     11761     11765     11768
     11764     11761     11765     11769     11767     11765     11769     11771
     11767     11765     11769     11772     11767     11765     11769     11773
     11768     11765     11769     11771     11768     11765     11769     11772
     11768     11765     11769     11773     11774     11778     11782     11784
     11774     11778     11782     11785     11774     11778     11782     11786
     11776     11774     11778     11780     11776     11774     11778     11781
     11776     11774     11778     11782     11777     11774     11778     11780
     11777     11774     11778     11781     11777     11774     11778     11782
     11778     11782     11786     11788     11778     11782     11786     11789
     11778     11782     11786     11790     11780     11778     11782     11784
     11780     11778     11782     11785     11780     11778     11782     11786
     11781     11778     11782     11784     11781     11778     11782     11785
     11781     11778     11782     11786     11782     11786     11790     11792
     11782     11786     11790     11793     11782     11786     11790     11794
     11784     11782     11786     11788     11784     11782     11786     11789
     11784     11782     11786     11790     11785     11782     11786     11788
     11785     11782     11786     11789     11785     11782     11786     11790
     11786     11790     11794     11796     11786     11790     11794     11797
     11786     11790     11794     11798     11788     11786     11790     11792
     11788     11786     11790     11793     11788     11786     11790     11794
     11789     11786     11790     11792     11789     11786     11790     11793
     11789     11786     11790     11794     11790     11794     11798     11800
     11790     11794     11798     11801     11790     11794     11798     11802
     11792     11790     11794     11796     11792     11790     11794     11797
     11792     11790     11794     11798     11793     11790     11794     11796
     11793     11790     11794     11797     11793     11790     11794     11798
     11794     11798     11802     11804     11794     11798     11802     11805
     11794     11798     11802     11806     11796     11794     11798     11800
     11796     11794     11798     11801     11796     11794     11798     11802
     11797     11794     11798     11800     11797     11794     11798     11801
     11797     11794     11798     11802     11798     11802     11806     11808
     11798     11802     11806     11809     11798     11802     11806     11810
     11800     11798     11802     11804     11800     11798     11802     11805
     11800     11798     11802     11806     11801     11798     11802     11804
     11801     11798     11802     11805     11801     11798     11802     11806
     11802     11806     11810     11812     11802     11806     11810     11813
     11802     11806     11810     11814     11804     11802     11806     11808
     11804     11802     11806     11809     11804     11802     11806     11810
     11805     11802     11806     11808     11805     11802     11806     11809
     11805     11802     11806     11810     11806     11810     11814     11816
     11806     11810     11814     11817     11806     11810     11814     11818
     11808     11806     11810     11812     11808     11806     11810     11813
     11808     11806     11810     11814     11809     11806     11810     11812
     11809     11806     11810     11813     11809     11806     11810     11814
     11810     11814     11818     11820     11810     11814     11818     11821
     11810     11814     11818     11822     11812     11810     11814     11816
     11812     11810     11814     11817     11812     11810     11814     11818
     11813     11810     11814     11816     11813     11810     11814     11817
     11813     11810     11814     11818     11814     11818     11822     11824
     11814     11818     11822     11825     11814     11818     11822     11826
     11816     11814     11818     11820     11816     11814     11818     11821
     11816     11814     11818     11822     11817     11814     11818     11820
     11817     11814     11818     11821     11817     11814     11818     11822
     11818     11822     11826     11828     11818     11822     11826     11829
     11818     11822     11826     11830     11820     11818     11822     11824
     11820     11818     11822     11825     11820     11818     11822     11826
     11821     11818     11822     11824     11821     11818     11822     11825
     11821     11818     11822     11826     11824     11822     11826     11828
     11824     11822     11826     11829     11824     11822     11826     11830
     11825     11822     11826     11828     11825     11822     11826     11829
     11825     11822     11826     11830     11831     11836     11840     11842
     11831     11836     11840     11843     11831     11836     11840     11852
     11833     11831     11836     11838     11833     11831     11836     11839
     11833     11831     11836     11840     11834     11831     11836     11838
     11834     11831     11836     11839     11834     11831     11836     11840
     11835     11831     11836     11838     11835     11831     11836     11839
     11835     11831     11836     11840     11836     11840     11852     11844
     11838     11836     11840     11842     11838     11836     11840     11843
     11838     11836     11840     11852     11839     11836     11840     11842
     11839     11836     11840     11843     11839     11836     11840     11852
     11840     11852     11844     11846     11840     11852     11844     11848
     11840     11852     11844     11850     11842     11840     11852     11844
     11843     11840     11852     11844     11844     11850     11854     11856
     11844     11850     11854     11857     11844     11850     11854     11858
     11846     11844     11850     11854     11848     11844     11850     11854
     11850     11854     11858     11860     11850     11854     11858     11861
     11850     11854     11858     11875     11852     11844     11850     11854
     11854     11858     11861     11863     11854     11858     11875     11877
     11854     11858     11875     11878     11854     11858     11875     11879
     11856     11854     11858     11860     11856     11854     11858     11861
     11856     11854     11858     11875     11857     11854     11858     11860
     11857     11854     11858     11861     11857     11854     11858     11875
     11858     11861     11863     11865     11858     11861     11863     11867
     11858     11875     11879     11881     11860     11858     11861     11863
     11860     11858     11875     11877     11860     11858     11875     11878
     11860     11858     11875     11879     11861     11858     11875     11877
     11861     11858     11875     11878     11861     11858     11875     11879
     11861     11863     11867     11869     11861     11863     11867     11870
     11861     11863     11867     11893     11863     11861     11858     11875
     11863     11867     11893     11895     11863     11867     11893     11896
     11863     11867     11893     11897     11865     11863     11867     11869
     11865     11863     11867     11870     11865     11863     11867     11893
     11867     11893     11897     11899     11867     11893     11897     11900
     11867     11893     11897     11901     11869     11867     11893     11895
     11869     11867     11893     11896     11869     11867     11893     11897
     11870     11867     11893     11895     11870     11867     11893     11896
     11870     11867     11893     11897     11875     11879     11881     11883
     11875     11879     11881     11885     11877     11875     11879     11881
     11878     11875     11879     11881     11879     11881     11885     11887
     11879     11881     11885     11888     11879     11881     11885     11956
     11881     11885     11956     11958     11881     11885     11956     11959
     11881     11885     11956     11960     11883     11881     11885     11887
     11883     11881     11885     11888     11883     11881     11885     11956
     11885     11956     11960     11962     11885     11956     11960     11963
     11885     11956     11960     11964     11887     11885     11956     11958
     11887     11885     11956     11959     11887     11885     11956     11960
     11888     11885     11956     11958     11888     11885     11956     11959
     11888     11885     11956     11960     11893     11897     11901     11903
     11893     11897     11901     11904     11893     11897     11901     11905
     11895     11893     11897     11899     11895     11893     11897     11900
     11895     11893     11897     11901     11896     11893     11897     11899
     11896     11893     11897     11900     11896     11893     11897     11901
     11897     11901     11905     11907     11897     11901     11905     11908
     11897     11901     11905     11909     11899     11897     11901     11903
     11899     11897     11901     11904     11899     11897     11901     11905
     11900     11897     11901     11903     11900     11897     11901     11904
     11900     11897     11901     11905     11901     11905     11909     11911
     11901     11905     11909     11912     11901     11905     11909     11913
     11903     11901     11905     11907     11903     11901     11905     11908
     11903     11901     11905     11909     11904     11901     11905     11907
     11904     11901     11905     11908     11904     11901     11905     11909
     11905     11909     11913     11915     11905     11909     11913     11916
     11905     11909     11913     11917     11907     11905     11909     11911
     11907     11905     11909     11912     11907     11905     11909     11913
     11908     11905     11909     11911     11908     11905     11909     11912
     11908     11905     11909     11913     11909     11913     11917     11919
     11909     11913     11917     11920     11911     11909     11913     11915
     11911     11909     11913     11916     11911     11909     11913     11917
     11912     11909     11913     11915     11912     11909     11913     11916
     11912     11909     11913     11917     11913     11917     11920     11922
     11913     11917     11920     11923     11915     11913     11917     11919
     11915     11913     11917     11920     11916     11913     11917     11919
     11916     11913     11917     11920     11917     11920     11923     11925
     11917     11920     11923     11926     11917     11920     11923     11927
     11919     11917     11920     11922     11919     11917     11920     11923
     11920     11923     11927     11929     11920     11923     11927     11930
     11920     11923     11927     11931     11922     11920     11923     11925
     11922     11920     11923     11926     11922     11920     11923     11927
     11923     11927     11931     11933     11923     11927     11931     11934
     11923     11927     11931     11935     11925     11923     11927     11929
     11925     11923     11927     11930     11925     11923     11927     11931
     11926     11923     11927     11929     11926     11923     11927     11930
     11926     11923     11927     11931     11927     11931     11935     11937
     11927     11931     11935     11938     11927     11931     11935     11939
     11929     11927     11931     11933     11929     11927     11931     11934
     11929     11927     11931     11935     11930     11927     11931     11933
     11930     11927     11931     11934     11930     11927     11931     11935
     11931     11935     11939     11941     11931     11935     11939     11942
     11931     11935     11939     11943     11933     11931     11935     11937
     11933     11931     11935     11938     11933     11931     11935     11939
     11934     11931     11935     11937     11934     11931     11935     11938
     11934     11931     11935     11939     11935     11939     11943     11945
     11935     11939     11943     11946     11935     11939     11943     11947
     11937     11935     11939     11941     11937     11935     11939     11942
     11937     11935     11939     11943     11938     11935     11939     11941
     11938     11935     11939     11942     11938     11935     11939     11943
     11939     11943     11947     11949     11939     11943     11947     11950
     11939     11943     11947     11951     11941     11939     11943     11945
     11941     11939     11943     11946     11941     11939     11943     11947
     11942     11939     11943     11945     11942     11939     11943     11946
     11942     11939     11943     11947     11943     11947     11951     11953
     11943     11947     11951     11954     11943     11947     11951     11955
     11945     11943     11947     11949     11945     11943     11947     11950
     11945     11943     11947     11951     11946     11943     11947     11949
     11946     11943     11947     11950     11946     11943     11947     11951
     11949     11947     11951     11953     11949     11947     11951     11954
     11949     11947     11951     11955     11950     11947     11951     11953
     11950     11947     11951     11954     11950     11947     11951     11955
     11956     11960     11964     11966     11956     11960     11964     11967
     11956     11960     11964     11968     11958     11956     11960     11962
     11958     11956     11960     11963     11958     11956     11960     11964
     11959     11956     11960     11962     11959     11956     11960     11963
     11959     11956     11960     11964     11960     11964     11968     11970
     11960     11964     11968     11971     11960     11964     11968     11972
     11962     11960     11964     11966     11962     11960     11964     11967
     11962     11960     11964     11968     11963     11960     11964     11966
     11963     11960     11964     11967     11963     11960     11964     11968
     11964     11968     11972     11974     11964     11968     11972     11975
     11964     11968     11972     11976     11966     11964     11968     11970
     11966     11964     11968     11971     11966     11964     11968     11972
     11967     11964     11968     11970     11967     11964     11968     11971
     11967     11964     11968     11972     11968     11972     11976     11978
     11968     11972     11976     11979     11968     11972     11976     11980
     11970     11968     11972     11974     11970     11968     11972     11975
     11970     11968     11972     11976     11971     11968     11972     11974
     11971     11968     11972     11975     11971     11968     11972     11976
     11972     11976     11980     11982     11972     11976     11980     11983
     11972     11976     11980     11984     11974     11972     11976     11978
     11974     11972     11976     11979     11974     11972     11976     11980
     11975     11972     11976     11978     11975     11972     11976     11979
     11975     11972     11976     11980     11976     11980     11984     11986
     11976     11980     11984     11987     11976     11980     11984     11988
     11978     11976     11980     11982     11978     11976     11980     11983
     11978     11976     11980     11984     11979     11976     11980     11982
     11979     11976     11980     11983     11979     11976     11980     11984
     11980     11984     11988     11990     11980     11984     11988     11991
     11980     11984     11988     11992     11982     11980     11984     11986
     11982     11980     11984     11987     11982     11980     11984     11988
     11983     11980     11984     11986     11983     11980     11984     11987
     11983     11980     11984     11988     11984     11988     11992     11994
     11984     11988     11992     11995     11984     11988     11992     11996
     11986     11984     11988     11990     11986     11984     11988     11991
     11986     11984     11988     11992     11987     11984     11988     11990
     11987     11984     11988     11991     11987     11984     11988     11992
     11988     11992     11996     11998     11988     11992     11996     11999
     11988     11992     11996     12000     11990     11988     11992     11994
     11990     11988     11992     11995     11990     11988     11992     11996
     11991     11988     11992     11994     11991     11988     11992     11995
     11991     11988     11992     11996     11992     11996     12000     12002
     11992     11996     12000     12003     11992     11996     12000     12004
     11994     11992     11996     11998     11994     11992     11996     11999
     11994     11992     11996     12000     11995     11992     11996     11998
     11995     11992     11996     11999     11995     11992     11996     12000
     11996     12000     12004     12006     11996     12000     12004     12007
     11996     12000     12004     12008     11998     11996     12000     12002
     11998     11996     12000     12003     11998     11996     12000     12004
     11999     11996     12000     12002     11999     11996     12000     12003
     11999     11996     12000     12004     12000     12004     12008     12010
     12000     12004     12008     12011     12000     12004     12008     12012
     12002     12000     12004     12006     12002     12000     12004     12007
     12002     12000     12004     12008     12003     12000     12004     12006
     12003     12000     12004     12007     12003     12000     12004     12008
     12006     12004     12008     12010     12006     12004     12008     12011
     12006     12004     12008     12012     12007     12004     12008     12010
     12007     12004     12008     12011     12007     12004     12008     12012
     12013     12018     12022     12024     12013     12018     12022     12025
     12013     12018     12022     12034     12015     12013     12018     12020
     12015     12013     12018     12021     12015     12013     12018     12022
     12016     12013     12018     12020     12016     12013     12018     12021
     12016     12013     12018     12022     12017     12013     12018     12020
     12017     12013     12018     12021     12017     12013     12018     12022
     12018     12022     12034     12026     12020     12018     12022     12024
     12020     12018     12022     12025     12020     12018     12022     12034
     12021     12018     12022     12024     12021     12018     12022     12025
     12021     12018     12022     12034     12022     12034     12026     12028
     12022     12034     12026     12030     12022     12034     12026     12032
     12024     12022     12034     12026     12025     12022     12034     12026
     12026     12032     12036     12038     12026     12032     12036     12039
     12026     12032     12036     12040     12028     12026     12032     12036
     12030     12026     12032     12036     12032     12036     12040     12042
     12032     12036     12040     12043     12032     12036     12040     12057
     12034     12026     12032     12036     12036     12040     12043     12045
     12036     12040     12057     12059     12036     12040     12057     12060
     12036     12040     12057     12061     12038     12036     12040     12042
     12038     12036     12040     12043     12038     12036     12040     12057
     12039     12036     12040     12042     12039     12036     12040     12043
     12039     12036     12040     12057     12040     12043     12045     12047
     12040     12043     12045     12049     12040     12057     12061     12063
     12042     12040     12043     12045     12042     12040     12057     12059
     12042     12040     12057     12060     12042     12040     12057     12061
     12043     12040     12057     12059     12043     12040     12057     12060
     12043     12040     12057     12061     12043     12045     12049     12051
     12043     12045     12049     12052     12043     12045     12049     12075
     12045     12043     12040     12057     12045     12049     12075     12077
     12045     12049     12075     12078     12045     12049     12075     12079
     12047     12045     12049     12051     12047     12045     12049     12052
     12047     12045     12049     12075     12049     12075     12079     12081
     12049     12075     12079     12082     12049     12075     12079     12083
     12051     12049     12075     12077     12051     12049     12075     12078
     12051     12049     12075     12079     12052     12049     12075     12077
     12052     12049     12075     12078     12052     12049     12075     12079
     12057     12061     12063     12065     12057     12061     12063     12067
     12059     12057     12061     12063     12060     12057     12061     12063
     12061     12063     12067     12069     12061     12063     12067     12070
     12061     12063     12067     12138     12063     12067     12138     12140
     12063     12067     12138     12141     12063     12067     12138     12142
     12065     12063     12067     12069     12065     12063     12067     12070
     12065     12063     12067     12138     12067     12138     12142     12144
     12067     12138     12142     12145     12067     12138     12142     12146
     12069     12067     12138     12140     12069     12067     12138     12141
     12069     12067     12138     12142     12070     12067     12138     12140
     12070     12067     12138     12141     12070     12067     12138     12142
     12075     12079     12083     12085     12075     12079     12083     12086
     12075     12079     12083     12087     12077     12075     12079     12081
     12077     12075     12079     12082     12077     12075     12079     12083
     12078     12075     12079     12081     12078     12075     12079     12082
     12078     12075     12079     12083     12079     12083     12087     12089
     12079     12083     12087     12090     12079     12083     12087     12091
     12081     12079     12083     12085     12081     12079     12083     12086
     12081     12079     12083     12087     12082     12079     12083     12085
     12082     12079     12083     12086     12082     12079     12083     12087
     12083     12087     12091     12093     12083     12087     12091     12094
     12083     12087     12091     12095     12085     12083     12087     12089
     12085     12083     12087     12090     12085     12083     12087     12091
     12086     12083     12087     12089     12086     12083     12087     12090
     12086     12083     12087     12091     12087     12091     12095     12097
     12087     12091     12095     12098     12087     12091     12095     12099
     12089     12087     12091     12093     12089     12087     12091     12094
     12089     12087     12091     12095     12090     12087     12091     12093
     12090     12087     12091     12094     12090     12087     12091     12095
     12091     12095     12099     12101     12091     12095     12099     12102
     12093     12091     12095     12097     12093     12091     12095     12098
     12093     12091     12095     12099     12094     12091     12095     12097
     12094     12091     12095     12098     12094     12091     12095     12099
     12095     12099     12102     12104     12095     12099     12102     12105
     12097     12095     12099     12101     12097     12095     12099     12102
     12098     12095     12099     12101     12098     12095     12099     12102
     12099     12102     12105     12107     12099     12102     12105     12108
     12099     12102     12105     12109     12101     12099     12102     12104
     12101     12099     12102     12105     12102     12105     12109     12111
     12102     12105     12109     12112     12102     12105     12109     12113
     12104     12102     12105     12107     12104     12102     12105     12108
     12104     12102     12105     12109     12105     12109     12113     12115
     12105     12109     12113     12116     12105     12109     12113     12117
     12107     12105     12109     12111     12107     12105     12109     12112
     12107     12105     12109     12113     12108     12105     12109     12111
     12108     12105     12109     12112     12108     12105     12109     12113
     12109     12113     12117     12119     12109     12113     12117     12120
     12109     12113     12117     12121     12111     12109     12113     12115
     12111     12109     12113     12116     12111     12109     12113     12117
     12112     12109     12113     12115     12112     12109     12113     12116
     12112     12109     12113     12117     12113     12117     12121     12123
     12113     12117     12121     12124     12113     12117     12121     12125
     12115     12113     12117     12119     12115     12113     12117     12120
     12115     12113     12117     12121     12116     12113     12117     12119
     12116     12113     12117     12120     12116     12113     12117     12121
     12117     12121     12125     12127     12117     12121     12125     12128
     12117     12121     12125     12129     12119     12117     12121     12123
     12119     12117     12121     12124     12119     12117     12121     12125
     12120     12117     12121     12123     12120     12117     12121     12124
     12120     12117     12121     12125     12121     12125     12129     12131
     12121     12125     12129     12132     12121     12125     12129     12133
     12123     12121     12125     12127     12123     12121     12125     12128
     12123     12121     12125     12129     12124     12121     12125     12127
     12124     12121     12125     12128     12124     12121     12125     12129
     12125     12129     12133     12135     12125     12129     12133     12136
     12125     12129     12133     12137     12127     12125     12129     12131
     12127     12125     12129     12132     12127     12125     12129     12133
     12128     12125     12129     12131     12128     12125     12129     12132
     12128     12125     12129     12133     12131     12129     12133     12135
     12131     12129     12133     12136     12131     12129     12133     12137
     12132     12129     12133     12135     12132     12129     12133     12136
     12132     12129     12133     12137     12138     12142     12146     12148
     12138     12142     12146     12149     12138     12142     12146     12150
     12140     12138     12142     12144     12140     12138     12142     12145
     12140     12138     12142     12146     12141     12138     12142     12144
     12141     12138     12142     12145     12141     12138     12142     12146
     12142     12146     12150     12152     12142     12146     12150     12153
     12142     12146     12150     12154     12144     12142     12146     12148
     12144     12142     12146     12149     12144     12142     12146     12150
     12145     12142     12146     12148     12145     12142     12146     12149
     12145     12142     12146     12150     12146     12150     12154     12156
     12146     12150     12154     12157     12146     12150     12154     12158
     12148     12146     12150     12152     12148     12146     12150     12153
     12148     12146     12150     12154     12149     12146     12150     12152
     12149     12146     12150     12153     12149     12146     12150     12154
     12150     12154     12158     12160     12150     12154     12158     12161
     12150     12154     12158     12162     12152     12150     12154     12156
     12152     12150     12154     12157     12152     12150     12154     12158
     12153     12150     12154     12156     12153     12150     12154     12157
     12153     12150     12154     12158     12154     12158     12162     12164
     12154     12158     12162     12165     12154     12158     12162     12166
     12156     12154     12158     12160     12156     12154     12158     12161
     12156     12154     12158     12162     12157     12154     12158     12160
     12157     12154     12158     12161     12157     12154     12158     12162
     12158     12162     12166     12168     12158     12162     12166     12169
     12158     12162     12166     12170     12160     12158     12162     12164
     12160     12158     12162     12165     12160     12158     12162     12166
     12161     12158     12162     12164     12161     12158     12162     12165
     12161     12158     12162     12166     12162     12166     12170     12172
     12162     12166     12170     12173     12162     12166     12170     12174
     12164     12162     12166     12168     12164     12162     12166     12169
     12164     12162     12166     12170     12165     12162     12166     12168
     12165     12162     12166     12169     12165     12162     12166     12170
     12166     12170     12174     12176     12166     12170     12174     12177
     12166     12170     12174     12178     12168     12166     12170     12172
     12168     12166     12170     12173     12168     12166     12170     12174
     12169     12166     12170     12172     12169     12166     12170     12173
     12169     12166     12170     12174     12170     12174     12178     12180
     12170     12174     12178     12181     12170     12174     12178     12182
     12172     12170     12174     12176     12172     12170     12174     12177
     12172     12170     12174     12178     12173     12170     12174     12176
     12173     12170     12174     12177     12173     12170     12174     12178
     12174     12178     12182     12184     12174     12178     12182     12185
     12174     12178     12182     12186     12176     12174     12178     12180
     12176     12174     12178     12181     12176     12174     12178     12182
     12177     12174     12178     12180     12177     12174     12178     12181
     12177     12174     12178     12182     12178     12182     12186     12188
     12178     12182     12186     12189     12178     12182     12186     12190
     12180     12178     12182     12184     12180     12178     12182     12185
     12180     12178     12182     12186     12181     12178     12182     12184
     12181     12178     12182     12185     12181     12178     12182     12186
     12182     12186     12190     12192     12182     12186     12190     12193
     12182     12186     12190     12194     12184     12182     12186     12188
     12184     12182     12186     12189     12184     12182     12186     12190
     12185     12182     12186     12188     12185     12182     12186     12189
     12185     12182     12186     12190     12188     12186     12190     12192
     12188     12186     12190     12193     12188     12186     12190     12194
     12189     12186     12190     12192     12189     12186     12190     12193
     12189     12186     12190     12194     12195     12200     12204     12206
     12195     12200     12204     12207     12195     12200     12204     12216
     12197     12195     12200     12202     12197     12195     12200     12203
     12197     12195     12200     12204     12198     12195     12200     12202
     12198     12195     12200     12203     12198     12195     12200     12204
     12199     12195     12200     12202     12199     12195     12200     12203
     12199     12195     12200     12204     12200     12204     12216     12208
     12202     12200     12204     12206     12202     12200     12204     12207
     12202     12200     12204     12216     12203     12200     12204     12206
     12203     12200     12204     12207     12203     12200     12204     12216
     12204     12216     12208     12210     12204     12216     12208     12212
     12204     12216     12208     12214     12206     12204     12216     12208
     12207     12204     12216     12208     12208     12214     12218     12220
     12208     12214     12218     12221     12208     12214     12218     12222
     12210     12208     12214     12218     12212     12208     12214     12218
     12214     12218     12222     12224     12214     12218     12222     12225
     12214     12218     12222     12239     12216     12208     12214     12218
     12218     12222     12225     12227     12218     12222     12239     12241
     12218     12222     12239     12242     12218     12222     12239     12243
     12220     12218     12222     12224     12220     12218     12222     12225
     12220     12218     12222     12239     12221     12218     12222     12224
     12221     12218     12222     12225     12221     12218     12222     12239
     12222     12225     12227     12229     12222     12225     12227     12231
     12222     12239     12243     12245     12224     12222     12225     12227
     12224     12222     12239     12241     12224     12222     12239     12242
     12224     12222     12239     12243     12225     12222     12239     12241
     12225     12222     12239     12242     12225     12222     12239     12243
     12225     12227     12231     12233     12225     12227     12231     12234
     12225     12227     12231     12257     12227     12225     12222     12239
     12227     12231     12257     12259     12227     12231     12257     12260
     12227     12231     12257     12261     12229     12227     12231     12233
     12229     12227     12231     12234     12229     12227     12231     12257
     12231     12257     12261     12263     12231     12257     12261     12264
     12231     12257     12261     12265     12233     12231     12257     12259
     12233     12231     12257     12260     12233     12231     12257     12261
     12234     12231     12257     12259     12234     12231     12257     12260
     12234     12231     12257     12261     12239     12243     12245     12247
     12239     12243     12245     12249     12241     12239     12243     12245
     12242     12239     12243     12245     12243     12245     12249     12251
     12243     12245     12249     12252     12243     12245     12249     12320
     12245     12249     12320     12322     12245     12249     12320     12323
     12245     12249     12320     12324     12247     12245     12249     12251
     12247     12245     12249     12252     12247     12245     12249     12320
     12249     12320     12324     12326     12249     12320     12324     12327
     12249     12320     12324     12328     12251     12249     12320     12322
     12251     12249     12320     12323     12251     12249     12320     12324
     12252     12249     12320     12322     12252     12249     12320     12323
     12252     12249     12320     12324     12257     12261     12265     12267
     12257     12261     12265     12268     12257     12261     12265     12269
     12259     12257     12261     12263     12259     12257     12261     12264
     12259     12257     12261     12265     12260     12257     12261     12263
     12260     12257     12261     12264     12260     12257     12261     12265
     12261     12265     12269     12271     12261     12265     12269     12272
     12261     12265     12269     12273     12263     12261     12265     12267
     12263     12261     12265     12268     12263     12261     12265     12269
     12264     12261     12265     12267     12264     12261     12265     12268
     12264     12261     12265     12269     12265     12269     12273     12275
     12265     12269     12273     12276     12265     12269     12273     12277
     12267     12265     12269     12271     12267     12265     12269     12272
     12267     12265     12269     12273     12268     12265     12269     12271
     12268     12265     12269     12272     12268     12265     12269     12273
     12269     12273     12277     12279     12269     12273     12277     12280
     12269     12273     12277     12281     12271     12269     12273     12275
     12271     12269     12273     12276     12271     12269     12273     12277
     12272     12269     12273     12275     12272     12269     12273     12276
     12272     12269     12273     12277     12273     12277     12281     12283
     12273     12277     12281     12284     12275     12273     12277     12279
     12275     12273     12277     12280     12275     12273     12277     12281
     12276     12273     12277     12279     12276     12273     12277     12280
     12276     12273     12277     12281     12277     12281     12284     12286
     12277     12281     12284     12287     12279     12277     12281     12283
     12279     12277     12281     12284     12280     12277     12281     12283
     12280     12277     12281     12284     12281     12284     12287     12289
     12281     12284     12287     12290     12281     12284     12287     12291
     12283     12281     12284     12286     12283     12281     12284     12287
     12284     12287     12291     12293     12284     12287     12291     12294
     12284     12287     12291     12295     12286     12284     12287     12289
     12286     12284     12287     12290     12286     12284     12287     12291
     12287     12291     12295     12297     12287     12291     12295     12298
     12287     12291     12295     12299     12289     12287     12291     12293
     12289     12287     12291     12294     12289     12287     12291     12295
     12290     12287     12291     12293     12290     12287     12291     12294
     12290     12287     12291     12295     12291     12295     12299     12301
     12291     12295     12299     12302     12291     12295     12299     12303
     12293     12291     12295     12297     12293     12291     12295     12298
     12293     12291     12295     12299     12294     12291     12295     12297
     12294     12291     12295     12298     12294     12291     12295     12299
     12295     12299     12303     12305     12295     12299     12303     12306
     12295     12299     12303     12307     12297     12295     12299     12301
     12297     12295     12299     12302     12297     12295     12299     12303
     12298     12295     12299     12301     12298     12295     12299     12302
     12298     12295     12299     12303     12299     12303     12307     12309
     12299     12303     12307     12310     12299     12303     12307     12311
     12301     12299     12303     12305     12301     12299     12303     12306
     12301     12299     12303     12307     12302     12299     12303     12305
     12302     12299     12303     12306     12302     12299     12303     12307
     12303     12307     12311     12313     12303     12307     12311     12314
     12303     12307     12311     12315     12305     12303     12307     12309
     12305     12303     12307     12310     12305     12303     12307     12311
     12306     12303     12307     12309     12306     12303     12307     12310
     12306     12303     12307     12311     12307     12311     12315     12317
     12307     12311     12315     12318     12307     12311     12315     12319
     12309     12307     12311     12313     12309     12307     12311     12314
     12309     12307     12311     12315     12310     12307     12311     12313
     12310     12307     12311     12314     12310     12307     12311     12315
     12313     12311     12315     12317     12313     12311     12315     12318
     12313     12311     12315     12319     12314     12311     12315     12317
     12314     12311     12315     12318     12314     12311     12315     12319
     12320     12324     12328     12330     12320     12324     12328     12331
     12320     12324     12328     12332     12322     12320     12324     12326
     12322     12320     12324     12327     12322     12320     12324     12328
     12323     12320     12324     12326     12323     12320     12324     12327
     12323     12320     12324     12328     12324     12328     12332     12334
     12324     12328     12332     12335     12324     12328     12332     12336
     12326     12324     12328     12330     12326     12324     12328     12331
     12326     12324     12328     12332     12327     12324     12328     12330
     12327     12324     12328     12331     12327     12324     12328     12332
     12328     12332     12336     12338     12328     12332     12336     12339
     12328     12332     12336     12340     12330     12328     12332     12334
     12330     12328     12332     12335     12330     12328     12332     12336
     12331     12328     12332     12334     12331     12328     12332     12335
     12331     12328     12332     12336     12332     12336     12340     12342
     12332     12336     12340     12343     12332     12336     12340     12344
     12334     12332     12336     12338     12334     12332     12336     12339
     12334     12332     12336     12340     12335     12332     12336     12338
     12335     12332     12336     12339     12335     12332     12336     12340
     12336     12340     12344     12346     12336     12340     12344     12347
     12336     12340     12344     12348     12338     12336     12340     12342
     12338     12336     12340     12343     12338     12336     12340     12344
     12339     12336     12340     12342     12339     12336     12340     12343
     12339     12336     12340     12344     12340     12344     12348     12350
     12340     12344     12348     12351     12340     12344     12348     12352
     12342     12340     12344     12346     12342     12340     12344     12347
     12342     12340     12344     12348     12343     12340     12344     12346
     12343     12340     12344     12347     12343     12340     12344     12348
     12344     12348     12352     12354     12344     12348     12352     12355
     12344     12348     12352     12356     12346     12344     12348     12350
     12346     12344     12348     12351     12346     12344     12348     12352
     12347     12344     12348     12350     12347     12344     12348     12351
     12347     12344     12348     12352     12348     12352     12356     12358
     12348     12352     12356     12359     12348     12352     12356     12360
     12350     12348     12352     12354     12350     12348     12352     12355
     12350     12348     12352     12356     12351     12348     12352     12354
     12351     12348     12352     12355     12351     12348     12352     12356
     12352     12356     12360     12362     12352     12356     12360     12363
     12352     12356     12360     12364     12354     12352     12356     12358
     12354     12352     12356     12359     12354     12352     12356     12360
     12355     12352     12356     12358     12355     12352     12356     12359
     12355     12352     12356     12360     12356     12360     12364     12366
     12356     12360     12364     12367     12356     12360     12364     12368
     12358     12356     12360     12362     12358     12356     12360     12363
     12358     12356     12360     12364     12359     12356     12360     12362
     12359     12356     12360     12363     12359     12356     12360     12364
     12360     12364     12368     12370     12360     12364     12368     12371
     12360     12364     12368     12372     12362     12360     12364     12366
     12362     12360     12364     12367     12362     12360     12364     12368
     12363     12360     12364     12366     12363     12360     12364     12367
     12363     12360     12364     12368     12364     12368     12372     12374
     12364     12368     12372     12375     12364     12368     12372     12376
     12366     12364     12368     12370     12366     12364     12368     12371
     12366     12364     12368     12372     12367     12364     12368     12370
     12367     12364     12368     12371     12367     12364     12368     12372
     12370     12368     12372     12374     12370     12368     12372     12375
     12370     12368     12372     12376     12371     12368     12372     12374
     12371     12368     12372     12375     12371     12368     12372     12376
     12377     12382     12386     12388     12377     12382     12386     12389
     12377     12382     12386     12398     12379     12377     12382     12384
     12379     12377     12382     12385     12379     12377     12382     12386
     12380     12377     12382     12384     12380     12377     12382     12385
     12380     12377     12382     12386     12381     12377     12382     12384
     12381     12377     12382     12385     12381     12377     12382     12386
     12382     12386     12398     12390     12384     12382     12386     12388
     12384     12382     12386     12389     12384     12382     12386     12398
     12385     12382     12386     12388     12385     12382     12386     12389
     12385     12382     12386     12398     12386     12398     12390     12392
     12386     12398     12390     12394     12386     12398     12390     12396
     12388     12386     12398     12390     12389     12386     12398     12390
     12390     12396     12400     12402     12390     12396     12400     12403
     12390     12396     12400     12404     12392     12390     12396     12400
     12394     12390     12396     12400     12396     12400     12404     12406
     12396     12400     12404     12407     12396     12400     12404     12421
     12398     12390     12396     12400     12400     12404     12407     12409
     12400     12404     12421     12423     12400     12404     12421     12424
     12400     12404     12421     12425     12402     12400     12404     12406
     12402     12400     12404     12407     12402     12400     12404     12421
     12403     12400     12404     12406     12403     12400     12404     12407
     12403     12400     12404     12421     12404     12407     12409     12411
     12404     12407     12409     12413     12404     12421     12425     12427
     12406     12404     12407     12409     12406     12404     12421     12423
     12406     12404     12421     12424     12406     12404     12421     12425
     12407     12404     12421     12423     12407     12404     12421     12424
     12407     12404     12421     12425     12407     12409     12413     12415
     12407     12409     12413     12416     12407     12409     12413     12439
     12409     12407     12404     12421     12409     12413     12439     12441
     12409     12413     12439     12442     12409     12413     12439     12443
     12411     12409     12413     12415     12411     12409     12413     12416
     12411     12409     12413     12439     12413     12439     12443     12445
     12413     12439     12443     12446     12413     12439     12443     12447
     12415     12413     12439     12441     12415     12413     12439     12442
     12415     12413     12439     12443     12416     12413     12439     12441
     12416     12413     12439     12442     12416     12413     12439     12443
     12421     12425     12427     12429     12421     12425     12427     12431
     12423     12421     12425     12427     12424     12421     12425     12427
     12425     12427     12431     12433     12425     12427     12431     12434
     12425     12427     12431     12502     12427     12431     12502     12504
     12427     12431     12502     12505     12427     12431     12502     12506
     12429     12427     12431     12433     12429     12427     12431     12434
     12429     12427     12431     12502     12431     12502     12506     12508
     12431     12502     12506     12509     12431     12502     12506     12510
     12433     12431     12502     12504     12433     12431     12502     12505
     12433     12431     12502     12506     12434     12431     12502     12504
     12434     12431     12502     12505     12434     12431     12502     12506
     12439     12443     12447     12449     12439     12443     12447     12450
     12439     12443     12447     12451     12441     12439     12443     12445
     12441     12439     12443     12446     12441     12439     12443     12447
     12442     12439     12443     12445     12442     12439     12443     12446
     12442     12439     12443     12447     12443     12447     12451     12453
     12443     12447     12451     12454     12443     12447     12451     12455
     12445     12443     12447     12449     12445     12443     12447     12450
     12445     12443     12447     12451     12446     12443     12447     12449
     12446     12443     12447     12450     12446     12443     12447     12451
     12447     12451     12455     12457     12447     12451     12455     12458
     12447     12451     12455     12459     12449     12447     12451     12453
     12449     12447     12451     12454     12449     12447     12451     12455
     12450     12447     12451     12453     12450     12447     12451     12454
     12450     12447     12451     12455     12451     12455     12459     12461
     12451     12455     12459     12462     12451     12455     12459     12463
     12453     12451     12455     12457     12453     12451     12455     12458
     12453     12451     12455     12459     12454     12451     12455     12457
     12454     12451     12455     12458     12454     12451     12455     12459
     12455     12459     12463     12465     12455     12459     12463     12466
     12457     12455     12459     12461     12457     12455     12459     12462
     12457     12455     12459     12463     12458     12455     12459     12461
     12458     12455     12459     12462     12458     12455     12459     12463
     12459     12463     12466     12468     12459     12463     12466     12469
     12461     12459     12463     12465     12461     12459     12463     12466
     12462     12459     12463     12465     12462     12459     12463     12466
     12463     12466     12469     12471     12463     12466     12469     12472
     12463     12466     12469     12473     12465     12463     12466     12468
     12465     12463     12466     12469     12466     12469     12473     12475
     12466     12469     12473     12476     12466     12469     12473     12477
     12468     12466     12469     12471     12468     12466     12469     12472
     12468     12466     12469     12473     12469     12473     12477     12479
     12469     12473     12477     12480     12469     12473     12477     12481
     12471     12469     12473     12475     12471     12469     12473     12476
     12471     12469     12473     12477     12472     12469     12473     12475
     12472     12469     12473     12476     12472     12469     12473     12477
     12473     12477     12481     12483     12473     12477     12481     12484
     12473     12477     12481     12485     12475     12473     12477     12479
     12475     12473     12477     12480     12475     12473     12477     12481
     12476     12473     12477     12479     12476     12473     12477     12480
     12476     12473     12477     12481     12477     12481     12485     12487
     12477     12481     12485     12488     12477     12481     12485     12489
     12479     12477     12481     12483     12479     12477     12481     12484
     12479     12477     12481     12485     12480     12477     12481     12483
     12480     12477     12481     12484     12480     12477     12481     12485
     12481     12485     12489     12491     12481     12485     12489     12492
     12481     12485     12489     12493     12483     12481     12485     12487
     12483     12481     12485     12488     12483     12481     12485     12489
     12484     12481     12485     12487     12484     12481     12485     12488
     12484     12481     12485     12489     12485     12489     12493     12495
     12485     12489     12493     12496     12485     12489     12493     12497
     12487     12485     12489     12491     12487     12485     12489     12492
     12487     12485     12489     12493     12488     12485     12489     12491
     12488     12485     12489     12492     12488     12485     12489     12493
     12489     12493     12497     12499     12489     12493     12497     12500
     12489     12493     12497     12501     12491     12489     12493     12495
     12491     12489     12493     12496     12491     12489     12493     12497
     12492     12489     12493     12495     12492     12489     12493     12496
     12492     12489     12493     12497     12495     12493     12497     12499
     12495     12493     12497     12500     12495     12493     12497     12501
     12496     12493     12497     12499     12496     12493     12497     12500
     12496     12493     12497     12501     12502     12506     12510     12512
     12502     12506     12510     12513     12502     12506     12510     12514
     12504     12502     12506     12508     12504     12502     12506     12509
     12504     12502     12506     12510     12505     12502     12506     12508
     12505     12502     12506     12509     12505     12502     12506     12510
     12506     12510     12514     12516     12506     12510     12514     12517
     12506     12510     12514     12518     12508     12506     12510     12512
     12508     12506     12510     12513     12508     12506     12510     12514
     12509     12506     12510     12512     12509     12506     12510     12513
     12509     12506     12510     12514     12510     12514     12518     12520
     12510     12514     12518     12521     12510     12514     12518     12522
     12512     12510     12514     12516     12512     12510     12514     12517
     12512     12510     12514     12518     12513     12510     12514     12516
     12513     12510     12514     12517     12513     12510     12514     12518
     12514     12518     12522     12524     12514     12518     12522     12525
     12514     12518     12522     12526     12516     12514     12518     12520
     12516     12514     12518     12521     12516     12514     12518     12522
     12517     12514     12518     12520     12517     12514     12518     12521
     12517     12514     12518     12522     12518     12522     12526     12528
     12518     12522     12526     12529     12518     12522     12526     12530
     12520     12518     12522     12524     12520     12518     12522     12525
     12520     12518     12522     12526     12521     12518     12522     12524
     12521     12518     12522     12525     12521     12518     12522     12526
     12522     12526     12530     12532     12522     12526     12530     12533
     12522     12526     12530     12534     12524     12522     12526     12528
     12524     12522     12526     12529     12524     12522     12526     12530
     12525     12522     12526     12528     12525     12522     12526     12529
     12525     12522     12526     12530     12526     12530     12534     12536
     12526     12530     12534     12537     12526     12530     12534     12538
     12528     12526     12530     12532     12528     12526     12530     12533
     12528     12526     12530     12534     12529     12526     12530     12532
     12529     12526     12530     12533     12529     12526     12530     12534
     12530     12534     12538     12540     12530     12534     12538     12541
     12530     12534     12538     12542     12532     12530     12534     12536
     12532     12530     12534     12537     12532     12530     12534     12538
     12533     12530     12534     12536     12533     12530     12534     12537
     12533     12530     12534     12538     12534     12538     12542     12544
     12534     12538     12542     12545     12534     12538     12542     12546
     12536     12534     12538     12540     12536     12534     12538     12541
     12536     12534     12538     12542     12537     12534     12538     12540
     12537     12534     12538     12541     12537     12534     12538     12542
     12538     12542     12546     12548     12538     12542     12546     12549
     12538     12542     12546     12550     12540     12538     12542     12544
     12540     12538     12542     12545     12540     12538     12542     12546
     12541     12538     12542     12544     12541     12538     12542     12545
     12541     12538     12542     12546     12542     12546     12550     12552
     12542     12546     12550     12553     12542     12546     12550     12554
     12544     12542     12546     12548     12544     12542     12546     12549
     12544     12542     12546     12550     12545     12542     12546     12548
     12545     12542     12546     12549     12545     12542     12546     12550
     12546     12550     12554     12556     12546     12550     12554     12557
     12546     12550     12554     12558     12548     12546     12550     12552
     12548     12546     12550     12553     12548     12546     12550     12554
     12549     12546     12550     12552     12549     12546     12550     12553
     12549     12546     12550     12554     12552     12550     12554     12556
     12552     12550     12554     12557     12552     12550     12554     12558
     12553     12550     12554     12556     12553     12550     12554     12557
     12553     12550     12554     12558     12559     12564     12568     12570
     12559     12564     12568     12571     12559     12564     12568     12580
     12561     12559     12564     12566     12561     12559     12564     12567
     12561     12559     12564     12568     12562     12559     12564     12566
     12562     12559     12564     12567     12562     12559     12564     12568
     12563     12559     12564     12566     12563     12559     12564     12567
     12563     12559     12564     12568     12564     12568     12580     12572
     12566     12564     12568     12570     12566     12564     12568     12571
     12566     12564     12568     12580     12567     12564     12568     12570
     12567     12564     12568     12571     12567     12564     12568     12580
     12568     12580     12572     12574     12568     12580     12572     12576
     12568     12580     12572     12578     12570     12568     12580     12572
     12571     12568     12580     12572     12572     12578     12582     12584
     12572     12578     12582     12585     12572     12578     12582     12586
     12574     12572     12578     12582     12576     12572     12578     12582
     12578     12582     12586     12588     12578     12582     12586     12589
     12578     12582     12586     12603     12580     12572     12578     12582
     12582     12586     12589     12591     12582     12586     12603     12605
     12582     12586     12603     12606     12582     12586     12603     12607
     12584     12582     12586     12588     12584     12582     12586     12589
     12584     12582     12586     12603     12585     12582     12586     12588
     12585     12582     12586     12589     12585     12582     12586     12603
     12586     12589     12591     12593     12586     12589     12591     12595
     12586     12603     12607     12609     12588     12586     12589     12591
     12588     12586     12603     12605     12588     12586     12603     12606
     12588     12586     12603     12607     12589     12586     12603     12605
     12589     12586     12603     12606     12589     12586     12603     12607
     12589     12591     12595     12597     12589     12591     12595     12598
     12589     12591     12595     12621     12591     12589     12586     12603
     12591     12595     12621     12623     12591     12595     12621     12624
     12591     12595     12621     12625     12593     12591     12595     12597
     12593     12591     12595     12598     12593     12591     12595     12621
     12595     12621     12625     12627     12595     12621     12625     12628
     12595     12621     12625     12629     12597     12595     12621     12623
     12597     12595     12621     12624     12597     12595     12621     12625
     12598     12595     12621     12623     12598     12595     12621     12624
     12598     12595     12621     12625     12603     12607     12609     12611
     12603     12607     12609     12613     12605     12603     12607     12609
     12606     12603     12607     12609     12607     12609     12613     12615
     12607     12609     12613     12616     12607     12609     12613     12684
     12609     12613     12684     12686     12609     12613     12684     12687
     12609     12613     12684     12688     12611     12609     12613     12615
     12611     12609     12613     12616     12611     12609     12613     12684
     12613     12684     12688     12690     12613     12684     12688     12691
     12613     12684     12688     12692     12615     12613     12684     12686
     12615     12613     12684     12687     12615     12613     12684     12688
     12616     12613     12684     12686     12616     12613     12684     12687
     12616     12613     12684     12688     12621     12625     12629     12631
     12621     12625     12629     12632     12621     12625     12629     12633
     12623     12621     12625     12627     12623     12621     12625     12628
     12623     12621     12625     12629     12624     12621     12625     12627
     12624     12621     12625     12628     12624     12621     12625     12629
     12625     12629     12633     12635     12625     12629     12633     12636
     12625     12629     12633     12637     12627     12625     12629     12631
     12627     12625     12629     12632     12627     12625     12629     12633
     12628     12625     12629     12631     12628     12625     12629     12632
     12628     12625     12629     12633     12629     12633     12637     12639
     12629     12633     12637     12640     12629     12633     12637     12641
     12631     12629     12633     12635     12631     12629     12633     12636
     12631     12629     12633     12637     12632     12629     12633     12635
     12632     12629     12633     12636     12632     12629     12633     12637
     12633     12637     12641     12643     12633     12637     12641     12644
     12633     12637     12641     12645     12635     12633     12637     12639
     12635     12633     12637     12640     12635     12633     12637     12641
     12636     12633     12637     12639     12636     12633     12637     12640
     12636     12633     12637     12641     12637     12641     12645     12647
     12637     12641     12645     12648     12639     12637     12641     12643
     12639     12637     12641     12644     12639     12637     12641     12645
     12640     12637     12641     12643     12640     12637     12641     12644
     12640     12637     12641     12645     12641     12645     12648     12650
     12641     12645     12648     12651     12643     12641     12645     12647
     12643     12641     12645     12648     12644     12641     12645     12647
     12644     12641     12645     12648     12645     12648     12651     12653
     12645     12648     12651     12654     12645     12648     12651     12655
     12647     12645     12648     12650     12647     12645     12648     12651
     12648     12651     12655     12657     12648     12651     12655     12658
     12648     12651     12655     12659     12650     12648     12651     12653
     12650     12648     12651     12654     12650     12648     12651     12655
     12651     12655     12659     12661     12651     12655     12659     12662
     12651     12655     12659     12663     12653     12651     12655     12657
     12653     12651     12655     12658     12653     12651     12655     12659
     12654     12651     12655     12657     12654     12651     12655     12658
     12654     12651     12655     12659     12655     12659     12663     12665
     12655     12659     12663     12666     12655     12659     12663     12667
     12657     12655     12659     12661     12657     12655     12659     12662
     12657     12655     12659     12663     12658     12655     12659     12661
     12658     12655     12659     12662     12658     12655     12659     12663
     12659     12663     12667     12669     12659     12663     12667     12670
     12659     12663     12667     12671     12661     12659     12663     12665
     12661     12659     12663     12666     12661     12659     12663     12667
     12662     12659     12663     12665     12662     12659     12663     12666
     12662     12659     12663     12667     12663     12667     12671     12673
     12663     12667     12671     12674     12663     12667     12671     12675
     12665     12663     12667     12669     12665     12663     12667     12670
     12665     12663     12667     12671     12666     12663     12667     12669
     12666     12663     12667     12670     12666     12663     12667     12671
     12667     12671     12675     12677     12667     12671     12675     12678
     12667     12671     12675     12679     12669     12667     12671     12673
     12669     12667     12671     12674     12669     12667     12671     12675
     12670     12667     12671     12673     12670     12667     12671     12674
     12670     12667     12671     12675     12671     12675     12679     12681
     12671     12675     12679     12682     12671     12675     12679     12683
     12673     12671     12675     12677     12673     12671     12675     12678
     12673     12671     12675     12679     12674     12671     12675     12677
     12674     12671     12675     12678     12674     12671     12675     12679
     12677     12675     12679     12681     12677     12675     12679     12682
     12677     12675     12679     12683     12678     12675     12679     12681
     12678     12675     12679     12682     12678     12675     12679     12683
     12684     12688     12692     12694     12684     12688     12692     12695
     12684     12688     12692     12696     12686     12684     12688     12690
     12686     12684     12688     12691     12686     12684     12688     12692
     12687     12684     12688     12690     12687     12684     12688     12691
     12687     12684     12688     12692     12688     12692     12696     12698
     12688     12692     12696     12699     12688     12692     12696     12700
     12690     12688     12692     12694     12690     12688     12692     12695
     12690     12688     12692     12696     12691     12688     12692     12694
     12691     12688     12692     12695     12691     12688     12692     12696
     12692     12696     12700     12702     12692     12696     12700     12703
     12692     12696     12700     12704     12694     12692     12696     12698
     12694     12692     12696     12699     12694     12692     12696     12700
     12695     12692     12696     12698     12695     12692     12696     12699
     12695     12692     12696     12700     12696     12700     12704     12706
     12696     12700     12704     12707     12696     12700     12704     12708
     12698     12696     12700     12702     12698     12696     12700     12703
     12698     12696     12700     12704     12699     12696     12700     12702
     12699     12696     12700     12703     12699     12696     12700     12704
     12700     12704     12708     12710     12700     12704     12708     12711
     12700     12704     12708     12712     12702     12700     12704     12706
     12702     12700     12704     12707     12702     12700     12704     12708
     12703     12700     12704     12706     12703     12700     12704     12707
     12703     12700     12704     12708     12704     12708     12712     12714
     12704     12708     12712     12715     12704     12708     12712     12716
     12706     12704     12708     12710     12706     12704     12708     12711
     12706     12704     12708     12712     12707     12704     12708     12710
     12707     12704     12708     12711     12707     12704     12708     12712
     12708     12712     12716     12718     12708     12712     12716     12719
     12708     12712     12716     12720     12710     12708     12712     12714
     12710     12708     12712     12715     12710     12708     12712     12716
     12711     12708     12712     12714     12711     12708     12712     12715
     12711     12708     12712     12716     12712     12716     12720     12722
     12712     12716     12720     12723     12712     12716     12720     12724
     12714     12712     12716     12718     12714     12712     12716     12719
     12714     12712     12716     12720     12715     12712     12716     12718
     12715     12712     12716     12719     12715     12712     12716     12720
     12716     12720     12724     12726     12716     12720     12724     12727
     12716     12720     12724     12728     12718     12716     12720     12722
     12718     12716     12720     12723     12718     12716     12720     12724
     12719     12716     12720     12722     12719     12716     12720     12723
     12719     12716     12720     12724     12720     12724     12728     12730
     12720     12724     12728     12731     12720     12724     12728     12732
     12722     12720     12724     12726     12722     12720     12724     12727
     12722     12720     12724     12728     12723     12720     12724     12726
     12723     12720     12724     12727     12723     12720     12724     12728
     12724     12728     12732     12734     12724     12728     12732     12735
     12724     12728     12732     12736     12726     12724     12728     12730
     12726     12724     12728     12731     12726     12724     12728     12732
     12727     12724     12728     12730     12727     12724     12728     12731
     12727     12724     12728     12732     12728     12732     12736     12738
     12728     12732     12736     12739     12728     12732     12736     12740
     12730     12728     12732     12734     12730     12728     12732     12735
     12730     12728     12732     12736     12731     12728     12732     12734
     12731     12728     12732     12735     12731     12728     12732     12736
     12734     12732     12736     12738     12734     12732     12736     12739
     12734     12732     12736     12740     12735     12732     12736     12738
     12735     12732     12736     12739     12735     12732     12736     12740
     12741     12746     12750     12752     12741     12746     12750     12753
     12741     12746     12750     12762     12743     12741     12746     12748
     12743     12741     12746     12749     12743     12741     12746     12750
     12744     12741     12746     12748     12744     12741     12746     12749
     12744     12741     12746     12750     12745     12741     12746     12748
     12745     12741     12746     12749     12745     12741     12746     12750
     12746     12750     12762     12754     12748     12746     12750     12752
     12748     12746     12750     12753     12748     12746     12750     12762
     12749     12746     12750     12752     12749     12746     12750     12753
     12749     12746     12750     12762     12750     12762     12754     12756
     12750     12762     12754     12758     12750     12762     12754     12760
     12752     12750     12762     12754     12753     12750     12762     12754
     12754     12760     12764     12766     12754     12760     12764     12767
     12754     12760     12764     12768     12756     12754     12760     12764
     12758     12754     12760     12764     12760     12764     12768     12770
     12760     12764     12768     12771     12760     12764     12768     12785
     12762     12754     12760     12764     12764     12768     12771     12773
     12764     12768     12785     12787     12764     12768     12785     12788
     12764     12768     12785     12789     12766     12764     12768     12770
     12766     12764     12768     12771     12766     12764     12768     12785
     12767     12764     12768     12770     12767     12764     12768     12771
     12767     12764     12768     12785     12768     12771     12773     12775
     12768     12771     12773     12777     12768     12785     12789     12791
     12770     12768     12771     12773     12770     12768     12785     12787
     12770     12768     12785     12788     12770     12768     12785     12789
     12771     12768     12785     12787     12771     12768     12785     12788
     12771     12768     12785     12789     12771     12773     12777     12779
     12771     12773     12777     12780     12771     12773     12777     12803
     12773     12771     12768     12785     12773     12777     12803     12805
     12773     12777     12803     12806     12773     12777     12803     12807
     12775     12773     12777     12779     12775     12773     12777     12780
     12775     12773     12777     12803     12777     12803     12807     12809
     12777     12803     12807     12810     12777     12803     12807     12811
     12779     12777     12803     12805     12779     12777     12803     12806
     12779     12777     12803     12807     12780     12777     12803     12805
     12780     12777     12803     12806     12780     12777     12803     12807
     12785     12789     12791     12793     12785     12789     12791     12795
     12787     12785     12789     12791     12788     12785     12789     12791
     12789     12791     12795     12797     12789     12791     12795     12798
     12789     12791     12795     12866     12791     12795     12866     12868
     12791     12795     12866     12869     12791     12795     12866     12870
     12793     12791     12795     12797     12793     12791     12795     12798
     12793     12791     12795     12866     12795     12866     12870     12872
     12795     12866     12870     12873     12795     12866     12870     12874
     12797     12795     12866     12868     12797     12795     12866     12869
     12797     12795     12866     12870     12798     12795     12866     12868
     12798     12795     12866     12869     12798     12795     12866     12870
     12803     12807     12811     12813     12803     12807     12811     12814
     12803     12807     12811     12815     12805     12803     12807     12809
     12805     12803     12807     12810     12805     12803     12807     12811
     12806     12803     12807     12809     12806     12803     12807     12810
     12806     12803     12807     12811     12807     12811     12815     12817
     12807     12811     12815     12818     12807     12811     12815     12819
     12809     12807     12811     12813     12809     12807     12811     12814
     12809     12807     12811     12815     12810     12807     12811     12813
     12810     12807     12811     12814     12810     12807     12811     12815
     12811     12815     12819     12821     12811     12815     12819     12822
     12811     12815     12819     12823     12813     12811     12815     12817
     12813     12811     12815     12818     12813     12811     12815     12819
     12814     12811     12815     12817     12814     12811     12815     12818
     12814     12811     12815     12819     12815     12819     12823     12825
     12815     12819     12823     12826     12815     12819     12823     12827
     12817     12815     12819     12821     12817     12815     12819     12822
     12817     12815     12819     12823     12818     12815     12819     12821
     12818     12815     12819     12822     12818     12815     12819     12823
     12819     12823     12827     12829     12819     12823     12827     12830
     12821     12819     12823     12825     12821     12819     12823     12826
     12821     12819     12823     12827     12822     12819     12823     12825
     12822     12819     12823     12826     12822     12819     12823     12827
     12823     12827     12830     12832     12823     12827     12830     12833
     12825     12823     12827     12829     12825     12823     12827     12830
     12826     12823     12827     12829     12826     12823     12827     12830
     12827     12830     12833     12835     12827     12830     12833     12836
     12827     12830     12833     12837     12829     12827     12830     12832
     12829     12827     12830     12833     12830     12833     12837     12839
     12830     12833     12837     12840     12830     12833     12837     12841
     12832     12830     12833     12835     12832     12830     12833     12836
     12832     12830     12833     12837     12833     12837     12841     12843
     12833     12837     12841     12844     12833     12837     12841     12845
     12835     12833     12837     12839     12835     12833     12837     12840
     12835     12833     12837     12841     12836     12833     12837     12839
     12836     12833     12837     12840     12836     12833     12837     12841
     12837     12841     12845     12847     12837     12841     12845     12848
     12837     12841     12845     12849     12839     12837     12841     12843
     12839     12837     12841     12844     12839     12837     12841     12845
     12840     12837     12841     12843     12840     12837     12841     12844
     12840     12837     12841     12845     12841     12845     12849     12851
     12841     12845     12849     12852     12841     12845     12849     12853
     12843     12841     12845     12847     12843     12841     12845     12848
     12843     12841     12845     12849     12844     12841     12845     12847
     12844     12841     12845     12848     12844     12841     12845     12849
     12845     12849     12853     12855     12845     12849     12853     12856
     12845     12849     12853     12857     12847     12845     12849     12851
     12847     12845     12849     12852     12847     12845     12849     12853
     12848     12845     12849     12851     12848     12845     12849     12852
     12848     12845     12849     12853     12849     12853     12857     12859
     12849     12853     12857     12860     12849     12853     12857     12861
     12851     12849     12853     12855     12851     12849     12853     12856
     12851     12849     12853     12857     12852     12849     12853     12855
     12852     12849     12853     12856     12852     12849     12853     12857
     12853     12857     12861     12863     12853     12857     12861     12864
     12853     12857     12861     12865     12855     12853     12857     12859
     12855     12853     12857     12860     12855     12853     12857     12861
     12856     12853     12857     12859     12856     12853     12857     12860
     12856     12853     12857     12861     12859     12857     12861     12863
     12859     12857     12861     12864     12859     12857     12861     12865
     12860     12857     12861     12863     12860     12857     12861     12864
     12860     12857     12861     12865     12866     12870     12874     12876
     12866     12870     12874     12877     12866     12870     12874     12878
     12868     12866     12870     12872     12868     12866     12870     12873
     12868     12866     12870     12874     12869     12866     12870     12872
     12869     12866     12870     12873     12869     12866     12870     12874
     12870     12874     12878     12880     12870     12874     12878     12881
     12870     12874     12878     12882     12872     12870     12874     12876
     12872     12870     12874     12877     12872     12870     12874     12878
     12873     12870     12874     12876     12873     12870     12874     12877
     12873     12870     12874     12878     12874     12878     12882     12884
     12874     12878     12882     12885     12874     12878     12882     12886
     12876     12874     12878     12880     12876     12874     12878     12881
     12876     12874     12878     12882     12877     12874     12878     12880
     12877     12874     12878     12881     12877     12874     12878     12882
     12878     12882     12886     12888     12878     12882     12886     12889
     12878     12882     12886     12890     12880     12878     12882     12884
     12880     12878     12882     12885     12880     12878     12882     12886
     12881     12878     12882     12884     12881     12878     12882     12885
     12881     12878     12882     12886     12882     12886     12890     12892
     12882     12886     12890     12893     12882     12886     12890     12894
     12884     12882     12886     12888     12884     12882     12886     12889
     12884     12882     12886     12890     12885     12882     12886     12888
     12885     12882     12886     12889     12885     12882     12886     12890
     12886     12890     12894     12896     12886     12890     12894     12897
     12886     12890     12894     12898     12888     12886     12890     12892
     12888     12886     12890     12893     12888     12886     12890     12894
     12889     12886     12890     12892     12889     12886     12890     12893
     12889     12886     12890     12894     12890     12894     12898     12900
     12890     12894     12898     12901     12890     12894     12898     12902
     12892     12890     12894     12896     12892     12890     12894     12897
     12892     12890     12894     12898     12893     12890     12894     12896
     12893     12890     12894     12897     12893     12890     12894     12898
     12894     12898     12902     12904     12894     12898     12902     12905
     12894     12898     12902     12906     12896     12894     12898     12900
     12896     12894     12898     12901     12896     12894     12898     12902
     12897     12894     12898     12900     12897     12894     12898     12901
     12897     12894     12898     12902     12898     12902     12906     12908
     12898     12902     12906     12909     12898     12902     12906     12910
     12900     12898     12902     12904     12900     12898     12902     12905
     12900     12898     12902     12906     12901     12898     12902     12904
     12901     12898     12902     12905     12901     12898     12902     12906
     12902     12906     12910     12912     12902     12906     12910     12913
     12902     12906     12910     12914     12904     12902     12906     12908
     12904     12902     12906     12909     12904     12902     12906     12910
     12905     12902     12906     12908     12905     12902     12906     12909
     12905     12902     12906     12910     12906     12910     12914     12916
     12906     12910     12914     12917     12906     12910     12914     12918
     12908     12906     12910     12912     12908     12906     12910     12913
     12908     12906     12910     12914     12909     12906     12910     12912
     12909     12906     12910     12913     12909     12906     12910     12914
     12910     12914     12918     12920     12910     12914     12918     12921
     12910     12914     12918     12922     12912     12910     12914     12916
     12912     12910     12914     12917     12912     12910     12914     12918
     12913     12910     12914     12916     12913     12910     12914     12917
     12913     12910     12914     12918     12916     12914     12918     12920
     12916     12914     12918     12921     12916     12914     12918     12922
     12917     12914     12918     12920     12917     12914     12918     12921
     12917     12914     12918     12922     12923     12928     12932     12934
     12923     12928     12932     12935     12923     12928     12932     12944
     12925     12923     12928     12930     12925     12923     12928     12931
     12925     12923     12928     12932     12926     12923     12928     12930
     12926     12923     12928     12931     12926     12923     12928     12932
     12927     12923     12928     12930     12927     12923     12928     12931
     12927     12923     12928     12932     12928     12932     12944     12936
     12930     12928     12932     12934     12930     12928     12932     12935
     12930     12928     12932     12944     12931     12928     12932     12934
     12931     12928     12932     12935     12931     12928     12932     12944
     12932     12944     12936     12938     12932     12944     12936     12940
     12932     12944     12936     12942     12934     12932     12944     12936
     12935     12932     12944     12936     12936     12942     12946     12948
     12936     12942     12946     12949     12936     12942     12946     12950
     12938     12936     12942     12946     12940     12936     12942     12946
     12942     12946     12950     12952     12942     12946     12950     12953
     12942     12946     12950     12967     12944     12936     12942     12946
     12946     12950     12953     12955     12946     12950     12967     12969
     12946     12950     12967     12970     12946     12950     12967     12971
     12948     12946     12950     12952     12948     12946     12950     12953
     12948     12946     12950     12967     12949     12946     12950     12952
     12949     12946     12950     12953     12949     12946     12950     12967
     12950     12953     12955     12957     12950     12953     12955     12959
     12950     12967     12971     12973     12952     12950     12953     12955
     12952     12950     12967     12969     12952     12950     12967     12970
     12952     12950     12967     12971     12953     12950     12967     12969
     12953     12950     12967     12970     12953     12950     12967     12971
     12953     12955     12959     12961     12953     12955     12959     12962
     12953     12955     12959     12985     12955     12953     12950     12967
     12955     12959     12985     12987     12955     12959     12985     12988
     12955     12959     12985     12989     12957     12955     12959     12961
     12957     12955     12959     12962     12957     12955     12959     12985
     12959     12985     12989     12991     12959     12985     12989     12992
     12959     12985     12989     12993     12961     12959     12985     12987
     12961     12959     12985     12988     12961     12959     12985     12989
     12962     12959     12985     12987     12962     12959     12985     12988
     12962     12959     12985     12989     12967     12971     12973     12975
     12967     12971     12973     12977     12969     12967     12971     12973
     12970     12967     12971     12973     12971     12973     12977     12979
     12971     12973     12977     12980     12971     12973     12977     13048
     12973     12977     13048     13050     12973     12977     13048     13051
     12973     12977     13048     13052     12975     12973     12977     12979
     12975     12973     12977     12980     12975     12973     12977     13048
     12977     13048     13052     13054     12977     13048     13052     13055
     12977     13048     13052     13056     12979     12977     13048     13050
     12979     12977     13048     13051     12979     12977     13048     13052
     12980     12977     13048     13050     12980     12977     13048     13051
     12980     12977     13048     13052     12985     12989     12993     12995
     12985     12989     12993     12996     12985     12989     12993     12997
     12987     12985     12989     12991     12987     12985     12989     12992
     12987     12985     12989     12993     12988     12985     12989     12991
     12988     12985     12989     12992     12988     12985     12989     12993
     12989     12993     12997     12999     12989     12993     12997     13000
     12989     12993     12997     13001     12991     12989     12993     12995
     12991     12989     12993     12996     12991     12989     12993     12997
     12992     12989     12993     12995     12992     12989     12993     12996
     12992     12989     12993     12997     12993     12997     13001     13003
     12993     12997     13001     13004     12993     12997     13001     13005
     12995     12993     12997     12999     12995     12993     12997     13000
     12995     12993     12997     13001     12996     12993     12997     12999
     12996     12993     12997     13000     12996     12993     12997     13001
     12997     13001     13005     13007     12997     13001     13005     13008
     12997     13001     13005     13009     12999     12997     13001     13003
     12999     12997     13001     13004     12999     12997     13001     13005
     13000     12997     13001     13003     13000     12997     13001     13004
     13000     12997     13001     13005     13001     13005     13009     13011
     13001     13005     13009     13012     13003     13001     13005     13007
     13003     13001     13005     13008     13003     13001     13005     13009
     13004     13001     13005     13007     13004     13001     13005     13008
     13004     13001     13005     13009     13005     13009     13012     13014
     13005     13009     13012     13015     13007     13005     13009     13011
     13007     13005     13009     13012     13008     13005     13009     13011
     13008     13005     13009     13012     13009     13012     13015     13017
     13009     13012     13015     13018     13009     13012     13015     13019
     13011     13009     13012     13014     13011     13009     13012     13015
     13012     13015     13019     13021     13012     13015     13019     13022
     13012     13015     13019     13023     13014     13012     13015     13017
     13014     13012     13015     13018     13014     13012     13015     13019
     13015     13019     13023     13025     13015     13019     13023     13026
     13015     13019     13023     13027     13017     13015     13019     13021
     13017     13015     13019     13022     13017     13015     13019     13023
     13018     13015     13019     13021     13018     13015     13019     13022
     13018     13015     13019     13023     13019     13023     13027     13029
     13019     13023     13027     13030     13019     13023     13027     13031
     13021     13019     13023     13025     13021     13019     13023     13026
     13021     13019     13023     13027     13022     13019     13023     13025
     13022     13019     13023     13026     13022     13019     13023     13027
     13023     13027     13031     13033     13023     13027     13031     13034
     13023     13027     13031     13035     13025     13023     13027     13029
     13025     13023     13027     13030     13025     13023     13027     13031
     13026     13023     13027     13029     13026     13023     13027     13030
     13026     13023     13027     13031     13027     13031     13035     13037
     13027     13031     13035     13038     13027     13031     13035     13039
     13029     13027     13031     13033     13029     13027     13031     13034
     13029     13027     13031     13035     13030     13027     13031     13033
     13030     13027     13031     13034     13030     13027     13031     13035
     13031     13035     13039     13041     13031     13035     13039     13042
     13031     13035     13039     13043     13033     13031     13035     13037
     13033     13031     13035     13038     13033     13031     13035     13039
     13034     13031     13035     13037     13034     13031     13035     13038
     13034     13031     13035     13039     13035     13039     13043     13045
     13035     13039     13043     13046     13035     13039     13043     13047
     13037     13035     13039     13041     13037     13035     13039     13042
     13037     13035     13039     13043     13038     13035     13039     13041
     13038     13035     13039     13042     13038     13035     13039     13043
     13041     13039     13043     13045     13041     13039     13043     13046
     13041     13039     13043     13047     13042     13039     13043     13045
     13042     13039     13043     13046     13042     13039     13043     13047
     13048     13052     13056     13058     13048     13052     13056     13059
     13048     13052     13056     13060     13050     13048     13052     13054
     13050     13048     13052     13055     13050     13048     13052     13056
     13051     13048     13052     13054     13051     13048     13052     13055
     13051     13048     13052     13056     13052     13056     13060     13062
     13052     13056     13060     13063     13052     13056     13060     13064
     13054     13052     13056     13058     13054     13052     13056     13059
     13054     13052     13056     13060     13055     13052     13056     13058
     13055     13052     13056     13059     13055     13052     13056     13060
     13056     13060     13064     13066     13056     13060     13064     13067
     13056     13060     13064     13068     13058     13056     13060     13062
     13058     13056     13060     13063     13058     13056     13060     13064
     13059     13056     13060     13062     13059     13056     13060     13063
     13059     13056     13060     13064     13060     13064     13068     13070
     13060     13064     13068     13071     13060     13064     13068     13072
     13062     13060     13064     13066     13062     13060     13064     13067
     13062     13060     13064     13068     13063     13060     13064     13066
     13063     13060     13064     13067     13063     13060     13064     13068
     13064     13068     13072     13074     13064     13068     13072     13075
     13064     13068     13072     13076     13066     13064     13068     13070
     13066     13064     13068     13071     13066     13064     13068     13072
     13067     13064     13068     13070     13067     13064     13068     13071
     13067     13064     13068     13072     13068     13072     13076     13078
     13068     13072     13076     13079     13068     13072     13076     13080
     13070     13068     13072     13074     13070     13068     13072     13075
     13070     13068     13072     13076     13071     13068     13072     13074
     13071     13068     13072     13075     13071     13068     13072     13076
     13072     13076     13080     13082     13072     13076     13080     13083
     13072     13076     13080     13084     13074     13072     13076     13078
     13074     13072     13076     13079     13074     13072     13076     13080
     13075     13072     13076     13078     13075     13072     13076     13079
     13075     13072     13076     13080     13076     13080     13084     13086
     13076     13080     13084     13087     13076     13080     13084     13088
     13078     13076     13080     13082     13078     13076     13080     13083
     13078     13076     13080     13084     13079     13076     13080     13082
     13079     13076     13080     13083     13079     13076     13080     13084
     13080     13084     13088     13090     13080     13084     13088     13091
     13080     13084     13088     13092     13082     13080     13084     13086
     13082     13080     13084     13087     13082     13080     13084     13088
     13083     13080     13084     13086     13083     13080     13084     13087
     13083     13080     13084     13088     13084     13088     13092     13094
     13084     13088     13092     13095     13084     13088     13092     13096
     13086     13084     13088     13090     13086     13084     13088     13091
     13086     13084     13088     13092     13087     13084     13088     13090
     13087     13084     13088     13091     13087     13084     13088     13092
     13088     13092     13096     13098     13088     13092     13096     13099
     13088     13092     13096     13100     13090     13088     13092     13094
     13090     13088     13092     13095     13090     13088     13092     13096
     13091     13088     13092     13094     13091     13088     13092     13095
     13091     13088     13092     13096     13092     13096     13100     13102
     13092     13096     13100     13103     13092     13096     13100     13104
     13094     13092     13096     13098     13094     13092     13096     13099
     13094     13092     13096     13100     13095     13092     13096     13098
     13095     13092     13096     13099     13095     13092     13096     13100
     13098     13096     13100     13102     13098     13096     13100     13103
     13098     13096     13100     13104     13099     13096     13100     13102
     13099     13096     13100     13103     13099     13096     13100     13104
     13105     13110     13114     13116     13105     13110     13114     13117
     13105     13110     13114     13126     13107     13105     13110     13112
     13107     13105     13110     13113     13107     13105     13110     13114
     13108     13105     13110     13112     13108     13105     13110     13113
     13108     13105     13110     13114     13109     13105     13110     13112
     13109     13105     13110     13113     13109     13105     13110     13114
     13110     13114     13126     13118     13112     13110     13114     13116
     13112     13110     13114     13117     13112     13110     13114     13126
     13113     13110     13114     13116     13113     13110     13114     13117
     13113     13110     13114     13126     13114     13126     13118     13120
     13114     13126     13118     13122     13114     13126     13118     13124
     13116     13114     13126     13118     13117     13114     13126     13118
     13118     13124     13128     13130     13118     13124     13128     13131
     13118     13124     13128     13132     13120     13118     13124     13128
     13122     13118     13124     13128     13124     13128     13132     13134
     13124     13128     13132     13135     13124     13128     13132     13149
     13126     13118     13124     13128     13128     13132     13135     13137
     13128     13132     13149     13151     13128     13132     13149     13152
     13128     13132     13149     13153     13130     13128     13132     13134
     13130     13128     13132     13135     13130     13128     13132     13149
     13131     13128     13132     13134     13131     13128     13132     13135
     13131     13128     13132     13149     13132     13135     13137     13139
     13132     13135     13137     13141     13132     13149     13153     13155
     13134     13132     13135     13137     13134     13132     13149     13151
     13134     13132     13149     13152     13134     13132     13149     13153
     13135     13132     13149     13151     13135     13132     13149     13152
     13135     13132     13149     13153     13135     13137     13141     13143
     13135     13137     13141     13144     13135     13137     13141     13167
     13137     13135     13132     13149     13137     13141     13167     13169
     13137     13141     13167     13170     13137     13141     13167     13171
     13139     13137     13141     13143     13139     13137     13141     13144
     13139     13137     13141     13167     13141     13167     13171     13173
     13141     13167     13171     13174     13141     13167     13171     13175
     13143     13141     13167     13169     13143     13141     13167     13170
     13143     13141     13167     13171     13144     13141     13167     13169
     13144     13141     13167     13170     13144     13141     13167     13171
     13149     13153     13155     13157     13149     13153     13155     13159
     13151     13149     13153     13155     13152     13149     13153     13155
     13153     13155     13159     13161     13153     13155     13159     13162
     13153     13155     13159     13230     13155     13159     13230     13232
     13155     13159     13230     13233     13155     13159     13230     13234
     13157     13155     13159     13161     13157     13155     13159     13162
     13157     13155     13159     13230     13159     13230     13234     13236
     13159     13230     13234     13237     13159     13230     13234     13238
     13161     13159     13230     13232     13161     13159     13230     13233
     13161     13159     13230     13234     13162     13159     13230     13232
     13162     13159     13230     13233     13162     13159     13230     13234
     13167     13171     13175     13177     13167     13171     13175     13178
     13167     13171     13175     13179     13169     13167     13171     13173
     13169     13167     13171     13174     13169     13167     13171     13175
     13170     13167     13171     13173     13170     13167     13171     13174
     13170     13167     13171     13175     13171     13175     13179     13181
     13171     13175     13179     13182     13171     13175     13179     13183
     13173     13171     13175     13177     13173     13171     13175     13178
     13173     13171     13175     13179     13174     13171     13175     13177
     13174     13171     13175     13178     13174     13171     13175     13179
     13175     13179     13183     13185     13175     13179     13183     13186
     13175     13179     13183     13187     13177     13175     13179     13181
     13177     13175     13179     13182     13177     13175     13179     13183
     13178     13175     13179     13181     13178     13175     13179     13182
     13178     13175     13179     13183     13179     13183     13187     13189
     13179     13183     13187     13190     13179     13183     13187     13191
     13181     13179     13183     13185     13181     13179     13183     13186
     13181     13179     13183     13187     13182     13179     13183     13185
     13182     13179     13183     13186     13182     13179     13183     13187
     13183     13187     13191     13193     13183     13187     13191     13194
     13185     13183     13187     13189     13185     13183     13187     13190
     13185     13183     13187     13191     13186     13183     13187     13189
     13186     13183     13187     13190     13186     13183     13187     13191
     13187     13191     13194     13196     13187     13191     13194     13197
     13189     13187     13191     13193     13189     13187     13191     13194
     13190     13187     13191     13193     13190     13187     13191     13194
     13191     13194     13197     13199     13191     13194     13197     13200
     13191     13194     13197     13201     13193     13191     13194     13196
     13193     13191     13194     13197     13194     13197     13201     13203
     13194     13197     13201     13204     13194     13197     13201     13205
     13196     13194     13197     13199     13196     13194     13197     13200
     13196     13194     13197     13201     13197     13201     13205     13207
     13197     13201     13205     13208     13197     13201     13205     13209
     13199     13197     13201     13203     13199     13197     13201     13204
     13199     13197     13201     13205     13200     13197     13201     13203
     13200     13197     13201     13204     13200     13197     13201     13205
     13201     13205     13209     13211     13201     13205     13209     13212
     13201     13205     13209     13213     13203     13201     13205     13207
     13203     13201     13205     13208     13203     13201     13205     13209
     13204     13201     13205     13207     13204     13201     13205     13208
     13204     13201     13205     13209     13205     13209     13213     13215
     13205     13209     13213     13216     13205     13209     13213     13217
     13207     13205     13209     13211     13207     13205     13209     13212
     13207     13205     13209     13213     13208     13205     13209     13211
     13208     13205     13209     13212     13208     13205     13209     13213
     13209     13213     13217     13219     13209     13213     13217     13220
     13209     13213     13217     13221     13211     13209     13213     13215
     13211     13209     13213     13216     13211     13209     13213     13217
     13212     13209     13213     13215     13212     13209     13213     13216
     13212     13209     13213     13217     13213     13217     13221     13223
     13213     13217     13221     13224     13213     13217     13221     13225
     13215     13213     13217     13219     13215     13213     13217     13220
     13215     13213     13217     13221     13216     13213     13217     13219
     13216     13213     13217     13220     13216     13213     13217     13221
     13217     13221     13225     13227     13217     13221     13225     13228
     13217     13221     13225     13229     13219     13217     13221     13223
     13219     13217     13221     13224     13219     13217     13221     13225
     13220     13217     13221     13223     13220     13217     13221     13224
     13220     13217     13221     13225     13223     13221     13225     13227
     13223     13221     13225     13228     13223     13221     13225     13229
     13224     13221     13225     13227     13224     13221     13225     13228
     13224     13221     13225     13229     13230     13234     13238     13240
     13230     13234     13238     13241     13230     13234     13238     13242
     13232     13230     13234     13236     13232     13230     13234     13237
     13232     13230     13234     13238     13233     13230     13234     13236
     13233     13230     13234     13237     13233     13230     13234     13238
     13234     13238     13242     13244     13234     13238     13242     13245
     13234     13238     13242     13246     13236     13234     13238     13240
     13236     13234     13238     13241     13236     13234     13238     13242
     13237     13234     13238     13240     13237     13234     13238     13241
     13237     13234     13238     13242     13238     13242     13246     13248
     13238     13242     13246     13249     13238     13242     13246     13250
     13240     13238     13242     13244     13240     13238     13242     13245
     13240     13238     13242     13246     13241     13238     13242     13244
     13241     13238     13242     13245     13241     13238     13242     13246
     13242     13246     13250     13252     13242     13246     13250     13253
     13242     13246     13250     13254     13244     13242     13246     13248
     13244     13242     13246     13249     13244     13242     13246     13250
     13245     13242     13246     13248     13245     13242     13246     13249
     13245     13242     13246     13250     13246     13250     13254     13256
     13246     13250     13254     13257     13246     13250     13254     13258
     13248     13246     13250     13252     13248     13246     13250     13253
     13248     13246     13250     13254     13249     13246     13250     13252
     13249     13246     13250     13253     13249     13246     13250     13254
     13250     13254     13258     13260     13250     13254     13258     13261
     13250     13254     13258     13262     13252     13250     13254     13256
     13252     13250     13254     13257     13252     13250     13254     13258
     13253     13250     13254     13256     13253     13250     13254     13257
     13253     13250     13254     13258     13254     13258     13262     13264
     13254     13258     13262     13265     13254     13258     13262     13266
     13256     13254     13258     13260     13256     13254     13258     13261
     13256     13254     13258     13262     13257     13254     13258     13260
     13257     13254     13258     13261     13257     13254     13258     13262
     13258     13262     13266     13268     13258     13262     13266     13269
     13258     13262     13266     13270     13260     13258     13262     13264
     13260     13258     13262     13265     13260     13258     13262     13266
     13261     13258     13262     13264     13261     13258     13262     13265
     13261     13258     13262     13266     13262     13266     13270     13272
     13262     13266     13270     13273     13262     13266     13270     13274
     13264     13262     13266     13268     13264     13262     13266     13269
     13264     13262     13266     13270     13265     13262     13266     13268
     13265     13262     13266     13269     13265     13262     13266     13270
     13266     13270     13274     13276     13266     13270     13274     13277
     13266     13270     13274     13278     13268     13266     13270     13272
     13268     13266     13270     13273     13268     13266     13270     13274
     13269     13266     13270     13272     13269     13266     13270     13273
     13269     13266     13270     13274     13270     13274     13278     13280
     13270     13274     13278     13281     13270     13274     13278     13282
     13272     13270     13274     13276     13272     13270     13274     13277
     13272     13270     13274     13278     13273     13270     13274     13276
     13273     13270     13274     13277     13273     13270     13274     13278
     13274     13278     13282     13284     13274     13278     13282     13285
     13274     13278     13282     13286     13276     13274     13278     13280
     13276     13274     13278     13281     13276     13274     13278     13282
     13277     13274     13278     13280     13277     13274     13278     13281
     13277     13274     13278     13282     13280     13278     13282     13284
     13280     13278     13282     13285     13280     13278     13282     13286
     13281     13278     13282     13284     13281     13278     13282     13285
     13281     13278     13282     13286     13287     13292     13296     13298
     13287     13292     13296     13299     13287     13292     13296     13308
     13289     13287     13292     13294     13289     13287     13292     13295
     13289     13287     13292     13296     13290     13287     13292     13294
     13290     13287     13292     13295     13290     13287     13292     13296
     13291     13287     13292     13294     13291     13287     13292     13295
     13291     13287     13292     13296     13292     13296     13308     13300
     13294     13292     13296     13298     13294     13292     13296     13299
     13294     13292     13296     13308     13295     13292     13296     13298
     13295     13292     13296     13299     13295     13292     13296     13308
     13296     13308     13300     13302     13296     13308     13300     13304
     13296     13308     13300     13306     13298     13296     13308     13300
     13299     13296     13308     13300     13300     13306     13310     13312
     13300     13306     13310     13313     13300     13306     13310     13314
     13302     13300     13306     13310     13304     13300     13306     13310
     13306     13310     13314     13316     13306     13310     13314     13317
     13306     13310     13314     13331     13308     13300     13306     13310
     13310     13314     13317     13319     13310     13314     13331     13333
     13310     13314     13331     13334     13310     13314     13331     13335
     13312     13310     13314     13316     13312     13310     13314     13317
     13312     13310     13314     13331     13313     13310     13314     13316
     13313     13310     13314     13317     13313     13310     13314     13331
     13314     13317     13319     13321     13314     13317     13319     13323
     13314     13331     13335     13337     13316     13314     13317     13319
     13316     13314     13331     13333     13316     13314     13331     13334
     13316     13314     13331     13335     13317     13314     13331     13333
     13317     13314     13331     13334     13317     13314     13331     13335
     13317     13319     13323     13325     13317     13319     13323     13326
     13317     13319     13323     13349     13319     13317     13314     13331
     13319     13323     13349     13351     13319     13323     13349     13352
     13319     13323     13349     13353     13321     13319     13323     13325
     13321     13319     13323     13326     13321     13319     13323     13349
     13323     13349     13353     13355     13323     13349     13353     13356
     13323     13349     13353     13357     13325     13323     13349     13351
     13325     13323     13349     13352     13325     13323     13349     13353
     13326     13323     13349     13351     13326     13323     13349     13352
     13326     13323     13349     13353     13331     13335     13337     13339
     13331     13335     13337     13341     13333     13331     13335     13337
     13334     13331     13335     13337     13335     13337     13341     13343
     13335     13337     13341     13344     13335     13337     13341     13412
     13337     13341     13412     13414     13337     13341     13412     13415
     13337     13341     13412     13416     13339     13337     13341     13343
     13339     13337     13341     13344     13339     13337     13341     13412
     13341     13412     13416     13418     13341     13412     13416     13419
     13341     13412     13416     13420     13343     13341     13412     13414
     13343     13341     13412     13415     13343     13341     13412     13416
     13344     13341     13412     13414     13344     13341     13412     13415
     13344     13341     13412     13416     13349     13353     13357     13359
     13349     13353     13357     13360     13349     13353     13357     13361
     13351     13349     13353     13355     13351     13349     13353     13356
     13351     13349     13353     13357     13352     13349     13353     13355
     13352     13349     13353     13356     13352     13349     13353     13357
     13353     13357     13361     13363     13353     13357     13361     13364
     13353     13357     13361     13365     13355     13353     13357     13359
     13355     13353     13357     13360     13355     13353     13357     13361
     13356     13353     13357     13359     13356     13353     13357     13360
     13356     13353     13357     13361     13357     13361     13365     13367
     13357     13361     13365     13368     13357     13361     13365     13369
     13359     13357     13361     13363     13359     13357     13361     13364
     13359     13357     13361     13365     13360     13357     13361     13363
     13360     13357     13361     13364     13360     13357     13361     13365
     13361     13365     13369     13371     13361     13365     13369     13372
     13361     13365     13369     13373     13363     13361     13365     13367
     13363     13361     13365     13368     13363     13361     13365     13369
     13364     13361     13365     13367     13364     13361     13365     13368
     13364     13361     13365     13369     13365     13369     13373     13375
     13365     13369     13373     13376     13367     13365     13369     13371
     13367     13365     13369     13372     13367     13365     13369     13373
     13368     13365     13369     13371     13368     13365     13369     13372
     13368     13365     13369     13373     13369     13373     13376     13378
     13369     13373     13376     13379     13371     13369     13373     13375
     13371     13369     13373     13376     13372     13369     13373     13375
     13372     13369     13373     13376     13373     13376     13379     13381
     13373     13376     13379     13382     13373     13376     13379     13383
     13375     13373     13376     13378     13375     13373     13376     13379
     13376     13379     13383     13385     13376     13379     13383     13386
     13376     13379     13383     13387     13378     13376     13379     13381
     13378     13376     13379     13382     13378     13376     13379     13383
     13379     13383     13387     13389     13379     13383     13387     13390
     13379     13383     13387     13391     13381     13379     13383     13385
     13381     13379     13383     13386     13381     13379     13383     13387
     13382     13379     13383     13385     13382     13379     13383     13386
     13382     13379     13383     13387     13383     13387     13391     13393
     13383     13387     13391     13394     13383     13387     13391     13395
     13385     13383     13387     13389     13385     13383     13387     13390
     13385     13383     13387     13391     13386     13383     13387     13389
     13386     13383     13387     13390     13386     13383     13387     13391
     13387     13391     13395     13397     13387     13391     13395     13398
     13387     13391     13395     13399     13389     13387     13391     13393
     13389     13387     13391     13394     13389     13387     13391     13395
     13390     13387     13391     13393     13390     13387     13391     13394
     13390     13387     13391     13395     13391     13395     13399     13401
     13391     13395     13399     13402     13391     13395     13399     13403
     13393     13391     13395     13397     13393     13391     13395     13398
     13393     13391     13395     13399     13394     13391     13395     13397
     13394     13391     13395     13398     13394     13391     13395     13399
     13395     13399     13403     13405     13395     13399     13403     13406
     13395     13399     13403     13407     13397     13395     13399     13401
     13397     13395     13399     13402     13397     13395     13399     13403
     13398     13395     13399     13401     13398     13395     13399     13402
     13398     13395     13399     13403     13399     13403     13407     13409
     13399     13403     13407     13410     13399     13403     13407     13411
     13401     13399     13403     13405     13401     13399     13403     13406
     13401     13399     13403     13407     13402     13399     13403     13405
     13402     13399     13403     13406     13402     13399     13403     13407
     13405     13403     13407     13409     13405     13403     13407     13410
     13405     13403     13407     13411     13406     13403     13407     13409
     13406     13403     13407     13410     13406     13403     13407     13411
     13412     13416     13420     13422     13412     13416     13420     13423
     13412     13416     13420     13424     13414     13412     13416     13418
     13414     13412     13416     13419     13414     13412     13416     13420
     13415     13412     13416     13418     13415     13412     13416     13419
     13415     13412     13416     13420     13416     13420     13424     13426
     13416     13420     13424     13427     13416     13420     13424     13428
     13418     13416     13420     13422     13418     13416     13420     13423
     13418     13416     13420     13424     13419     13416     13420     13422
     13419     13416     13420     13423     13419     13416     13420     13424
     13420     13424     13428     13430     13420     13424     13428     13431
     13420     13424     13428     13432     13422     13420     13424     13426
     13422     13420     13424     13427     13422     13420     13424     13428
     13423     13420     13424     13426     13423     13420     13424     13427
     13423     13420     13424     13428     13424     13428     13432     13434
     13424     13428     13432     13435     13424     13428     13432     13436
     13426     13424     13428     13430     13426     13424     13428     13431
     13426     13424     13428     13432     13427     13424     13428     13430
     13427     13424     13428     13431     13427     13424     13428     13432
     13428     13432     13436     13438     13428     13432     13436     13439
     13428     13432     13436     13440     13430     13428     13432     13434
     13430     13428     13432     13435     13430     13428     13432     13436
     13431     13428     13432     13434     13431     13428     13432     13435
     13431     13428     13432     13436     13432     13436     13440     13442
     13432     13436     13440     13443     13432     13436     13440     13444
     13434     13432     13436     13438     13434     13432     13436     13439
     13434     13432     13436     13440     13435     13432     13436     13438
     13435     13432     13436     13439     13435     13432     13436     13440
     13436     13440     13444     13446     13436     13440     13444     13447
     13436     13440     13444     13448     13438     13436     13440     13442
     13438     13436     13440     13443     13438     13436     13440     13444
     13439     13436     13440     13442     13439     13436     13440     13443
     13439     13436     13440     13444     13440     13444     13448     13450
     13440     13444     13448     13451     13440     13444     13448     13452
     13442     13440     13444     13446     13442     13440     13444     13447
     13442     13440     13444     13448     13443     13440     13444     13446
     13443     13440     13444     13447     13443     13440     13444     13448
     13444     13448     13452     13454     13444     13448     13452     13455
     13444     13448     13452     13456     13446     13444     13448     13450
     13446     13444     13448     13451     13446     13444     13448     13452
     13447     13444     13448     13450     13447     13444     13448     13451
     13447     13444     13448     13452     13448     13452     13456     13458
     13448     13452     13456     13459     13448     13452     13456     13460
     13450     13448     13452     13454     13450     13448     13452     13455
     13450     13448     13452     13456     13451     13448     13452     13454
     13451     13448     13452     13455     13451     13448     13452     13456
     13452     13456     13460     13462     13452     13456     13460     13463
     13452     13456     13460     13464     13454     13452     13456     13458
     13454     13452     13456     13459     13454     13452     13456     13460
     13455     13452     13456     13458     13455     13452     13456     13459
     13455     13452     13456     13460     13456     13460     13464     13466
     13456     13460     13464     13467     13456     13460     13464     13468
     13458     13456     13460     13462     13458     13456     13460     13463
     13458     13456     13460     13464     13459     13456     13460     13462
     13459     13456     13460     13463     13459     13456     13460     13464
     13462     13460     13464     13466     13462     13460     13464     13467
     13462     13460     13464     13468     13463     13460     13464     13466
     13463     13460     13464     13467     13463     13460     13464     13468
     13469     13474     13478     13480     13469     13474     13478     13481
     13469     13474     13478     13490     13471     13469     13474     13476
     13471     13469     13474     13477     13471     13469     13474     13478
     13472     13469     13474     13476     13472     13469     13474     13477
     13472     13469     13474     13478     13473     13469     13474     13476
     13473     13469     13474     13477     13473     13469     13474     13478
     13474     13478     13490     13482     13476     13474     13478     13480
     13476     13474     13478     13481     13476     13474     13478     13490
     13477     13474     13478     13480     13477     13474     13478     13481
     13477     13474     13478     13490     13478     13490     13482     13484
     13478     13490     13482     13486     13478     13490     13482     13488
     13480     13478     13490     13482     13481     13478     13490     13482
     13482     13488     13492     13494     13482     13488     13492     13495
     13482     13488     13492     13496     13484     13482     13488     13492
     13486     13482     13488     13492     13488     13492     13496     13498
     13488     13492     13496     13499     13488     13492     13496     13513
     13490     13482     13488     13492     13492     13496     13499     13501
     13492     13496     13513     13515     13492     13496     13513     13516
     13492     13496     13513     13517     13494     13492     13496     13498
     13494     13492     13496     13499     13494     13492     13496     13513
     13495     13492     13496     13498     13495     13492     13496     13499
     13495     13492     13496     13513     13496     13499     13501     13503
     13496     13499     13501     13505     13496     13513     13517     13519
     13498     13496     13499     13501     13498     13496     13513     13515
     13498     13496     13513     13516     13498     13496     13513     13517
     13499     13496     13513     13515     13499     13496     13513     13516
     13499     13496     13513     13517     13499     13501     13505     13507
     13499     13501     13505     13508     13499     13501     13505     13531
     13501     13499     13496     13513     13501     13505     13531     13533
     13501     13505     13531     13534     13501     13505     13531     13535
     13503     13501     13505     13507     13503     13501     13505     13508
     13503     13501     13505     13531     13505     13531     13535     13537
     13505     13531     13535     13538     13505     13531     13535     13539
     13507     13505     13531     13533     13507     13505     13531     13534
     13507     13505     13531     13535     13508     13505     13531     13533
     13508     13505     13531     13534     13508     13505     13531     13535
     13513     13517     13519     13521     13513     13517     13519     13523
     13515     13513     13517     13519     13516     13513     13517     13519
     13517     13519     13523     13525     13517     13519     13523     13526
     13517     13519     13523     13594     13519     13523     13594     13596
     13519     13523     13594     13597     13519     13523     13594     13598
     13521     13519     13523     13525     13521     13519     13523     13526
     13521     13519     13523     13594     13523     13594     13598     13600
     13523     13594     13598     13601     13523     13594     13598     13602
     13525     13523     13594     13596     13525     13523     13594     13597
     13525     13523     13594     13598     13526     13523     13594     13596
     13526     13523     13594     13597     13526     13523     13594     13598
     13531     13535     13539     13541     13531     13535     13539     13542
     13531     13535     13539     13543     13533     13531     13535     13537
     13533     13531     13535     13538     13533     13531     13535     13539
     13534     13531     13535     13537     13534     13531     13535     13538
     13534     13531     13535     13539     13535     13539     13543     13545
     13535     13539     13543     13546     13535     13539     13543     13547
     13537     13535     13539     13541     13537     13535     13539     13542
     13537     13535     13539     13543     13538     13535     13539     13541
     13538     13535     13539     13542     13538     13535     13539     13543
     13539     13543     13547     13549     13539     13543     13547     13550
     13539     13543     13547     13551     13541     13539     13543     13545
     13541     13539     13543     13546     13541     13539     13543     13547
     13542     13539     13543     13545     13542     13539     13543     13546
     13542     13539     13543     13547     13543     13547     13551     13553
     13543     13547     13551     13554     13543     13547     13551     13555
     13545     13543     13547     13549     13545     13543     13547     13550
     13545     13543     13547     13551     13546     13543     13547     13549
     13546     13543     13547     13550     13546     13543     13547     13551
     13547     13551     13555     13557     13547     13551     13555     13558
     13549     13547     13551     13553     13549     13547     13551     13554
     13549     13547     13551     13555     13550     13547     13551     13553
     13550     13547     13551     13554     13550     13547     13551     13555
     13551     13555     13558     13560     13551     13555     13558     13561
     13553     13551     13555     13557     13553     13551     13555     13558
     13554     13551     13555     13557     13554     13551     13555     13558
     13555     13558     13561     13563     13555     13558     13561     13564
     13555     13558     13561     13565     13557     13555     13558     13560
     13557     13555     13558     13561     13558     13561     13565     13567
     13558     13561     13565     13568     13558     13561     13565     13569
     13560     13558     13561     13563     13560     13558     13561     13564
     13560     13558     13561     13565     13561     13565     13569     13571
     13561     13565     13569     13572     13561     13565     13569     13573
     13563     13561     13565     13567     13563     13561     13565     13568
     13563     13561     13565     13569     13564     13561     13565     13567
     13564     13561     13565     13568     13564     13561     13565     13569
     13565     13569     13573     13575     13565     13569     13573     13576
     13565     13569     13573     13577     13567     13565     13569     13571
     13567     13565     13569     13572     13567     13565     13569     13573
     13568     13565     13569     13571     13568     13565     13569     13572
     13568     13565     13569     13573     13569     13573     13577     13579
     13569     13573     13577     13580     13569     13573     13577     13581
     13571     13569     13573     13575     13571     13569     13573     13576
     13571     13569     13573     13577     13572     13569     13573     13575
     13572     13569     13573     13576     13572     13569     13573     13577
     13573     13577     13581     13583     13573     13577     13581     13584
     13573     13577     13581     13585     13575     13573     13577     13579
     13575     13573     13577     13580     13575     13573     13577     13581
     13576     13573     13577     13579     13576     13573     13577     13580
     13576     13573     13577     13581     13577     13581     13585     13587
     13577     13581     13585     13588     13577     13581     13585     13589
     13579     13577     13581     13583     13579     13577     13581     13584
     13579     13577     13581     13585     13580     13577     13581     13583
     13580     13577     13581     13584     13580     13577     13581     13585
     13581     13585     13589     13591     13581     13585     13589     13592
     13581     13585     13589     13593     13583     13581     13585     13587
     13583     13581     13585     13588     13583     13581     13585     13589
     13584     13581     13585     13587     13584     13581     13585     13588
     13584     13581     13585     13589     13587     13585     13589     13591
     13587     13585     13589     13592     13587     13585     13589     13593
     13588     13585     13589     13591     13588     13585     13589     13592
     13588     13585     13589     13593     13594     13598     13602     13604
     13594     13598     13602     13605     13594     13598     13602     13606
     13596     13594     13598     13600     13596     13594     13598     13601
     13596     13594     13598     13602     13597     13594     13598     13600
     13597     13594     13598     13601     13597     13594     13598     13602
     13598     13602     13606     13608     13598     13602     13606     13609
     13598     13602     13606     13610     13600     13598     13602     13604
     13600     13598     13602     13605     13600     13598     13602     13606
     13601     13598     13602     13604     13601     13598     13602     13605
     13601     13598     13602     13606     13602     13606     13610     13612
     13602     13606     13610     13613     13602     13606     13610     13614
     13604     13602     13606     13608     13604     13602     13606     13609
     13604     13602     13606     13610     13605     13602     13606     13608
     13605     13602     13606     13609     13605     13602     13606     13610
     13606     13610     13614     13616     13606     13610     13614     13617
     13606     13610     13614     13618     13608     13606     13610     13612
     13608     13606     13610     13613     13608     13606     13610     13614
     13609     13606     13610     13612     13609     13606     13610     13613
     13609     13606     13610     13614     13610     13614     13618     13620
     13610     13614     13618     13621     13610     13614     13618     13622
     13612     13610     13614     13616     13612     13610     13614     13617
     13612     13610     13614     13618     13613     13610     13614     13616
     13613     13610     13614     13617     13613     13610     13614     13618
     13614     13618     13622     13624     13614     13618     13622     13625
     13614     13618     13622     13626     13616     13614     13618     13620
     13616     13614     13618     13621     13616     13614     13618     13622
     13617     13614     13618     13620     13617     13614     13618     13621
     13617     13614     13618     13622     13618     13622     13626     13628
     13618     13622     13626     13629     13618     13622     13626     13630
     13620     13618     13622     13624     13620     13618     13622     13625
     13620     13618     13622     13626     13621     13618     13622     13624
     13621     13618     13622     13625     13621     13618     13622     13626
     13622     13626     13630     13632     13622     13626     13630     13633
     13622     13626     13630     13634     13624     13622     13626     13628
     13624     13622     13626     13629     13624     13622     13626     13630
     13625     13622     13626     13628     13625     13622     13626     13629
     13625     13622     13626     13630     13626     13630     13634     13636
     13626     13630     13634     13637     13626     13630     13634     13638
     13628     13626     13630     13632     13628     13626     13630     13633
     13628     13626     13630     13634     13629     13626     13630     13632
     13629     13626     13630     13633     13629     13626     13630     13634
     13630     13634     13638     13640     13630     13634     13638     13641
     13630     13634     13638     13642     13632     13630     13634     13636
     13632     13630     13634     13637     13632     13630     13634     13638
     13633     13630     13634     13636     13633     13630     13634     13637
     13633     13630     13634     13638     13634     13638     13642     13644
     13634     13638     13642     13645     13634     13638     13642     13646
     13636     13634     13638     13640     13636     13634     13638     13641
     13636     13634     13638     13642     13637     13634     13638     13640
     13637     13634     13638     13641     13637     13634     13638     13642
     13638     13642     13646     13648     13638     13642     13646     13649
     13638     13642     13646     13650     13640     13638     13642     13644
     13640     13638     13642     13645     13640     13638     13642     13646
     13641     13638     13642     13644     13641     13638     13642     13645
     13641     13638     13642     13646     13644     13642     13646     13648
     13644     13642     13646     13649     13644     13642     13646     13650
     13645     13642     13646     13648     13645     13642     13646     13649
     13645     13642     13646     13650     13651     13656     13660     13662
     13651     13656     13660     13663     13651     13656     13660     13672
     13653     13651     13656     13658     13653     13651     13656     13659
     13653     13651     13656     13660     13654     13651     13656     13658
     13654     13651     13656     13659     13654     13651     13656     13660
     13655     13651     13656     13658     13655     13651     13656     13659
     13655     13651     13656     13660     13656     13660     13672     13664
     13658     13656     13660     13662     13658     13656     13660     13663
     13658     13656     13660     13672     13659     13656     13660     13662
     13659     13656     13660     13663     13659     13656     13660     13672
     13660     13672     13664     13666     13660     13672     13664     13668
     13660     13672     13664     13670     13662     13660     13672     13664
     13663     13660     13672     13664     13664     13670     13674     13676
     13664     13670     13674     13677     13664     13670     13674     13678
     13666     13664     13670     13674     13668     13664     13670     13674
     13670     13674     13678     13680     13670     13674     13678     13681
     13670     13674     13678     13695     13672     13664     13670     13674
     13674     13678     13681     13683     13674     13678     13695     13697
     13674     13678     13695     13698     13674     13678     13695     13699
     13676     13674     13678     13680     13676     13674     13678     13681
     13676     13674     13678     13695     13677     13674     13678     13680
     13677     13674     13678     13681     13677     13674     13678     13695
     13678     13681     13683     13685     13678     13681     13683     13687
     13678     13695     13699     13701     13680     13678     13681     13683
     13680     13678     13695     13697     13680     13678     13695     13698
     13680     13678     13695     13699     13681     13678     13695     13697
     13681     13678     13695     13698     13681     13678     13695     13699
     13681     13683     13687     13689     13681     13683     13687     13690
     13681     13683     13687     13713     13683     13681     13678     13695
     13683     13687     13713     13715     13683     13687     13713     13716
     13683     13687     13713     13717     13685     13683     13687     13689
     13685     13683     13687     13690     13685     13683     13687     13713
     13687     13713     13717     13719     13687     13713     13717     13720
     13687     13713     13717     13721     13689     13687     13713     13715
     13689     13687     13713     13716     13689     13687     13713     13717
     13690     13687     13713     13715     13690     13687     13713     13716
     13690     13687     13713     13717     13695     13699     13701     13703
     13695     13699     13701     13705     13697     13695     13699     13701
     13698     13695     13699     13701     13699     13701     13705     13707
     13699     13701     13705     13708     13699     13701     13705     13776
     13701     13705     13776     13778     13701     13705     13776     13779
     13701     13705     13776     13780     13703     13701     13705     13707
     13703     13701     13705     13708     13703     13701     13705     13776
     13705     13776     13780     13782     13705     13776     13780     13783
     13705     13776     13780     13784     13707     13705     13776     13778
     13707     13705     13776     13779     13707     13705     13776     13780
     13708     13705     13776     13778     13708     13705     13776     13779
     13708     13705     13776     13780     13713     13717     13721     13723
     13713     13717     13721     13724     13713     13717     13721     13725
     13715     13713     13717     13719     13715     13713     13717     13720
     13715     13713     13717     13721     13716     13713     13717     13719
     13716     13713     13717     13720     13716     13713     13717     13721
     13717     13721     13725     13727     13717     13721     13725     13728
     13717     13721     13725     13729     13719     13717     13721     13723
     13719     13717     13721     13724     13719     13717     13721     13725
     13720     13717     13721     13723     13720     13717     13721     13724
     13720     13717     13721     13725     13721     13725     13729     13731
     13721     13725     13729     13732     13721     13725     13729     13733
     13723     13721     13725     13727     13723     13721     13725     13728
     13723     13721     13725     13729     13724     13721     13725     13727
     13724     13721     13725     13728     13724     13721     13725     13729
     13725     13729     13733     13735     13725     13729     13733     13736
     13725     13729     13733     13737     13727     13725     13729     13731
     13727     13725     13729     13732     13727     13725     13729     13733
     13728     13725     13729     13731     13728     13725     13729     13732
     13728     13725     13729     13733     13729     13733     13737     13739
     13729     13733     13737     13740     13731     13729     13733     13735
     13731     13729     13733     13736     13731     13729     13733     13737
     13732     13729     13733     13735     13732     13729     13733     13736
     13732     13729     13733     13737     13733     13737     13740     13742
     13733     13737     13740     13743     13735     13733     13737     13739
     13735     13733     13737     13740     13736     13733     13737     13739
     13736     13733     13737     13740     13737     13740     13743     13745
     13737     13740     13743     13746     13737     13740     13743     13747
     13739     13737     13740     13742     13739     13737     13740     13743
     13740     13743     13747     13749     13740     13743     13747     13750
     13740     13743     13747     13751     13742     13740     13743     13745
     13742     13740     13743     13746     13742     13740     13743     13747
     13743     13747     13751     13753     13743     13747     13751     13754
     13743     13747     13751     13755     13745     13743     13747     13749
     13745     13743     13747     13750     13745     13743     13747     13751
     13746     13743     13747     13749     13746     13743     13747     13750
     13746     13743     13747     13751     13747     13751     13755     13757
     13747     13751     13755     13758     13747     13751     13755     13759
     13749     13747     13751     13753     13749     13747     13751     13754
     13749     13747     13751     13755     13750     13747     13751     13753
     13750     13747     13751     13754     13750     13747     13751     13755
     13751     13755     13759     13761     13751     13755     13759     13762
     13751     13755     13759     13763     13753     13751     13755     13757
     13753     13751     13755     13758     13753     13751     13755     13759
     13754     13751     13755     13757     13754     13751     13755     13758
     13754     13751     13755     13759     13755     13759     13763     13765
     13755     13759     13763     13766     13755     13759     13763     13767
     13757     13755     13759     13761     13757     13755     13759     13762
     13757     13755     13759     13763     13758     13755     13759     13761
     13758     13755     13759     13762     13758     13755     13759     13763
     13759     13763     13767     13769     13759     13763     13767     13770
     13759     13763     13767     13771     13761     13759     13763     13765
     13761     13759     13763     13766     13761     13759     13763     13767
     13762     13759     13763     13765     13762     13759     13763     13766
     13762     13759     13763     13767     13763     13767     13771     13773
     13763     13767     13771     13774     13763     13767     13771     13775
     13765     13763     13767     13769     13765     13763     13767     13770
     13765     13763     13767     13771     13766     13763     13767     13769
     13766     13763     13767     13770     13766     13763     13767     13771
     13769     13767     13771     13773     13769     13767     13771     13774
     13769     13767     13771     13775     13770     13767     13771     13773
     13770     13767     13771     13774     13770     13767     13771     13775
     13776     13780     13784     13786     13776     13780     13784     13787
     13776     13780     13784     13788     13778     13776     13780     13782
     13778     13776     13780     13783     13778     13776     13780     13784
     13779     13776     13780     13782     13779     13776     13780     13783
     13779     13776     13780     13784     13780     13784     13788     13790
     13780     13784     13788     13791     13780     13784     13788     13792
     13782     13780     13784     13786     13782     13780     13784     13787
     13782     13780     13784     13788     13783     13780     13784     13786
     13783     13780     13784     13787     13783     13780     13784     13788
     13784     13788     13792     13794     13784     13788     13792     13795
     13784     13788     13792     13796     13786     13784     13788     13790
     13786     13784     13788     13791     13786     13784     13788     13792
     13787     13784     13788     13790     13787     13784     13788     13791
     13787     13784     13788     13792     13788     13792     13796     13798
     13788     13792     13796     13799     13788     13792     13796     13800
     13790     13788     13792     13794     13790     13788     13792     13795
     13790     13788     13792     13796     13791     13788     13792     13794
     13791     13788     13792     13795     13791     13788     13792     13796
     13792     13796     13800     13802     13792     13796     13800     13803
     13792     13796     13800     13804     13794     13792     13796     13798
     13794     13792     13796     13799     13794     13792     13796     13800
     13795     13792     13796     13798     13795     13792     13796     13799
     13795     13792     13796     13800     13796     13800     13804     13806
     13796     13800     13804     13807     13796     13800     13804     13808
     13798     13796     13800     13802     13798     13796     13800     13803
     13798     13796     13800     13804     13799     13796     13800     13802
     13799     13796     13800     13803     13799     13796     13800     13804
     13800     13804     13808     13810     13800     13804     13808     13811
     13800     13804     13808     13812     13802     13800     13804     13806
     13802     13800     13804     13807     13802     13800     13804     13808
     13803     13800     13804     13806     13803     13800     13804     13807
     13803     13800     13804     13808     13804     13808     13812     13814
     13804     13808     13812     13815     13804     13808     13812     13816
     13806     13804     13808     13810     13806     13804     13808     13811
     13806     13804     13808     13812     13807     13804     13808     13810
     13807     13804     13808     13811     13807     13804     13808     13812
     13808     13812     13816     13818     13808     13812     13816     13819
     13808     13812     13816     13820     13810     13808     13812     13814
     13810     13808     13812     13815     13810     13808     13812     13816
     13811     13808     13812     13814     13811     13808     13812     13815
     13811     13808     13812     13816     13812     13816     13820     13822
     13812     13816     13820     13823     13812     13816     13820     13824
     13814     13812     13816     13818     13814     13812     13816     13819
     13814     13812     13816     13820     13815     13812     13816     13818
     13815     13812     13816     13819     13815     13812     13816     13820
     13816     13820     13824     13826     13816     13820     13824     13827
     13816     13820     13824     13828     13818     13816     13820     13822
     13818     13816     13820     13823     13818     13816     13820     13824
     13819     13816     13820     13822     13819     13816     13820     13823
     13819     13816     13820     13824     13820     13824     13828     13830
     13820     13824     13828     13831     13820     13824     13828     13832
     13822     13820     13824     13826     13822     13820     13824     13827
     13822     13820     13824     13828     13823     13820     13824     13826
     13823     13820     13824     13827     13823     13820     13824     13828
     13826     13824     13828     13830     13826     13824     13828     13831
     13826     13824     13828     13832     13827     13824     13828     13830
     13827     13824     13828     13831     13827     13824     13828     13832
     13833     13838     13842     13844     13833     13838     13842     13845
     13833     13838     13842     13854     13835     13833     13838     13840
     13835     13833     13838     13841     13835     13833     13838     13842
     13836     13833     13838     13840     13836     13833     13838     13841
     13836     13833     13838     13842     13837     13833     13838     13840
     13837     13833     13838     13841     13837     13833     13838     13842
     13838     13842     13854     13846     13840     13838     13842     13844
     13840     13838     13842     13845     13840     13838     13842     13854
     13841     13838     13842     13844     13841     13838     13842     13845
     13841     13838     13842     13854     13842     13854     13846     13848
     13842     13854     13846     13850     13842     13854     13846     13852
     13844     13842     13854     13846     13845     13842     13854     13846
     13846     13852     13856     13858     13846     13852     13856     13859
     13846     13852     13856     13860     13848     13846     13852     13856
     13850     13846     13852     13856     13852     13856     13860     13862
     13852     13856     13860     13863     13852     13856     13860     13877
     13854     13846     13852     13856     13856     13860     13863     13865
     13856     13860     13877     13879     13856     13860     13877     13880
     13856     13860     13877     13881     13858     13856     13860     13862
     13858     13856     13860     13863     13858     13856     13860     13877
     13859     13856     13860     13862     13859     13856     13860     13863
     13859     13856     13860     13877     13860     13863     13865     13867
     13860     13863     13865     13869     13860     13877     13881     13883
     13862     13860     13863     13865     13862     13860     13877     13879
     13862     13860     13877     13880     13862     13860     13877     13881
     13863     13860     13877     13879     13863     13860     13877     13880
     13863     13860     13877     13881     13863     13865     13869     13871
     13863     13865     13869     13872     13863     13865     13869     13895
     13865     13863     13860     13877     13865     13869     13895     13897
     13865     13869     13895     13898     13865     13869     13895     13899
     13867     13865     13869     13871     13867     13865     13869     13872
     13867     13865     13869     13895     13869     13895     13899     13901
     13869     13895     13899     13902     13869     13895     13899     13903
     13871     13869     13895     13897     13871     13869     13895     13898
     13871     13869     13895     13899     13872     13869     13895     13897
     13872     13869     13895     13898     13872     13869     13895     13899
     13877     13881     13883     13885     13877     13881     13883     13887
     13879     13877     13881     13883     13880     13877     13881     13883
     13881     13883     13887     13889     13881     13883     13887     13890
     13881     13883     13887     13958     13883     13887     13958     13960
     13883     13887     13958     13961     13883     13887     13958     13962
     13885     13883     13887     13889     13885     13883     13887     13890
     13885     13883     13887     13958     13887     13958     13962     13964
     13887     13958     13962     13965     13887     13958     13962     13966
     13889     13887     13958     13960     13889     13887     13958     13961
     13889     13887     13958     13962     13890     13887     13958     13960
     13890     13887     13958     13961     13890     13887     13958     13962
     13895     13899     13903     13905     13895     13899     13903     13906
     13895     13899     13903     13907     13897     13895     13899     13901
     13897     13895     13899     13902     13897     13895     13899     13903
     13898     13895     13899     13901     13898     13895     13899     13902
     13898     13895     13899     13903     13899     13903     13907     13909
     13899     13903     13907     13910     13899     13903     13907     13911
     13901     13899     13903     13905     13901     13899     13903     13906
     13901     13899     13903     13907     13902     13899     13903     13905
     13902     13899     13903     13906     13902     13899     13903     13907
     13903     13907     13911     13913     13903     13907     13911     13914
     13903     13907     13911     13915     13905     13903     13907     13909
     13905     13903     13907     13910     13905     13903     13907     13911
     13906     13903     13907     13909     13906     13903     13907     13910
     13906     13903     13907     13911     13907     13911     13915     13917
     13907     13911     13915     13918     13907     13911     13915     13919
     13909     13907     13911     13913     13909     13907     13911     13914
     13909     13907     13911     13915     13910     13907     13911     13913
     13910     13907     13911     13914     13910     13907     13911     13915
     13911     13915     13919     13921     13911     13915     13919     13922
     13913     13911     13915     13917     13913     13911     13915     13918
     13913     13911     13915     13919     13914     13911     13915     13917
     13914     13911     13915     13918     13914     13911     13915     13919
     13915     13919     13922     13924     13915     13919     13922     13925
     13917     13915     13919     13921     13917     13915     13919     13922
     13918     13915     13919     13921     13918     13915     13919     13922
     13919     13922     13925     13927     13919     13922     13925     13928
     13919     13922     13925     13929     13921     13919     13922     13924
     13921     13919     13922     13925     13922     13925     13929     13931
     13922     13925     13929     13932     13922     13925     13929     13933
     13924     13922     13925     13927     13924     13922     13925     13928
     13924     13922     13925     13929     13925     13929     13933     13935
     13925     13929     13933     13936     13925     13929     13933     13937
     13927     13925     13929     13931     13927     13925     13929     13932
     13927     13925     13929     13933     13928     13925     13929     13931
     13928     13925     13929     13932     13928     13925     13929     13933
     13929     13933     13937     13939     13929     13933     13937     13940
     13929     13933     13937     13941     13931     13929     13933     13935
     13931     13929     13933     13936     13931     13929     13933     13937
     13932     13929     13933     13935     13932     13929     13933     13936
     13932     13929     13933     13937     13933     13937     13941     13943
     13933     13937     13941     13944     13933     13937     13941     13945
     13935     13933     13937     13939     13935     13933     13937     13940
     13935     13933     13937     13941     13936     13933     13937     13939
     13936     13933     13937     13940     13936     13933     13937     13941
     13937     13941     13945     13947     13937     13941     13945     13948
     13937     13941     13945     13949     13939     13937     13941     13943
     13939     13937     13941     13944     13939     13937     13941     13945
     13940     13937     13941     13943     13940     13937     13941     13944
     13940     13937     13941     13945     13941     13945     13949     13951
     13941     13945     13949     13952     13941     13945     13949     13953
     13943     13941     13945     13947     13943     13941     13945     13948
     13943     13941     13945     13949     13944     13941     13945     13947
     13944     13941     13945     13948     13944     13941     13945     13949
     13945     13949     13953     13955     13945     13949     13953     13956
     13945     13949     13953     13957     13947     13945     13949     13951
     13947     13945     13949     13952     13947     13945     13949     13953
     13948     13945     13949     13951     13948     13945     13949     13952
     13948     13945     13949     13953     13951     13949     13953     13955
     13951     13949     13953     13956     13951     13949     13953     13957
     13952     13949     13953     13955     13952     13949     13953     13956
     13952     13949     13953     13957     13958     13962     13966     13968
     13958     13962     13966     13969     13958     13962     13966     13970
     13960     13958     13962     13964     13960     13958     13962     13965
     13960     13958     13962     13966     13961     13958     13962     13964
     13961     13958     13962     13965     13961     13958     13962     13966
     13962     13966     13970     13972     13962     13966     13970     13973
     13962     13966     13970     13974     13964     13962     13966     13968
     13964     13962     13966     13969     13964     13962     13966     13970
     13965     13962     13966     13968     13965     13962     13966     13969
     13965     13962     13966     13970     13966     13970     13974     13976
     13966     13970     13974     13977     13966     13970     13974     13978
     13968     13966     13970     13972     13968     13966     13970     13973
     13968     13966     13970     13974     13969     13966     13970     13972
     13969     13966     13970     13973     13969     13966     13970     13974
     13970     13974     13978     13980     13970     13974     13978     13981
     13970     13974     13978     13982     13972     13970     13974     13976
     13972     13970     13974     13977     13972     13970     13974     13978
     13973     13970     13974     13976     13973     13970     13974     13977
     13973     13970     13974     13978     13974     13978     13982     13984
     13974     13978     13982     13985     13974     13978     13982     13986
     13976     13974     13978     13980     13976     13974     13978     13981
     13976     13974     13978     13982     13977     13974     13978     13980
     13977     13974     13978     13981     13977     13974     13978     13982
     13978     13982     13986     13988     13978     13982     13986     13989
     13978     13982     13986     13990     13980     13978     13982     13984
     13980     13978     13982     13985     13980     13978     13982     13986
     13981     13978     13982     13984     13981     13978     13982     13985
     13981     13978     13982     13986     13982     13986     13990     13992
     13982     13986     13990     13993     13982     13986     13990     13994
     13984     13982     13986     13988     13984     13982     13986     13989
     13984     13982     13986     13990     13985     13982     13986     13988
     13985     13982     13986     13989     13985     13982     13986     13990
     13986     13990     13994     13996     13986     13990     13994     13997
     13986     13990     13994     13998     13988     13986     13990     13992
     13988     13986     13990     13993     13988     13986     13990     13994
     13989     13986     13990     13992     13989     13986     13990     13993
     13989     13986     13990     13994     13990     13994     13998     14000
     13990     13994     13998     14001     13990     13994     13998     14002
     13992     13990     13994     13996     13992     13990     13994     13997
     13992     13990     13994     13998     13993     13990     13994     13996
     13993     13990     13994     13997     13993     13990     13994     13998
     13994     13998     14002     14004     13994     13998     14002     14005
     13994     13998     14002     14006     13996     13994     13998     14000
     13996     13994     13998     14001     13996     13994     13998     14002
     13997     13994     13998     14000     13997     13994     13998     14001
     13997     13994     13998     14002     13998     14002     14006     14008
     13998     14002     14006     14009     13998     14002     14006     14010
     14000     13998     14002     14004     14000     13998     14002     14005
     14000     13998     14002     14006     14001     13998     14002     14004
     14001     13998     14002     14005     14001     13998     14002     14006
     14002     14006     14010     14012     14002     14006     14010     14013
     14002     14006     14010     14014     14004     14002     14006     14008
     14004     14002     14006     14009     14004     14002     14006     14010
     14005     14002     14006     14008     14005     14002     14006     14009
     14005     14002     14006     14010     14008     14006     14010     14012
     14008     14006     14010     14013     14008     14006     14010     14014
     14009     14006     14010     14012     14009     14006     14010     14013
     14009     14006     14010     14014     14015     14020     14024     14026
     14015     14020     14024     14027     14015     14020     14024     14036
     14017     14015     14020     14022     14017     14015     14020     14023
     14017     14015     14020     14024     14018     14015     14020     14022
     14018     14015     14020     14023     14018     14015     14020     14024
     14019     14015     14020     14022     14019     14015     14020     14023
     14019     14015     14020     14024     14020     14024     14036     14028
     14022     14020     14024     14026     14022     14020     14024     14027
     14022     14020     14024     14036     14023     14020     14024     14026
     14023     14020     14024     14027     14023     14020     14024     14036
     14024     14036     14028     14030     14024     14036     14028     14032
     14024     14036     14028     14034     14026     14024     14036     14028
     14027     14024     14036     14028     14028     14034     14038     14040
     14028     14034     14038     14041     14028     14034     14038     14042
     14030     14028     14034     14038     14032     14028     14034     14038
     14034     14038     14042     14044     14034     14038     14042     14045
     14034     14038     14042     14059     14036     14028     14034     14038
     14038     14042     14045     14047     14038     14042     14059     14061
     14038     14042     14059     14062     14038     14042     14059     14063
     14040     14038     14042     14044     14040     14038     14042     14045
     14040     14038     14042     14059     14041     14038     14042     14044
     14041     14038     14042     14045     14041     14038     14042     14059
     14042     14045     14047     14049     14042     14045     14047     14051
     14042     14059     14063     14065     14044     14042     14045     14047
     14044     14042     14059     14061     14044     14042     14059     14062
     14044     14042     14059     14063     14045     14042     14059     14061
     14045     14042     14059     14062     14045     14042     14059     14063
     14045     14047     14051     14053     14045     14047     14051     14054
     14045     14047     14051     14077     14047     14045     14042     14059
     14047     14051     14077     14079     14047     14051     14077     14080
     14047     14051     14077     14081     14049     14047     14051     14053
     14049     14047     14051     14054     14049     14047     14051     14077
     14051     14077     14081     14083     14051     14077     14081     14084
     14051     14077     14081     14085     14053     14051     14077     14079
     14053     14051     14077     14080     14053     14051     14077     14081
     14054     14051     14077     14079     14054     14051     14077     14080
     14054     14051     14077     14081     14059     14063     14065     14067
     14059     14063     14065     14069     14061     14059     14063     14065
     14062     14059     14063     14065     14063     14065     14069     14071
     14063     14065     14069     14072     14063     14065     14069     14140
     14065     14069     14140     14142     14065     14069     14140     14143
     14065     14069     14140     14144     14067     14065     14069     14071
     14067     14065     14069     14072     14067     14065     14069     14140
     14069     14140     14144     14146     14069     14140     14144     14147
     14069     14140     14144     14148     14071     14069     14140     14142
     14071     14069     14140     14143     14071     14069     14140     14144
     14072     14069     14140     14142     14072     14069     14140     14143
     14072     14069     14140     14144     14077     14081     14085     14087
     14077     14081     14085     14088     14077     14081     14085     14089
     14079     14077     14081     14083     14079     14077     14081     14084
     14079     14077     14081     14085     14080     14077     14081     14083
     14080     14077     14081     14084     14080     14077     14081     14085
     14081     14085     14089     14091     14081     14085     14089     14092
     14081     14085     14089     14093     14083     14081     14085     14087
     14083     14081     14085     14088     14083     14081     14085     14089
     14084     14081     14085     14087     14084     14081     14085     14088
     14084     14081     14085     14089     14085     14089     14093     14095
     14085     14089     14093     14096     14085     14089     14093     14097
     14087     14085     14089     14091     14087     14085     14089     14092
     14087     14085     14089     14093     14088     14085     14089     14091
     14088     14085     14089     14092     14088     14085     14089     14093
     14089     14093     14097     14099     14089     14093     14097     14100
     14089     14093     14097     14101     14091     14089     14093     14095
     14091     14089     14093     14096     14091     14089     14093     14097
     14092     14089     14093     14095     14092     14089     14093     14096
     14092     14089     14093     14097     14093     14097     14101     14103
     14093     14097     14101     14104     14095     14093     14097     14099
     14095     14093     14097     14100     14095     14093     14097     14101
     14096     14093     14097     14099     14096     14093     14097     14100
     14096     14093     14097     14101     14097     14101     14104     14106
     14097     14101     14104     14107     14099     14097     14101     14103
     14099     14097     14101     14104     14100     14097     14101     14103
     14100     14097     14101     14104     14101     14104     14107     14109
     14101     14104     14107     14110     14101     14104     14107     14111
     14103     14101     14104     14106     14103     14101     14104     14107
     14104     14107     14111     14113     14104     14107     14111     14114
     14104     14107     14111     14115     14106     14104     14107     14109
     14106     14104     14107     14110     14106     14104     14107     14111
     14107     14111     14115     14117     14107     14111     14115     14118
     14107     14111     14115     14119     14109     14107     14111     14113
     14109     14107     14111     14114     14109     14107     14111     14115
     14110     14107     14111     14113     14110     14107     14111     14114
     14110     14107     14111     14115     14111     14115     14119     14121
     14111     14115     14119     14122     14111     14115     14119     14123
     14113     14111     14115     14117     14113     14111     14115     14118
     14113     14111     14115     14119     14114     14111     14115     14117
     14114     14111     14115     14118     14114     14111     14115     14119
     14115     14119     14123     14125     14115     14119     14123     14126
     14115     14119     14123     14127     14117     14115     14119     14121
     14117     14115     14119     14122     14117     14115     14119     14123
     14118     14115     14119     14121     14118     14115     14119     14122
     14118     14115     14119     14123     14119     14123     14127     14129
     14119     14123     14127     14130     14119     14123     14127     14131
     14121     14119     14123     14125     14121     14119     14123     14126
     14121     14119     14123     14127     14122     14119     14123     14125
     14122     14119     14123     14126     14122     14119     14123     14127
     14123     14127     14131     14133     14123     14127     14131     14134
     14123     14127     14131     14135     14125     14123     14127     14129
     14125     14123     14127     14130     14125     14123     14127     14131
     14126     14123     14127     14129     14126     14123     14127     14130
     14126     14123     14127     14131     14127     14131     14135     14137
     14127     14131     14135     14138     14127     14131     14135     14139
     14129     14127     14131     14133     14129     14127     14131     14134
     14129     14127     14131     14135     14130     14127     14131     14133
     14130     14127     14131     14134     14130     14127     14131     14135
     14133     14131     14135     14137     14133     14131     14135     14138
     14133     14131     14135     14139     14134     14131     14135     14137
     14134     14131     14135     14138     14134     14131     14135     14139
     14140     14144     14148     14150     14140     14144     14148     14151
     14140     14144     14148     14152     14142     14140     14144     14146
     14142     14140     14144     14147     14142     14140     14144     14148
     14143     14140     14144     14146     14143     14140     14144     14147
     14143     14140     14144     14148     14144     14148     14152     14154
     14144     14148     14152     14155     14144     14148     14152     14156
     14146     14144     14148     14150     14146     14144     14148     14151
     14146     14144     14148     14152     14147     14144     14148     14150
     14147     14144     14148     14151     14147     14144     14148     14152
     14148     14152     14156     14158     14148     14152     14156     14159
     14148     14152     14156     14160     14150     14148     14152     14154
     14150     14148     14152     14155     14150     14148     14152     14156
     14151     14148     14152     14154     14151     14148     14152     14155
     14151     14148     14152     14156     14152     14156     14160     14162
     14152     14156     14160     14163     14152     14156     14160     14164
     14154     14152     14156     14158     14154     14152     14156     14159
     14154     14152     14156     14160     14155     14152     14156     14158
     14155     14152     14156     14159     14155     14152     14156     14160
     14156     14160     14164     14166     14156     14160     14164     14167
     14156     14160     14164     14168     14158     14156     14160     14162
     14158     14156     14160     14163     14158     14156     14160     14164
     14159     14156     14160     14162     14159     14156     14160     14163
     14159     14156     14160     14164     14160     14164     14168     14170
     14160     14164     14168     14171     14160     14164     14168     14172
     14162     14160     14164     14166     14162     14160     14164     14167
     14162     14160     14164     14168     14163     14160     14164     14166
     14163     14160     14164     14167     14163     14160     14164     14168
     14164     14168     14172     14174     14164     14168     14172     14175
     14164     14168     14172     14176     14166     14164     14168     14170
     14166     14164     14168     14171     14166     14164     14168     14172
     14167     14164     14168     14170     14167     14164     14168     14171
     14167     14164     14168     14172     14168     14172     14176     14178
     14168     14172     14176     14179     14168     14172     14176     14180
     14170     14168     14172     14174     14170     14168     14172     14175
     14170     14168     14172     14176     14171     14168     14172     14174
     14171     14168     14172     14175     14171     14168     14172     14176
     14172     14176     14180     14182     14172     14176     14180     14183
     14172     14176     14180     14184     14174     14172     14176     14178
     14174     14172     14176     14179     14174     14172     14176     14180
     14175     14172     14176     14178     14175     14172     14176     14179
     14175     14172     14176     14180     14176     14180     14184     14186
     14176     14180     14184     14187     14176     14180     14184     14188
     14178     14176     14180     14182     14178     14176     14180     14183
     14178     14176     14180     14184     14179     14176     14180     14182
     14179     14176     14180     14183     14179     14176     14180     14184
     14180     14184     14188     14190     14180     14184     14188     14191
     14180     14184     14188     14192     14182     14180     14184     14186
     14182     14180     14184     14187     14182     14180     14184     14188
     14183     14180     14184     14186     14183     14180     14184     14187
     14183     14180     14184     14188     14184     14188     14192     14194
     14184     14188     14192     14195     14184     14188     14192     14196
     14186     14184     14188     14190     14186     14184     14188     14191
     14186     14184     14188     14192     14187     14184     14188     14190
     14187     14184     14188     14191     14187     14184     14188     14192
     14190     14188     14192     14194     14190     14188     14192     14195
     14190     14188     14192     14196     14191     14188     14192     14194
     14191     14188     14192     14195     14191     14188     14192     14196
     14197     14202     14206     14208     14197     14202     14206     14209
     14197     14202     14206     14218     14199     14197     14202     14204
     14199     14197     14202     14205     14199     14197     14202     14206
     14200     14197     14202     14204     14200     14197     14202     14205
     14200     14197     14202     14206     14201     14197     14202     14204
     14201     14197     14202     14205     14201     14197     14202     14206
     14202     14206     14218     14210     14204     14202     14206     14208
     14204     14202     14206     14209     14204     14202     14206     14218
     14205     14202     14206     14208     14205     14202     14206     14209
     14205     14202     14206     14218     14206     14218     14210     14212
     14206     14218     14210     14214     14206     14218     14210     14216
     14208     14206     14218     14210     14209     14206     14218     14210
     14210     14216     14220     14222     14210     14216     14220     14223
     14210     14216     14220     14224     14212     14210     14216     14220
     14214     14210     14216     14220     14216     14220     14224     14226
     14216     14220     14224     14227     14216     14220     14224     14241
     14218     14210     14216     14220     14220     14224     14227     14229
     14220     14224     14241     14243     14220     14224     14241     14244
     14220     14224     14241     14245     14222     14220     14224     14226
     14222     14220     14224     14227     14222     14220     14224     14241
     14223     14220     14224     14226     14223     14220     14224     14227
     14223     14220     14224     14241     14224     14227     14229     14231
     14224     14227     14229     14233     14224     14241     14245     14247
     14226     14224     14227     14229     14226     14224     14241     14243
     14226     14224     14241     14244     14226     14224     14241     14245
     14227     14224     14241     14243     14227     14224     14241     14244
     14227     14224     14241     14245     14227     14229     14233     14235
     14227     14229     14233     14236     14227     14229     14233     14259
     14229     14227     14224     14241     14229     14233     14259     14261
     14229     14233     14259     14262     14229     14233     14259     14263
     14231     14229     14233     14235     14231     14229     14233     14236
     14231     14229     14233     14259     14233     14259     14263     14265
     14233     14259     14263     14266     14233     14259     14263     14267
     14235     14233     14259     14261     14235     14233     14259     14262
     14235     14233     14259     14263     14236     14233     14259     14261
     14236     14233     14259     14262     14236     14233     14259     14263
     14241     14245     14247     14249     14241     14245     14247     14251
     14243     14241     14245     14247     14244     14241     14245     14247
     14245     14247     14251     14253     14245     14247     14251     14254
     14245     14247     14251     14322     14247     14251     14322     14324
     14247     14251     14322     14325     14247     14251     14322     14326
     14249     14247     14251     14253     14249     14247     14251     14254
     14249     14247     14251     14322     14251     14322     14326     14328
     14251     14322     14326     14329     14251     14322     14326     14330
     14253     14251     14322     14324     14253     14251     14322     14325
     14253     14251     14322     14326     14254     14251     14322     14324
     14254     14251     14322     14325     14254     14251     14322     14326
     14259     14263     14267     14269     14259     14263     14267     14270
     14259     14263     14267     14271     14261     14259     14263     14265
     14261     14259     14263     14266     14261     14259     14263     14267
     14262     14259     14263     14265     14262     14259     14263     14266
     14262     14259     14263     14267     14263     14267     14271     14273
     14263     14267     14271     14274     14263     14267     14271     14275
     14265     14263     14267     14269     14265     14263     14267     14270
     14265     14263     14267     14271     14266     14263     14267     14269
     14266     14263     14267     14270     14266     14263     14267     14271
     14267     14271     14275     14277     14267     14271     14275     14278
     14267     14271     14275     14279     14269     14267     14271     14273
     14269     14267     14271     14274     14269     14267     14271     14275
     14270     14267     14271     14273     14270     14267     14271     14274
     14270     14267     14271     14275     14271     14275     14279     14281
     14271     14275     14279     14282     14271     14275     14279     14283
     14273     14271     14275     14277     14273     14271     14275     14278
     14273     14271     14275     14279     14274     14271     14275     14277
     14274     14271     14275     14278     14274     14271     14275     14279
     14275     14279     14283     14285     14275     14279     14283     14286
     14277     14275     14279     14281     14277     14275     14279     14282
     14277     14275     14279     14283     14278     14275     14279     14281
     14278     14275     14279     14282     14278     14275     14279     14283
     14279     14283     14286     14288     14279     14283     14286     14289
     14281     14279     14283     14285     14281     14279     14283     14286
     14282     14279     14283     14285     14282     14279     14283     14286
     14283     14286     14289     14291     14283     14286     14289     14292
     14283     14286     14289     14293     14285     14283     14286     14288
     14285     14283     14286     14289     14286     14289     14293     14295
     14286     14289     14293     14296     14286     14289     14293     14297
     14288     14286     14289     14291     14288     14286     14289     14292
     14288     14286     14289     14293     14289     14293     14297     14299
     14289     14293     14297     14300     14289     14293     14297     14301
     14291     14289     14293     14295     14291     14289     14293     14296
     14291     14289     14293     14297     14292     14289     14293     14295
     14292     14289     14293     14296     14292     14289     14293     14297
     14293     14297     14301     14303     14293     14297     14301     14304
     14293     14297     14301     14305     14295     14293     14297     14299
     14295     14293     14297     14300     14295     14293     14297     14301
     14296     14293     14297     14299     14296     14293     14297     14300
     14296     14293     14297     14301     14297     14301     14305     14307
     14297     14301     14305     14308     14297     14301     14305     14309
     14299     14297     14301     14303     14299     14297     14301     14304
     14299     14297     14301     14305     14300     14297     14301     14303
     14300     14297     14301     14304     14300     14297     14301     14305
     14301     14305     14309     14311     14301     14305     14309     14312
     14301     14305     14309     14313     14303     14301     14305     14307
     14303     14301     14305     14308     14303     14301     14305     14309
     14304     14301     14305     14307     14304     14301     14305     14308
     14304     14301     14305     14309     14305     14309     14313     14315
     14305     14309     14313     14316     14305     14309     14313     14317
     14307     14305     14309     14311     14307     14305     14309     14312
     14307     14305     14309     14313     14308     14305     14309     14311
     14308     14305     14309     14312     14308     14305     14309     14313
     14309     14313     14317     14319     14309     14313     14317     14320
     14309     14313     14317     14321     14311     14309     14313     14315
     14311     14309     14313     14316     14311     14309     14313     14317
     14312     14309     14313     14315     14312     14309     14313     14316
     14312     14309     14313     14317     14315     14313     14317     14319
     14315     14313     14317     14320     14315     14313     14317     14321
     14316     14313     14317     14319     14316     14313     14317     14320
     14316     14313     14317     14321     14322     14326     14330     14332
     14322     14326     14330     14333     14322     14326     14330     14334
     14324     14322     14326     14328     14324     14322     14326     14329
     14324     14322     14326     14330     14325     14322     14326     14328
     14325     14322     14326     14329     14325     14322     14326     14330
     14326     14330     14334     14336     14326     14330     14334     14337
     14326     14330     14334     14338     14328     14326     14330     14332
     14328     14326     14330     14333     14328     14326     14330     14334
     14329     14326     14330     14332     14329     14326     14330     14333
     14329     14326     14330     14334     14330     14334     14338     14340
     14330     14334     14338     14341     14330     14334     14338     14342
     14332     14330     14334     14336     14332     14330     14334     14337
     14332     14330     14334     14338     14333     14330     14334     14336
     14333     14330     14334     14337     14333     14330     14334     14338
     14334     14338     14342     14344     14334     14338     14342     14345
     14334     14338     14342     14346     14336     14334     14338     14340
     14336     14334     14338     14341     14336     14334     14338     14342
     14337     14334     14338     14340     14337     14334     14338     14341
     14337     14334     14338     14342     14338     14342     14346     14348
     14338     14342     14346     14349     14338     14342     14346     14350
     14340     14338     14342     14344     14340     14338     14342     14345
     14340     14338     14342     14346     14341     14338     14342     14344
     14341     14338     14342     14345     14341     14338     14342     14346
     14342     14346     14350     14352     14342     14346     14350     14353
     14342     14346     14350     14354     14344     14342     14346     14348
     14344     14342     14346     14349     14344     14342     14346     14350
     14345     14342     14346     14348     14345     14342     14346     14349
     14345     14342     14346     14350     14346     14350     14354     14356
     14346     14350     14354     14357     14346     14350     14354     14358
     14348     14346     14350     14352     14348     14346     14350     14353
     14348     14346     14350     14354     14349     14346     14350     14352
     14349     14346     14350     14353     14349     14346     14350     14354
     14350     14354     14358     14360     14350     14354     14358     14361
     14350     14354     14358     14362     14352     14350     14354     14356
     14352     14350     14354     14357     14352     14350     14354     14358
     14353     14350     14354     14356     14353     14350     14354     14357
     14353     14350     14354     14358     14354     14358     14362     14364
     14354     14358     14362     14365     14354     14358     14362     14366
     14356     14354     14358     14360     14356     14354     14358     14361
     14356     14354     14358     14362     14357     14354     14358     14360
     14357     14354     14358     14361     14357     14354     14358     14362
     14358     14362     14366     14368     14358     14362     14366     14369
     14358     14362     14366     14370     14360     14358     14362     14364
     14360     14358     14362     14365     14360     14358     14362     14366
     14361     14358     14362     14364     14361     14358     14362     14365
     14361     14358     14362     14366     14362     14366     14370     14372
     14362     14366     14370     14373     14362     14366     14370     14374
     14364     14362     14366     14368     14364     14362     14366     14369
     14364     14362     14366     14370     14365     14362     14366     14368
     14365     14362     14366     14369     14365     14362     14366     14370
     14366     14370     14374     14376     14366     14370     14374     14377
     14366     14370     14374     14378     14368     14366     14370     14372
     14368     14366     14370     14373     14368     14366     14370     14374
     14369     14366     14370     14372     14369     14366     14370     14373
     14369     14366     14370     14374     14372     14370     14374     14376
     14372     14370     14374     14377     14372     14370     14374     14378
     14373     14370     14374     14376     14373     14370     14374     14377
     14373     14370     14374     14378     14379     14384     14388     14390
     14379     14384     14388     14391     14379     14384     14388     14400
     14381     14379     14384     14386     14381     14379     14384     14387
     14381     14379     14384     14388     14382     14379     14384     14386
     14382     14379     14384     14387     14382     14379     14384     14388
     14383     14379     14384     14386     14383     14379     14384     14387
     14383     14379     14384     14388     14384     14388     14400     14392
     14386     14384     14388     14390     14386     14384     14388     14391
     14386     14384     14388     14400     14387     14384     14388     14390
     14387     14384     14388     14391     14387     14384     14388     14400
     14388     14400     14392     14394     14388     14400     14392     14396
     14388     14400     14392     14398     14390     14388     14400     14392
     14391     14388     14400     14392     14392     14398     14402     14404
     14392     14398     14402     14405     14392     14398     14402     14406
     14394     14392     14398     14402     14396     14392     14398     14402
     14398     14402     14406     14408     14398     14402     14406     14409
     14398     14402     14406     14423     14400     14392     14398     14402
     14402     14406     14409     14411     14402     14406     14423     14425
     14402     14406     14423     14426     14402     14406     14423     14427
     14404     14402     14406     14408     14404     14402     14406     14409
     14404     14402     14406     14423     14405     14402     14406     14408
     14405     14402     14406     14409     14405     14402     14406     14423
     14406     14409     14411     14413     14406     14409     14411     14415
     14406     14423     14427     14429     14408     14406     14409     14411
     14408     14406     14423     14425     14408     14406     14423     14426
     14408     14406     14423     14427     14409     14406     14423     14425
     14409     14406     14423     14426     14409     14406     14423     14427
     14409     14411     14415     14417     14409     14411     14415     14418
     14409     14411     14415     14441     14411     14409     14406     14423
     14411     14415     14441     14443     14411     14415     14441     14444
     14411     14415     14441     14445     14413     14411     14415     14417
     14413     14411     14415     14418     14413     14411     14415     14441
     14415     14441     14445     14447     14415     14441     14445     14448
     14415     14441     14445     14449     14417     14415     14441     14443
     14417     14415     14441     14444     14417     14415     14441     14445
     14418     14415     14441     14443     14418     14415     14441     14444
     14418     14415     14441     14445     14423     14427     14429     14431
     14423     14427     14429     14433     14425     14423     14427     14429
     14426     14423     14427     14429     14427     14429     14433     14435
     14427     14429     14433     14436     14427     14429     14433     14504
     14429     14433     14504     14506     14429     14433     14504     14507
     14429     14433     14504     14508     14431     14429     14433     14435
     14431     14429     14433     14436     14431     14429     14433     14504
     14433     14504     14508     14510     14433     14504     14508     14511
     14433     14504     14508     14512     14435     14433     14504     14506
     14435     14433     14504     14507     14435     14433     14504     14508
     14436     14433     14504     14506     14436     14433     14504     14507
     14436     14433     14504     14508     14441     14445     14449     14451
     14441     14445     14449     14452     14441     14445     14449     14453
     14443     14441     14445     14447     14443     14441     14445     14448
     14443     14441     14445     14449     14444     14441     14445     14447
     14444     14441     14445     14448     14444     14441     14445     14449
     14445     14449     14453     14455     14445     14449     14453     14456
     14445     14449     14453     14457     14447     14445     14449     14451
     14447     14445     14449     14452     14447     14445     14449     14453
     14448     14445     14449     14451     14448     14445     14449     14452
     14448     14445     14449     14453     14449     14453     14457     14459
     14449     14453     14457     14460     14449     14453     14457     14461
     14451     14449     14453     14455     14451     14449     14453     14456
     14451     14449     14453     14457     14452     14449     14453     14455
     14452     14449     14453     14456     14452     14449     14453     14457
     14453     14457     14461     14463     14453     14457     14461     14464
     14453     14457     14461     14465     14455     14453     14457     14459
     14455     14453     14457     14460     14455     14453     14457     14461
     14456     14453     14457     14459     14456     14453     14457     14460
     14456     14453     14457     14461     14457     14461     14465     14467
     14457     14461     14465     14468     14459     14457     14461     14463
     14459     14457     14461     14464     14459     14457     14461     14465
     14460     14457     14461     14463     14460     14457     14461     14464
     14460     14457     14461     14465     14461     14465     14468     14470
     14461     14465     14468     14471     14463     14461     14465     14467
     14463     14461     14465     14468     14464     14461     14465     14467
     14464     14461     14465     14468     14465     14468     14471     14473
     14465     14468     14471     14474     14465     14468     14471     14475
     14467     14465     14468     14470     14467     14465     14468     14471
     14468     14471     14475     14477     14468     14471     14475     14478
     14468     14471     14475     14479     14470     14468     14471     14473
     14470     14468     14471     14474     14470     14468     14471     14475
     14471     14475     14479     14481     14471     14475     14479     14482
     14471     14475     14479     14483     14473     14471     14475     14477
     14473     14471     14475     14478     14473     14471     14475     14479
     14474     14471     14475     14477     14474     14471     14475     14478
     14474     14471     14475     14479     14475     14479     14483     14485
     14475     14479     14483     14486     14475     14479     14483     14487
     14477     14475     14479     14481     14477     14475     14479     14482
     14477     14475     14479     14483     14478     14475     14479     14481
     14478     14475     14479     14482     14478     14475     14479     14483
     14479     14483     14487     14489     14479     14483     14487     14490
     14479     14483     14487     14491     14481     14479     14483     14485
     14481     14479     14483     14486     14481     14479     14483     14487
     14482     14479     14483     14485     14482     14479     14483     14486
     14482     14479     14483     14487     14483     14487     14491     14493
     14483     14487     14491     14494     14483     14487     14491     14495
     14485     14483     14487     14489     14485     14483     14487     14490
     14485     14483     14487     14491     14486     14483     14487     14489
     14486     14483     14487     14490     14486     14483     14487     14491
     14487     14491     14495     14497     14487     14491     14495     14498
     14487     14491     14495     14499     14489     14487     14491     14493
     14489     14487     14491     14494     14489     14487     14491     14495
     14490     14487     14491     14493     14490     14487     14491     14494
     14490     14487     14491     14495     14491     14495     14499     14501
     14491     14495     14499     14502     14491     14495     14499     14503
     14493     14491     14495     14497     14493     14491     14495     14498
     14493     14491     14495     14499     14494     14491     14495     14497
     14494     14491     14495     14498     14494     14491     14495     14499
     14497     14495     14499     14501     14497     14495     14499     14502
     14497     14495     14499     14503     14498     14495     14499     14501
     14498     14495     14499     14502     14498     14495     14499     14503
     14504     14508     14512     14514     14504     14508     14512     14515
     14504     14508     14512     14516     14506     14504     14508     14510
     14506     14504     14508     14511     14506     14504     14508     14512
     14507     14504     14508     14510     14507     14504     14508     14511
     14507     14504     14508     14512     14508     14512     14516     14518
     14508     14512     14516     14519     14508     14512     14516     14520
     14510     14508     14512     14514     14510     14508     14512     14515
     14510     14508     14512     14516     14511     14508     14512     14514
     14511     14508     14512     14515     14511     14508     14512     14516
     14512     14516     14520     14522     14512     14516     14520     14523
     14512     14516     14520     14524     14514     14512     14516     14518
     14514     14512     14516     14519     14514     14512     14516     14520
     14515     14512     14516     14518     14515     14512     14516     14519
     14515     14512     14516     14520     14516     14520     14524     14526
     14516     14520     14524     14527     14516     14520     14524     14528
     14518     14516     14520     14522     14518     14516     14520     14523
     14518     14516     14520     14524     14519     14516     14520     14522
     14519     14516     14520     14523     14519     14516     14520     14524
     14520     14524     14528     14530     14520     14524     14528     14531
     14520     14524     14528     14532     14522     14520     14524     14526
     14522     14520     14524     14527     14522     14520     14524     14528
     14523     14520     14524     14526     14523     14520     14524     14527
     14523     14520     14524     14528     14524     14528     14532     14534
     14524     14528     14532     14535     14524     14528     14532     14536
     14526     14524     14528     14530     14526     14524     14528     14531
     14526     14524     14528     14532     14527     14524     14528     14530
     14527     14524     14528     14531     14527     14524     14528     14532
     14528     14532     14536     14538     14528     14532     14536     14539
     14528     14532     14536     14540     14530     14528     14532     14534
     14530     14528     14532     14535     14530     14528     14532     14536
     14531     14528     14532     14534     14531     14528     14532     14535
     14531     14528     14532     14536     14532     14536     14540     14542
     14532     14536     14540     14543     14532     14536     14540     14544
     14534     14532     14536     14538     14534     14532     14536     14539
     14534     14532     14536     14540     14535     14532     14536     14538
     14535     14532     14536     14539     14535     14532     14536     14540
     14536     14540     14544     14546     14536     14540     14544     14547
     14536     14540     14544     14548     14538     14536     14540     14542
     14538     14536     14540     14543     14538     14536     14540     14544
     14539     14536     14540     14542     14539     14536     14540     14543
     14539     14536     14540     14544     14540     14544     14548     14550
     14540     14544     14548     14551     14540     14544     14548     14552
     14542     14540     14544     14546     14542     14540     14544     14547
     14542     14540     14544     14548     14543     14540     14544     14546
     14543     14540     14544     14547     14543     14540     14544     14548
     14544     14548     14552     14554     14544     14548     14552     14555
     14544     14548     14552     14556     14546     14544     14548     14550
     14546     14544     14548     14551     14546     14544     14548     14552
     14547     14544     14548     14550     14547     14544     14548     14551
     14547     14544     14548     14552     14548     14552     14556     14558
     14548     14552     14556     14559     14548     14552     14556     14560
     14550     14548     14552     14554     14550     14548     14552     14555
     14550     14548     14552     14556     14551     14548     14552     14554
     14551     14548     14552     14555     14551     14548     14552     14556
     14554     14552     14556     14558     14554     14552     14556     14559
     14554     14552     14556     14560     14555     14552     14556     14558
     14555     14552     14556     14559     14555     14552     14556     14560
     14561     14566     14570     14572     14561     14566     14570     14573
     14561     14566     14570     14582     14563     14561     14566     14568
     14563     14561     14566     14569     14563     14561     14566     14570
     14564     14561     14566     14568     14564     14561     14566     14569
     14564     14561     14566     14570     14565     14561     14566     14568
     14565     14561     14566     14569     14565     14561     14566     14570
     14566     14570     14582     14574     14568     14566     14570     14572
     14568     14566     14570     14573     14568     14566     14570     14582
     14569     14566     14570     14572     14569     14566     14570     14573
     14569     14566     14570     14582     14570     14582     14574     14576
     14570     14582     14574     14578     14570     14582     14574     14580
     14572     14570     14582     14574     14573     14570     14582     14574
     14574     14580     14584     14586     14574     14580     14584     14587
     14574     14580     14584     14588     14576     14574     14580     14584
     14578     14574     14580     14584     14580     14584     14588     14590
     14580     14584     14588     14591     14580     14584     14588     14605
     14582     14574     14580     14584     14584     14588     14591     14593
     14584     14588     14605     14607     14584     14588     14605     14608
     14584     14588     14605     14609     14586     14584     14588     14590
     14586     14584     14588     14591     14586     14584     14588     14605
     14587     14584     14588     14590     14587     14584     14588     14591
     14587     14584     14588     14605     14588     14591     14593     14595
     14588     14591     14593     14597     14588     14605     14609     14611
     14590     14588     14591     14593     14590     14588     14605     14607
     14590     14588     14605     14608     14590     14588     14605     14609
     14591     14588     14605     14607     14591     14588     14605     14608
     14591     14588     14605     14609     14591     14593     14597     14599
     14591     14593     14597     14600     14591     14593     14597     14623
     14593     14591     14588     14605     14593     14597     14623     14625
     14593     14597     14623     14626     14593     14597     14623     14627
     14595     14593     14597     14599     14595     14593     14597     14600
     14595     14593     14597     14623     14597     14623     14627     14629
     14597     14623     14627     14630     14597     14623     14627     14631
     14599     14597     14623     14625     14599     14597     14623     14626
     14599     14597     14623     14627     14600     14597     14623     14625
     14600     14597     14623     14626     14600     14597     14623     14627
     14605     14609     14611     14613     14605     14609     14611     14615
     14607     14605     14609     14611     14608     14605     14609     14611
     14609     14611     14615     14617     14609     14611     14615     14618
     14609     14611     14615     14686     14611     14615     14686     14688
     14611     14615     14686     14689     14611     14615     14686     14690
     14613     14611     14615     14617     14613     14611     14615     14618
     14613     14611     14615     14686     14615     14686     14690     14692
     14615     14686     14690     14693     14615     14686     14690     14694
     14617     14615     14686     14688     14617     14615     14686     14689
     14617     14615     14686     14690     14618     14615     14686     14688
     14618     14615     14686     14689     14618     14615     14686     14690
     14623     14627     14631     14633     14623     14627     14631     14634
     14623     14627     14631     14635     14625     14623     14627     14629
     14625     14623     14627     14630     14625     14623     14627     14631
     14626     14623     14627     14629     14626     14623     14627     14630
     14626     14623     14627     14631     14627     14631     14635     14637
     14627     14631     14635     14638     14627     14631     14635     14639
     14629     14627     14631     14633     14629     14627     14631     14634
     14629     14627     14631     14635     14630     14627     14631     14633
     14630     14627     14631     14634     14630     14627     14631     14635
     14631     14635     14639     14641     14631     14635     14639     14642
     14631     14635     14639     14643     14633     14631     14635     14637
     14633     14631     14635     14638     14633     14631     14635     14639
     14634     14631     14635     14637     14634     14631     14635     14638
     14634     14631     14635     14639     14635     14639     14643     14645
     14635     14639     14643     14646     14635     14639     14643     14647
     14637     14635     14639     14641     14637     14635     14639     14642
     14637     14635     14639     14643     14638     14635     14639     14641
     14638     14635     14639     14642     14638     14635     14639     14643
     14639     14643     14647     14649     14639     14643     14647     14650
     14641     14639     14643     14645     14641     14639     14643     14646
     14641     14639     14643     14647     14642     14639     14643     14645
     14642     14639     14643     14646     14642     14639     14643     14647
     14643     14647     14650     14652     14643     14647     14650     14653
     14645     14643     14647     14649     14645     14643     14647     14650
     14646     14643     14647     14649     14646     14643     14647     14650
     14647     14650     14653     14655     14647     14650     14653     14656
     14647     14650     14653     14657     14649     14647     14650     14652
     14649     14647     14650     14653     14650     14653     14657     14659
     14650     14653     14657     14660     14650     14653     14657     14661
     14652     14650     14653     14655     14652     14650     14653     14656
     14652     14650     14653     14657     14653     14657     14661     14663
     14653     14657     14661     14664     14653     14657     14661     14665
     14655     14653     14657     14659     14655     14653     14657     14660
     14655     14653     14657     14661     14656     14653     14657     14659
     14656     14653     14657     14660     14656     14653     14657     14661
     14657     14661     14665     14667     14657     14661     14665     14668
     14657     14661     14665     14669     14659     14657     14661     14663
     14659     14657     14661     14664     14659     14657     14661     14665
     14660     14657     14661     14663     14660     14657     14661     14664
     14660     14657     14661     14665     14661     14665     14669     14671
     14661     14665     14669     14672     14661     14665     14669     14673
     14663     14661     14665     14667     14663     14661     14665     14668
     14663     14661     14665     14669     14664     14661     14665     14667
     14664     14661     14665     14668     14664     14661     14665     14669
     14665     14669     14673     14675     14665     14669     14673     14676
     14665     14669     14673     14677     14667     14665     14669     14671
     14667     14665     14669     14672     14667     14665     14669     14673
     14668     14665     14669     14671     14668     14665     14669     14672
     14668     14665     14669     14673     14669     14673     14677     14679
     14669     14673     14677     14680     14669     14673     14677     14681
     14671     14669     14673     14675     14671     14669     14673     14676
     14671     14669     14673     14677     14672     14669     14673     14675
     14672     14669     14673     14676     14672     14669     14673     14677
     14673     14677     14681     14683     14673     14677     14681     14684
     14673     14677     14681     14685     14675     14673     14677     14679
     14675     14673     14677     14680     14675     14673     14677     14681
     14676     14673     14677     14679     14676     14673     14677     14680
     14676     14673     14677     14681     14679     14677     14681     14683
     14679     14677     14681     14684     14679     14677     14681     14685
     14680     14677     14681     14683     14680     14677     14681     14684
     14680     14677     14681     14685     14686     14690     14694     14696
     14686     14690     14694     14697     14686     14690     14694     14698
     14688     14686     14690     14692     14688     14686     14690     14693
     14688     14686     14690     14694     14689     14686     14690     14692
     14689     14686     14690     14693     14689     14686     14690     14694
     14690     14694     14698     14700     14690     14694     14698     14701
     14690     14694     14698     14702     14692     14690     14694     14696
     14692     14690     14694     14697     14692     14690     14694     14698
     14693     14690     14694     14696     14693     14690     14694     14697
     14693     14690     14694     14698     14694     14698     14702     14704
     14694     14698     14702     14705     14694     14698     14702     14706
     14696     14694     14698     14700     14696     14694     14698     14701
     14696     14694     14698     14702     14697     14694     14698     14700
     14697     14694     14698     14701     14697     14694     14698     14702
     14698     14702     14706     14708     14698     14702     14706     14709
     14698     14702     14706     14710     14700     14698     14702     14704
     14700     14698     14702     14705     14700     14698     14702     14706
     14701     14698     14702     14704     14701     14698     14702     14705
     14701     14698     14702     14706     14702     14706     14710     14712
     14702     14706     14710     14713     14702     14706     14710     14714
     14704     14702     14706     14708     14704     14702     14706     14709
     14704     14702     14706     14710     14705     14702     14706     14708
     14705     14702     14706     14709     14705     14702     14706     14710
     14706     14710     14714     14716     14706     14710     14714     14717
     14706     14710     14714     14718     14708     14706     14710     14712
     14708     14706     14710     14713     14708     14706     14710     14714
     14709     14706     14710     14712     14709     14706     14710     14713
     14709     14706     14710     14714     14710     14714     14718     14720
     14710     14714     14718     14721     14710     14714     14718     14722
     14712     14710     14714     14716     14712     14710     14714     14717
     14712     14710     14714     14718     14713     14710     14714     14716
     14713     14710     14714     14717     14713     14710     14714     14718
     14714     14718     14722     14724     14714     14718     14722     14725
     14714     14718     14722     14726     14716     14714     14718     14720
     14716     14714     14718     14721     14716     14714     14718     14722
     14717     14714     14718     14720     14717     14714     14718     14721
     14717     14714     14718     14722     14718     14722     14726     14728
     14718     14722     14726     14729     14718     14722     14726     14730
     14720     14718     14722     14724     14720     14718     14722     14725
     14720     14718     14722     14726     14721     14718     14722     14724
     14721     14718     14722     14725     14721     14718     14722     14726
     14722     14726     14730     14732     14722     14726     14730     14733
     14722     14726     14730     14734     14724     14722     14726     14728
     14724     14722     14726     14729     14724     14722     14726     14730
     14725     14722     14726     14728     14725     14722     14726     14729
     14725     14722     14726     14730     14726     14730     14734     14736
     14726     14730     14734     14737     14726     14730     14734     14738
     14728     14726     14730     14732     14728     14726     14730     14733
     14728     14726     14730     14734     14729     14726     14730     14732
     14729     14726     14730     14733     14729     14726     14730     14734
     14730     14734     14738     14740     14730     14734     14738     14741
     14730     14734     14738     14742     14732     14730     14734     14736
     14732     14730     14734     14737     14732     14730     14734     14738
     14733     14730     14734     14736     14733     14730     14734     14737
     14733     14730     14734     14738     14736     14734     14738     14740
     14736     14734     14738     14741     14736     14734     14738     14742
     14737     14734     14738     14740     14737     14734     14738     14741
     14737     14734     14738     14742     14743     14748     14752     14754
     14743     14748     14752     14755     14743     14748     14752     14764
     14745     14743     14748     14750     14745     14743     14748     14751
     14745     14743     14748     14752     14746     14743     14748     14750
     14746     14743     14748     14751     14746     14743     14748     14752
     14747     14743     14748     14750     14747     14743     14748     14751
     14747     14743     14748     14752     14748     14752     14764     14756
     14750     14748     14752     14754     14750     14748     14752     14755
     14750     14748     14752     14764     14751     14748     14752     14754
     14751     14748     14752     14755     14751     14748     14752     14764
     14752     14764     14756     14758     14752     14764     14756     14760
     14752     14764     14756     14762     14754     14752     14764     14756
     14755     14752     14764     14756     14756     14762     14766     14768
     14756     14762     14766     14769     14756     14762     14766     14770
     14758     14756     14762     14766     14760     14756     14762     14766
     14762     14766     14770     14772     14762     14766     14770     14773
     14762     14766     14770     14787     14764     14756     14762     14766
     14766     14770     14773     14775     14766     14770     14787     14789
     14766     14770     14787     14790     14766     14770     14787     14791
     14768     14766     14770     14772     14768     14766     14770     14773
     14768     14766     14770     14787     14769     14766     14770     14772
     14769     14766     14770     14773     14769     14766     14770     14787
     14770     14773     14775     14777     14770     14773     14775     14779
     14770     14787     14791     14793     14772     14770     14773     14775
     14772     14770     14787     14789     14772     14770     14787     14790
     14772     14770     14787     14791     14773     14770     14787     14789
     14773     14770     14787     14790     14773     14770     14787     14791
     14773     14775     14779     14781     14773     14775     14779     14782
     14773     14775     14779     14805     14775     14773     14770     14787
     14775     14779     14805     14807     14775     14779     14805     14808
     14775     14779     14805     14809     14777     14775     14779     14781
     14777     14775     14779     14782     14777     14775     14779     14805
     14779     14805     14809     14811     14779     14805     14809     14812
     14779     14805     14809     14813     14781     14779     14805     14807
     14781     14779     14805     14808     14781     14779     14805     14809
     14782     14779     14805     14807     14782     14779     14805     14808
     14782     14779     14805     14809     14787     14791     14793     14795
     14787     14791     14793     14797     14789     14787     14791     14793
     14790     14787     14791     14793     14791     14793     14797     14799
     14791     14793     14797     14800     14791     14793     14797     14868
     14793     14797     14868     14870     14793     14797     14868     14871
     14793     14797     14868     14872     14795     14793     14797     14799
     14795     14793     14797     14800     14795     14793     14797     14868
     14797     14868     14872     14874     14797     14868     14872     14875
     14797     14868     14872     14876     14799     14797     14868     14870
     14799     14797     14868     14871     14799     14797     14868     14872
     14800     14797     14868     14870     14800     14797     14868     14871
     14800     14797     14868     14872     14805     14809     14813     14815
     14805     14809     14813     14816     14805     14809     14813     14817
     14807     14805     14809     14811     14807     14805     14809     14812
     14807     14805     14809     14813     14808     14805     14809     14811
     14808     14805     14809     14812     14808     14805     14809     14813
     14809     14813     14817     14819     14809     14813     14817     14820
     14809     14813     14817     14821     14811     14809     14813     14815
     14811     14809     14813     14816     14811     14809     14813     14817
     14812     14809     14813     14815     14812     14809     14813     14816
     14812     14809     14813     14817     14813     14817     14821     14823
     14813     14817     14821     14824     14813     14817     14821     14825
     14815     14813     14817     14819     14815     14813     14817     14820
     14815     14813     14817     14821     14816     14813     14817     14819
     14816     14813     14817     14820     14816     14813     14817     14821
     14817     14821     14825     14827     14817     14821     14825     14828
     14817     14821     14825     14829     14819     14817     14821     14823
     14819     14817     14821     14824     14819     14817     14821     14825
     14820     14817     14821     14823     14820     14817     14821     14824
     14820     14817     14821     14825     14821     14825     14829     14831
     14821     14825     14829     14832     14823     14821     14825     14827
     14823     14821     14825     14828     14823     14821     14825     14829
     14824     14821     14825     14827     14824     14821     14825     14828
     14824     14821     14825     14829     14825     14829     14832     14834
     14825     14829     14832     14835     14827     14825     14829     14831
     14827     14825     14829     14832     14828     14825     14829     14831
     14828     14825     14829     14832     14829     14832     14835     14837
     14829     14832     14835     14838     14829     14832     14835     14839
     14831     14829     14832     14834     14831     14829     14832     14835
     14832     14835     14839     14841     14832     14835     14839     14842
     14832     14835     14839     14843     14834     14832     14835     14837
     14834     14832     14835     14838     14834     14832     14835     14839
     14835     14839     14843     14845     14835     14839     14843     14846
     14835     14839     14843     14847     14837     14835     14839     14841
     14837     14835     14839     14842     14837     14835     14839     14843
     14838     14835     14839     14841     14838     14835     14839     14842
     14838     14835     14839     14843     14839     14843     14847     14849
     14839     14843     14847     14850     14839     14843     14847     14851
     14841     14839     14843     14845     14841     14839     14843     14846
     14841     14839     14843     14847     14842     14839     14843     14845
     14842     14839     14843     14846     14842     14839     14843     14847
     14843     14847     14851     14853     14843     14847     14851     14854
     14843     14847     14851     14855     14845     14843     14847     14849
     14845     14843     14847     14850     14845     14843     14847     14851
     14846     14843     14847     14849     14846     14843     14847     14850
     14846     14843     14847     14851     14847     14851     14855     14857
     14847     14851     14855     14858     14847     14851     14855     14859
     14849     14847     14851     14853     14849     14847     14851     14854
     14849     14847     14851     14855     14850     14847     14851     14853
     14850     14847     14851     14854     14850     14847     14851     14855
     14851     14855     14859     14861     14851     14855     14859     14862
     14851     14855     14859     14863     14853     14851     14855     14857
     14853     14851     14855     14858     14853     14851     14855     14859
     14854     14851     14855     14857     14854     14851     14855     14858
     14854     14851     14855     14859     14855     14859     14863     14865
     14855     14859     14863     14866     14855     14859     14863     14867
     14857     14855     14859     14861     14857     14855     14859     14862
     14857     14855     14859     14863     14858     14855     14859     14861
     14858     14855     14859     14862     14858     14855     14859     14863
     14861     14859     14863     14865     14861     14859     14863     14866
     14861     14859     14863     14867     14862     14859     14863     14865
     14862     14859     14863     14866     14862     14859     14863     14867
     14868     14872     14876     14878     14868     14872     14876     14879
     14868     14872     14876     14880     14870     14868     14872     14874
     14870     14868     14872     14875     14870     14868     14872     14876
     14871     14868     14872     14874     14871     14868     14872     14875
     14871     14868     14872     14876     14872     14876     14880     14882
     14872     14876     14880     14883     14872     14876     14880     14884
     14874     14872     14876     14878     14874     14872     14876     14879
     14874     14872     14876     14880     14875     14872     14876     14878
     14875     14872     14876     14879     14875     14872     14876     14880
     14876     14880     14884     14886     14876     14880     14884     14887
     14876     14880     14884     14888     14878     14876     14880     14882
     14878     14876     14880     14883     14878     14876     14880     14884
     14879     14876     14880     14882     14879     14876     14880     14883
     14879     14876     14880     14884     14880     14884     14888     14890
     14880     14884     14888     14891     14880     14884     14888     14892
     14882     14880     14884     14886     14882     14880     14884     14887
     14882     14880     14884     14888     14883     14880     14884     14886
     14883     14880     14884     14887     14883     14880     14884     14888
     14884     14888     14892     14894     14884     14888     14892     14895
     14884     14888     14892     14896     14886     14884     14888     14890
     14886     14884     14888     14891     14886     14884     14888     14892
     14887     14884     14888     14890     14887     14884     14888     14891
     14887     14884     14888     14892     14888     14892     14896     14898
     14888     14892     14896     14899     14888     14892     14896     14900
     14890     14888     14892     14894     14890     14888     14892     14895
     14890     14888     14892     14896     14891     14888     14892     14894
     14891     14888     14892     14895     14891     14888     14892     14896
     14892     14896     14900     14902     14892     14896     14900     14903
     14892     14896     14900     14904     14894     14892     14896     14898
     14894     14892     14896     14899     14894     14892     14896     14900
     14895     14892     14896     14898     14895     14892     14896     14899
     14895     14892     14896     14900     14896     14900     14904     14906
     14896     14900     14904     14907     14896     14900     14904     14908
     14898     14896     14900     14902     14898     14896     14900     14903
     14898     14896     14900     14904     14899     14896     14900     14902
     14899     14896     14900     14903     14899     14896     14900     14904
     14900     14904     14908     14910     14900     14904     14908     14911
     14900     14904     14908     14912     14902     14900     14904     14906
     14902     14900     14904     14907     14902     14900     14904     14908
     14903     14900     14904     14906     14903     14900     14904     14907
     14903     14900     14904     14908     14904     14908     14912     14914
     14904     14908     14912     14915     14904     14908     14912     14916
     14906     14904     14908     14910     14906     14904     14908     14911
     14906     14904     14908     14912     14907     14904     14908     14910
     14907     14904     14908     14911     14907     14904     14908     14912
     14908     14912     14916     14918     14908     14912     14916     14919
     14908     14912     14916     14920     14910     14908     14912     14914
     14910     14908     14912     14915     14910     14908     14912     14916
     14911     14908     14912     14914     14911     14908     14912     14915
     14911     14908     14912     14916     14912     14916     14920     14922
     14912     14916     14920     14923     14912     14916     14920     14924
     14914     14912     14916     14918     14914     14912     14916     14919
     14914     14912     14916     14920     14915     14912     14916     14918
     14915     14912     14916     14919     14915     14912     14916     14920
     14918     14916     14920     14922     14918     14916     14920     14923
     14918     14916     14920     14924     14919     14916     14920     14922
     14919     14916     14920     14923     14919     14916     14920     14924
     14925     14930     14934     14936     14925     14930     14934     14937
     14925     14930     14934     14946     14927     14925     14930     14932
     14927     14925     14930     14933     14927     14925     14930     14934
     14928     14925     14930     14932     14928     14925     14930     14933
     14928     14925     14930     14934     14929     14925     14930     14932
     14929     14925     14930     14933     14929     14925     14930     14934
     14930     14934     14946     14938     14932     14930     14934     14936
     14932     14930     14934     14937     14932     14930     14934     14946
     14933     14930     14934     14936     14933     14930     14934     14937
     14933     14930     14934     14946     14934     14946     14938     14940
     14934     14946     14938     14942     14934     14946     14938     14944
     14936     14934     14946     14938     14937     14934     14946     14938
     14938     14944     14948     14950     14938     14944     14948     14951
     14938     14944     14948     14952     14940     14938     14944     14948
     14942     14938     14944     14948     14944     14948     14952     14954
     14944     14948     14952     14955     14944     14948     14952     14969
     14946     14938     14944     14948     14948     14952     14955     14957
     14948     14952     14969     14971     14948     14952     14969     14972
     14948     14952     14969     14973     14950     14948     14952     14954
     14950     14948     14952     14955     14950     14948     14952     14969
     14951     14948     14952     14954     14951     14948     14952     14955
     14951     14948     14952     14969     14952     14955     14957     14959
     14952     14955     14957     14961     14952     14969     14973     14975
     14954     14952     14955     14957     14954     14952     14969     14971
     14954     14952     14969     14972     14954     14952     14969     14973
     14955     14952     14969     14971     14955     14952     14969     14972
     14955     14952     14969     14973     14955     14957     14961     14963
     14955     14957     14961     14964     14955     14957     14961     14987
     14957     14955     14952     14969     14957     14961     14987     14989
     14957     14961     14987     14990     14957     14961     14987     14991
     14959     14957     14961     14963     14959     14957     14961     14964
     14959     14957     14961     14987     14961     14987     14991     14993
     14961     14987     14991     14994     14961     14987     14991     14995
     14963     14961     14987     14989     14963     14961     14987     14990
     14963     14961     14987     14991     14964     14961     14987     14989
     14964     14961     14987     14990     14964     14961     14987     14991
     14969     14973     14975     14977     14969     14973     14975     14979
     14971     14969     14973     14975     14972     14969     14973     14975
     14973     14975     14979     14981     14973     14975     14979     14982
     14973     14975     14979     15050     14975     14979     15050     15052
     14975     14979     15050     15053     14975     14979     15050     15054
     14977     14975     14979     14981     14977     14975     14979     14982
     14977     14975     14979     15050     14979     15050     15054     15056
     14979     15050     15054     15057     14979     15050     15054     15058
     14981     14979     15050     15052     14981     14979     15050     15053
     14981     14979     15050     15054     14982     14979     15050     15052
     14982     14979     15050     15053     14982     14979     15050     15054
     14987     14991     14995     14997     14987     14991     14995     14998
     14987     14991     14995     14999     14989     14987     14991     14993
     14989     14987     14991     14994     14989     14987     14991     14995
     14990     14987     14991     14993     14990     14987     14991     14994
     14990     14987     14991     14995     14991     14995     14999     15001
     14991     14995     14999     15002     14991     14995     14999     15003
     14993     14991     14995     14997     14993     14991     14995     14998
     14993     14991     14995     14999     14994     14991     14995     14997
     14994     14991     14995     14998     14994     14991     14995     14999
     14995     14999     15003     15005     14995     14999     15003     15006
     14995     14999     15003     15007     14997     14995     14999     15001
     14997     14995     14999     15002     14997     14995     14999     15003
     14998     14995     14999     15001     14998     14995     14999     15002
     14998     14995     14999     15003     14999     15003     15007     15009
     14999     15003     15007     15010     14999     15003     15007     15011
     15001     14999     15003     15005     15001     14999     15003     15006
     15001     14999     15003     15007     15002     14999     15003     15005
     15002     14999     15003     15006     15002     14999     15003     15007
     15003     15007     15011     15013     15003     15007     15011     15014
     15005     15003     15007     15009     15005     15003     15007     15010
     15005     15003     15007     15011     15006     15003     15007     15009
     15006     15003     15007     15010     15006     15003     15007     15011
     15007     15011     15014     15016     15007     15011     15014     15017
     15009     15007     15011     15013     15009     15007     15011     15014
     15010     15007     15011     15013     15010     15007     15011     15014
     15011     15014     15017     15019     15011     15014     15017     15020
     15011     15014     15017     15021     15013     15011     15014     15016
     15013     15011     15014     15017     15014     15017     15021     15023
     15014     15017     15021     15024     15014     15017     15021     15025
     15016     15014     15017     15019     15016     15014     15017     15020
     15016     15014     15017     15021     15017     15021     15025     15027
     15017     15021     15025     15028     15017     15021     15025     15029
     15019     15017     15021     15023     15019     15017     15021     15024
     15019     15017     15021     15025     15020     15017     15021     15023
     15020     15017     15021     15024     15020     15017     15021     15025
     15021     15025     15029     15031     15021     15025     15029     15032
     15021     15025     15029     15033     15023     15021     15025     15027
     15023     15021     15025     15028     15023     15021     15025     15029
     15024     15021     15025     15027     15024     15021     15025     15028
     15024     15021     15025     15029     15025     15029     15033     15035
     15025     15029     15033     15036     15025     15029     15033     15037
     15027     15025     15029     15031     15027     15025     15029     15032
     15027     15025     15029     15033     15028     15025     15029     15031
     15028     15025     15029     15032     15028     15025     15029     15033
     15029     15033     15037     15039     15029     15033     15037     15040
     15029     15033     15037     15041     15031     15029     15033     15035
     15031     15029     15033     15036     15031     15029     15033     15037
     15032     15029     15033     15035     15032     15029     15033     15036
     15032     15029     15033     15037     15033     15037     15041     15043
     15033     15037     15041     15044     15033     15037     15041     15045
     15035     15033     15037     15039     15035     15033     15037     15040
     15035     15033     15037     15041     15036     15033     15037     15039
     15036     15033     15037     15040     15036     15033     15037     15041
     15037     15041     15045     15047     15037     15041     15045     15048
     15037     15041     15045     15049     15039     15037     15041     15043
     15039     15037     15041     15044     15039     15037     15041     15045
     15040     15037     15041     15043     15040     15037     15041     15044
     15040     15037     15041     15045     15043     15041     15045     15047
     15043     15041     15045     15048     15043     15041     15045     15049
     15044     15041     15045     15047     15044     15041     15045     15048
     15044     15041     15045     15049     15050     15054     15058     15060
     15050     15054     15058     15061     15050     15054     15058     15062
     15052     15050     15054     15056     15052     15050     15054     15057
     15052     15050     15054     15058     15053     15050     15054     15056
     15053     15050     15054     15057     15053     15050     15054     15058
     15054     15058     15062     15064     15054     15058     15062     15065
     15054     15058     15062     15066     15056     15054     15058     15060
     15056     15054     15058     15061     15056     15054     15058     15062
     15057     15054     15058     15060     15057     15054     15058     15061
     15057     15054     15058     15062     15058     15062     15066     15068
     15058     15062     15066     15069     15058     15062     15066     15070
     15060     15058     15062     15064     15060     15058     15062     15065
     15060     15058     15062     15066     15061     15058     15062     15064
     15061     15058     15062     15065     15061     15058     15062     15066
     15062     15066     15070     15072     15062     15066     15070     15073
     15062     15066     15070     15074     15064     15062     15066     15068
     15064     15062     15066     15069     15064     15062     15066     15070
     15065     15062     15066     15068     15065     15062     15066     15069
     15065     15062     15066     15070     15066     15070     15074     15076
     15066     15070     15074     15077     15066     15070     15074     15078
     15068     15066     15070     15072     15068     15066     15070     15073
     15068     15066     15070     15074     15069     15066     15070     15072
     15069     15066     15070     15073     15069     15066     15070     15074
     15070     15074     15078     15080     15070     15074     15078     15081
     15070     15074     15078     15082     15072     15070     15074     15076
     15072     15070     15074     15077     15072     15070     15074     15078
     15073     15070     15074     15076     15073     15070     15074     15077
     15073     15070     15074     15078     15074     15078     15082     15084
     15074     15078     15082     15085     15074     15078     15082     15086
     15076     15074     15078     15080     15076     15074     15078     15081
     15076     15074     15078     15082     15077     15074     15078     15080
     15077     15074     15078     15081     15077     15074     15078     15082
     15078     15082     15086     15088     15078     15082     15086     15089
     15078     15082     15086     15090     15080     15078     15082     15084
     15080     15078     15082     15085     15080     15078     15082     15086
     15081     15078     15082     15084     15081     15078     15082     15085
     15081     15078     15082     15086     15082     15086     15090     15092
     15082     15086     15090     15093     15082     15086     15090     15094
     15084     15082     15086     15088     15084     15082     15086     15089
     15084     15082     15086     15090     15085     15082     15086     15088
     15085     15082     15086     15089     15085     15082     15086     15090
     15086     15090     15094     15096     15086     15090     15094     15097
     15086     15090     15094     15098     15088     15086     15090     15092
     15088     15086     15090     15093     15088     15086     15090     15094
     15089     15086     15090     15092     15089     15086     15090     15093
     15089     15086     15090     15094     15090     15094     15098     15100
     15090     15094     15098     15101     15090     15094     15098     15102
     15092     15090     15094     15096     15092     15090     15094     15097
     15092     15090     15094     15098     15093     15090     15094     15096
     15093     15090     15094     15097     15093     15090     15094     15098
     15094     15098     15102     15104     15094     15098     15102     15105
     15094     15098     15102     15106     15096     15094     15098     15100
     15096     15094     15098     15101     15096     15094     15098     15102
     15097     15094     15098     15100     15097     15094     15098     15101
     15097     15094     15098     15102     15100     15098     15102     15104
     15100     15098     15102     15105     15100     15098     15102     15106
     15101     15098     15102     15104     15101     15098     15102     15105
     15101     15098     15102     15106     15107     15112     15116     15118
     15107     15112     15116     15119     15107     15112     15116     15128
     15109     15107     15112     15114     15109     15107     15112     15115
     15109     15107     15112     15116     15110     15107     15112     15114
     15110     15107     15112     15115     15110     15107     15112     15116
     15111     15107     15112     15114     15111     15107     15112     15115
     15111     15107     15112     15116     15112     15116     15128     15120
     15114     15112     15116     15118     15114     15112     15116     15119
     15114     15112     15116     15128     15115     15112     15116     15118
     15115     15112     15116     15119     15115     15112     15116     15128
     15116     15128     15120     15122     15116     15128     15120     15124
     15116     15128     15120     15126     15118     15116     15128     15120
     15119     15116     15128     15120     15120     15126     15130     15132
     15120     15126     15130     15133     15120     15126     15130     15134
     15122     15120     15126     15130     15124     15120     15126     15130
     15126     15130     15134     15136     15126     15130     15134     15137
     15126     15130     15134     15151     15128     15120     15126     15130
     15130     15134     15137     15139     15130     15134     15151     15153
     15130     15134     15151     15154     15130     15134     15151     15155
     15132     15130     15134     15136     15132     15130     15134     15137
     15132     15130     15134     15151     15133     15130     15134     15136
     15133     15130     15134     15137     15133     15130     15134     15151
     15134     15137     15139     15141     15134     15137     15139     15143
     15134     15151     15155     15157     15136     15134     15137     15139
     15136     15134     15151     15153     15136     15134     15151     15154
     15136     15134     15151     15155     15137     15134     15151     15153
     15137     15134     15151     15154     15137     15134     15151     15155
     15137     15139     15143     15145     15137     15139     15143     15146
     15137     15139     15143     15169     15139     15137     15134     15151
     15139     15143     15169     15171     15139     15143     15169     15172
     15139     15143     15169     15173     15141     15139     15143     15145
     15141     15139     15143     15146     15141     15139     15143     15169
     15143     15169     15173     15175     15143     15169     15173     15176
     15143     15169     15173     15177     15145     15143     15169     15171
     15145     15143     15169     15172     15145     15143     15169     15173
     15146     15143     15169     15171     15146     15143     15169     15172
     15146     15143     15169     15173     15151     15155     15157     15159
     15151     15155     15157     15161     15153     15151     15155     15157
     15154     15151     15155     15157     15155     15157     15161     15163
     15155     15157     15161     15164     15155     15157     15161     15232
     15157     15161     15232     15234     15157     15161     15232     15235
     15157     15161     15232     15236     15159     15157     15161     15163
     15159     15157     15161     15164     15159     15157     15161     15232
     15161     15232     15236     15238     15161     15232     15236     15239
     15161     15232     15236     15240     15163     15161     15232     15234
     15163     15161     15232     15235     15163     15161     15232     15236
     15164     15161     15232     15234     15164     15161     15232     15235
     15164     15161     15232     15236     15169     15173     15177     15179
     15169     15173     15177     15180     15169     15173     15177     15181
     15171     15169     15173     15175     15171     15169     15173     15176
     15171     15169     15173     15177     15172     15169     15173     15175
     15172     15169     15173     15176     15172     15169     15173     15177
     15173     15177     15181     15183     15173     15177     15181     15184
     15173     15177     15181     15185     15175     15173     15177     15179
     15175     15173     15177     15180     15175     15173     15177     15181
     15176     15173     15177     15179     15176     15173     15177     15180
     15176     15173     15177     15181     15177     15181     15185     15187
     15177     15181     15185     15188     15177     15181     15185     15189
     15179     15177     15181     15183     15179     15177     15181     15184
     15179     15177     15181     15185     15180     15177     15181     15183
     15180     15177     15181     15184     15180     15177     15181     15185
     15181     15185     15189     15191     15181     15185     15189     15192
     15181     15185     15189     15193     15183     15181     15185     15187
     15183     15181     15185     15188     15183     15181     15185     15189
     15184     15181     15185     15187     15184     15181     15185     15188
     15184     15181     15185     15189     15185     15189     15193     15195
     15185     15189     15193     15196     15187     15185     15189     15191
     15187     15185     15189     15192     15187     15185     15189     15193
     15188     15185     15189     15191     15188     15185     15189     15192
     15188     15185     15189     15193     15189     15193     15196     15198
     15189     15193     15196     15199     15191     15189     15193     15195
     15191     15189     15193     15196     15192     15189     15193     15195
     15192     15189     15193     15196     15193     15196     15199     15201
     15193     15196     15199     15202     15193     15196     15199     15203
     15195     15193     15196     15198     15195     15193     15196     15199
     15196     15199     15203     15205     15196     15199     15203     15206
     15196     15199     15203     15207     15198     15196     15199     15201
     15198     15196     15199     15202     15198     15196     15199     15203
     15199     15203     15207     15209     15199     15203     15207     15210
     15199     15203     15207     15211     15201     15199     15203     15205
     15201     15199     15203     15206     15201     15199     15203     15207
     15202     15199     15203     15205     15202     15199     15203     15206
     15202     15199     15203     15207     15203     15207     15211     15213
     15203     15207     15211     15214     15203     15207     15211     15215
     15205     15203     15207     15209     15205     15203     15207     15210
     15205     15203     15207     15211     15206     15203     15207     15209
     15206     15203     15207     15210     15206     15203     15207     15211
     15207     15211     15215     15217     15207     15211     15215     15218
     15207     15211     15215     15219     15209     15207     15211     15213
     15209     15207     15211     15214     15209     15207     15211     15215
     15210     15207     15211     15213     15210     15207     15211     15214
     15210     15207     15211     15215     15211     15215     15219     15221
     15211     15215     15219     15222     15211     15215     15219     15223
     15213     15211     15215     15217     15213     15211     15215     15218
     15213     15211     15215     15219     15214     15211     15215     15217
     15214     15211     15215     15218     15214     15211     15215     15219
     15215     15219     15223     15225     15215     15219     15223     15226
     15215     15219     15223     15227     15217     15215     15219     15221
     15217     15215     15219     15222     15217     15215     15219     15223
     15218     15215     15219     15221     15218     15215     15219     15222
     15218     15215     15219     15223     15219     15223     15227     15229
     15219     15223     15227     15230     15219     15223     15227     15231
     15221     15219     15223     15225     15221     15219     15223     15226
     15221     15219     15223     15227     15222     15219     15223     15225
     15222     15219     15223     15226     15222     15219     15223     15227
     15225     15223     15227     15229     15225     15223     15227     15230
     15225     15223     15227     15231     15226     15223     15227     15229
     15226     15223     15227     15230     15226     15223     15227     15231
     15232     15236     15240     15242     15232     15236     15240     15243
     15232     15236     15240     15244     15234     15232     15236     15238
     15234     15232     15236     15239     15234     15232     15236     15240
     15235     15232     15236     15238     15235     15232     15236     15239
     15235     15232     15236     15240     15236     15240     15244     15246
     15236     15240     15244     15247     15236     15240     15244     15248
     15238     15236     15240     15242     15238     15236     15240     15243
     15238     15236     15240     15244     15239     15236     15240     15242
     15239     15236     15240     15243     15239     15236     15240     15244
     15240     15244     15248     15250     15240     15244     15248     15251
     15240     15244     15248     15252     15242     15240     15244     15246
     15242     15240     15244     15247     15242     15240     15244     15248
     15243     15240     15244     15246     15243     15240     15244     15247
     15243     15240     15244     15248     15244     15248     15252     15254
     15244     15248     15252     15255     15244     15248     15252     15256
     15246     15244     15248     15250     15246     15244     15248     15251
     15246     15244     15248     15252     15247     15244     15248     15250
     15247     15244     15248     15251     15247     15244     15248     15252
     15248     15252     15256     15258     15248     15252     15256     15259
     15248     15252     15256     15260     15250     15248     15252     15254
     15250     15248     15252     15255     15250     15248     15252     15256
     15251     15248     15252     15254     15251     15248     15252     15255
     15251     15248     15252     15256     15252     15256     15260     15262
     15252     15256     15260     15263     15252     15256     15260     15264
     15254     15252     15256     15258     15254     15252     15256     15259
     15254     15252     15256     15260     15255     15252     15256     15258
     15255     15252     15256     15259     15255     15252     15256     15260
     15256     15260     15264     15266     15256     15260     15264     15267
     15256     15260     15264     15268     15258     15256     15260     15262
     15258     15256     15260     15263     15258     15256     15260     15264
     15259     15256     15260     15262     15259     15256     15260     15263
     15259     15256     15260     15264     15260     15264     15268     15270
     15260     15264     15268     15271     15260     15264     15268     15272
     15262     15260     15264     15266     15262     15260     15264     15267
     15262     15260     15264     15268     15263     15260     15264     15266
     15263     15260     15264     15267     15263     15260     15264     15268
     15264     15268     15272     15274     15264     15268     15272     15275
     15264     15268     15272     15276     15266     15264     15268     15270
     15266     15264     15268     15271     15266     15264     15268     15272
     15267     15264     15268     15270     15267     15264     15268     15271
     15267     15264     15268     15272     15268     15272     15276     15278
     15268     15272     15276     15279     15268     15272     15276     15280
     15270     15268     15272     15274     15270     15268     15272     15275
     15270     15268     15272     15276     15271     15268     15272     15274
     15271     15268     15272     15275     15271     15268     15272     15276
     15272     15276     15280     15282     15272     15276     15280     15283
     15272     15276     15280     15284     15274     15272     15276     15278
     15274     15272     15276     15279     15274     15272     15276     15280
     15275     15272     15276     15278     15275     15272     15276     15279
     15275     15272     15276     15280     15276     15280     15284     15286
     15276     15280     15284     15287     15276     15280     15284     15288
     15278     15276     15280     15282     15278     15276     15280     15283
     15278     15276     15280     15284     15279     15276     15280     15282
     15279     15276     15280     15283     15279     15276     15280     15284
     15282     15280     15284     15286     15282     15280     15284     15287
     15282     15280     15284     15288     15283     15280     15284     15286
     15283     15280     15284     15287     15283     15280     15284     15288
     15289     15294     15298     15300     15289     15294     15298     15301
     15289     15294     15298     15310     15291     15289     15294     15296
     15291     15289     15294     15297     15291     15289     15294     15298
     15292     15289     15294     15296     15292     15289     15294     15297
     15292     15289     15294     15298     15293     15289     15294     15296
     15293     15289     15294     15297     15293     15289     15294     15298
     15294     15298     15310     15302     15296     15294     15298     15300
     15296     15294     15298     15301     15296     15294     15298     15310
     15297     15294     15298     15300     15297     15294     15298     15301
     15297     15294     15298     15310     15298     15310     15302     15304
     15298     15310     15302     15306     15298     15310     15302     15308
     15300     15298     15310     15302     15301     15298     15310     15302
     15302     15308     15312     15314     15302     15308     15312     15315
     15302     15308     15312     15316     15304     15302     15308     15312
     15306     15302     15308     15312     15308     15312     15316     15318
     15308     15312     15316     15319     15308     15312     15316     15333
     15310     15302     15308     15312     15312     15316     15319     15321
     15312     15316     15333     15335     15312     15316     15333     15336
     15312     15316     15333     15337     15314     15312     15316     15318
     15314     15312     15316     15319     15314     15312     15316     15333
     15315     15312     15316     15318     15315     15312     15316     15319
     15315     15312     15316     15333     15316     15319     15321     15323
     15316     15319     15321     15325     15316     15333     15337     15339
     15318     15316     15319     15321     15318     15316     15333     15335
     15318     15316     15333     15336     15318     15316     15333     15337
     15319     15316     15333     15335     15319     15316     15333     15336
     15319     15316     15333     15337     15319     15321     15325     15327
     15319     15321     15325     15328     15319     15321     15325     15351
     15321     15319     15316     15333     15321     15325     15351     15353
     15321     15325     15351     15354     15321     15325     15351     15355
     15323     15321     15325     15327     15323     15321     15325     15328
     15323     15321     15325     15351     15325     15351     15355     15357
     15325     15351     15355     15358     15325     15351     15355     15359
     15327     15325     15351     15353     15327     15325     15351     15354
     15327     15325     15351     15355     15328     15325     15351     15353
     15328     15325     15351     15354     15328     15325     15351     15355
     15333     15337     15339     15341     15333     15337     15339     15343
     15335     15333     15337     15339     15336     15333     15337     15339
     15337     15339     15343     15345     15337     15339     15343     15346
     15337     15339     15343     15414     15339     15343     15414     15416
     15339     15343     15414     15417     15339     15343     15414     15418
     15341     15339     15343     15345     15341     15339     15343     15346
     15341     15339     15343     15414     15343     15414     15418     15420
     15343     15414     15418     15421     15343     15414     15418     15422
     15345     15343     15414     15416     15345     15343     15414     15417
     15345     15343     15414     15418     15346     15343     15414     15416
     15346     15343     15414     15417     15346     15343     15414     15418
     15351     15355     15359     15361     15351     15355     15359     15362
     15351     15355     15359     15363     15353     15351     15355     15357
     15353     15351     15355     15358     15353     15351     15355     15359
     15354     15351     15355     15357     15354     15351     15355     15358
     15354     15351     15355     15359     15355     15359     15363     15365
     15355     15359     15363     15366     15355     15359     15363     15367
     15357     15355     15359     15361     15357     15355     15359     15362
     15357     15355     15359     15363     15358     15355     15359     15361
     15358     15355     15359     15362     15358     15355     15359     15363
     15359     15363     15367     15369     15359     15363     15367     15370
     15359     15363     15367     15371     15361     15359     15363     15365
     15361     15359     15363     15366     15361     15359     15363     15367
     15362     15359     15363     15365     15362     15359     15363     15366
     15362     15359     15363     15367     15363     15367     15371     15373
     15363     15367     15371     15374     15363     15367     15371     15375
     15365     15363     15367     15369     15365     15363     15367     15370
     15365     15363     15367     15371     15366     15363     15367     15369
     15366     15363     15367     15370     15366     15363     15367     15371
     15367     15371     15375     15377     15367     15371     15375     15378
     15369     15367     15371     15373     15369     15367     15371     15374
     15369     15367     15371     15375     15370     15367     15371     15373
     15370     15367     15371     15374     15370     15367     15371     15375
     15371     15375     15378     15380     15371     15375     15378     15381
     15373     15371     15375     15377     15373     15371     15375     15378
     15374     15371     15375     15377     15374     15371     15375     15378
     15375     15378     15381     15383     15375     15378     15381     15384
     15375     15378     15381     15385     15377     15375     15378     15380
     15377     15375     15378     15381     15378     15381     15385     15387
     15378     15381     15385     15388     15378     15381     15385     15389
     15380     15378     15381     15383     15380     15378     15381     15384
     15380     15378     15381     15385     15381     15385     15389     15391
     15381     15385     15389     15392     15381     15385     15389     15393
     15383     15381     15385     15387     15383     15381     15385     15388
     15383     15381     15385     15389     15384     15381     15385     15387
     15384     15381     15385     15388     15384     15381     15385     15389
     15385     15389     15393     15395     15385     15389     15393     15396
     15385     15389     15393     15397     15387     15385     15389     15391
     15387     15385     15389     15392     15387     15385     15389     15393
     15388     15385     15389     15391     15388     15385     15389     15392
     15388     15385     15389     15393     15389     15393     15397     15399
     15389     15393     15397     15400     15389     15393     15397     15401
     15391     15389     15393     15395     15391     15389     15393     15396
     15391     15389     15393     15397     15392     15389     15393     15395
     15392     15389     15393     15396     15392     15389     15393     15397
     15393     15397     15401     15403     15393     15397     15401     15404
     15393     15397     15401     15405     15395     15393     15397     15399
     15395     15393     15397     15400     15395     15393     15397     15401
     15396     15393     15397     15399     15396     15393     15397     15400
     15396     15393     15397     15401     15397     15401     15405     15407
     15397     15401     15405     15408     15397     15401     15405     15409
     15399     15397     15401     15403     15399     15397     15401     15404
     15399     15397     15401     15405     15400     15397     15401     15403
     15400     15397     15401     15404     15400     15397     15401     15405
     15401     15405     15409     15411     15401     15405     15409     15412
     15401     15405     15409     15413     15403     15401     15405     15407
     15403     15401     15405     15408     15403     15401     15405     15409
     15404     15401     15405     15407     15404     15401     15405     15408
     15404     15401     15405     15409     15407     15405     15409     15411
     15407     15405     15409     15412     15407     15405     15409     15413
     15408     15405     15409     15411     15408     15405     15409     15412
     15408     15405     15409     15413     15414     15418     15422     15424
     15414     15418     15422     15425     15414     15418     15422     15426
     15416     15414     15418     15420     15416     15414     15418     15421
     15416     15414     15418     15422     15417     15414     15418     15420
     15417     15414     15418     15421     15417     15414     15418     15422
     15418     15422     15426     15428     15418     15422     15426     15429
     15418     15422     15426     15430     15420     15418     15422     15424
     15420     15418     15422     15425     15420     15418     15422     15426
     15421     15418     15422     15424     15421     15418     15422     15425
     15421     15418     15422     15426     15422     15426     15430     15432
     15422     15426     15430     15433     15422     15426     15430     15434
     15424     15422     15426     15428     15424     15422     15426     15429
     15424     15422     15426     15430     15425     15422     15426     15428
     15425     15422     15426     15429     15425     15422     15426     15430
     15426     15430     15434     15436     15426     15430     15434     15437
     15426     15430     15434     15438     15428     15426     15430     15432
     15428     15426     15430     15433     15428     15426     15430     15434
     15429     15426     15430     15432     15429     15426     15430     15433
     15429     15426     15430     15434     15430     15434     15438     15440
     15430     15434     15438     15441     15430     15434     15438     15442
     15432     15430     15434     15436     15432     15430     15434     15437
     15432     15430     15434     15438     15433     15430     15434     15436
     15433     15430     15434     15437     15433     15430     15434     15438
     15434     15438     15442     15444     15434     15438     15442     15445
     15434     15438     15442     15446     15436     15434     15438     15440
     15436     15434     15438     15441     15436     15434     15438     15442
     15437     15434     15438     15440     15437     15434     15438     15441
     15437     15434     15438     15442     15438     15442     15446     15448
     15438     15442     15446     15449     15438     15442     15446     15450
     15440     15438     15442     15444     15440     15438     15442     15445
     15440     15438     15442     15446     15441     15438     15442     15444
     15441     15438     15442     15445     15441     15438     15442     15446
     15442     15446     15450     15452     15442     15446     15450     15453
     15442     15446     15450     15454     15444     15442     15446     15448
     15444     15442     15446     15449     15444     15442     15446     15450
     15445     15442     15446     15448     15445     15442     15446     15449
     15445     15442     15446     15450     15446     15450     15454     15456
     15446     15450     15454     15457     15446     15450     15454     15458
     15448     15446     15450     15452     15448     15446     15450     15453
     15448     15446     15450     15454     15449     15446     15450     15452
     15449     15446     15450     15453     15449     15446     15450     15454
     15450     15454     15458     15460     15450     15454     15458     15461
     15450     15454     15458     15462     15452     15450     15454     15456
     15452     15450     15454     15457     15452     15450     15454     15458
     15453     15450     15454     15456     15453     15450     15454     15457
     15453     15450     15454     15458     15454     15458     15462     15464
     15454     15458     15462     15465     15454     15458     15462     15466
     15456     15454     15458     15460     15456     15454     15458     15461
     15456     15454     15458     15462     15457     15454     15458     15460
     15457     15454     15458     15461     15457     15454     15458     15462
     15458     15462     15466     15468     15458     15462     15466     15469
     15458     15462     15466     15470     15460     15458     15462     15464
     15460     15458     15462     15465     15460     15458     15462     15466
     15461     15458     15462     15464     15461     15458     15462     15465
     15461     15458     15462     15466     15464     15462     15466     15468
     15464     15462     15466     15469     15464     15462     15466     15470
     15465     15462     15466     15468     15465     15462     15466     15469
     15465     15462     15466     15470     15471     15476     15480     15482
     15471     15476     15480     15483     15471     15476     15480     15492
     15473     15471     15476     15478     15473     15471     15476     15479
     15473     15471     15476     15480     15474     15471     15476     15478
     15474     15471     15476     15479     15474     15471     15476     15480
     15475     15471     15476     15478     15475     15471     15476     15479
     15475     15471     15476     15480     15476     15480     15492     15484
     15478     15476     15480     15482     15478     15476     15480     15483
     15478     15476     15480     15492     15479     15476     15480     15482
     15479     15476     15480     15483     15479     15476     15480     15492
     15480     15492     15484     15486     15480     15492     15484     15488
     15480     15492     15484     15490     15482     15480     15492     15484
     15483     15480     15492     15484     15484     15490     15494     15496
     15484     15490     15494     15497     15484     15490     15494     15498
     15486     15484     15490     15494     15488     15484     15490     15494
     15490     15494     15498     15500     15490     15494     15498     15501
     15490     15494     15498     15515     15492     15484     15490     15494
     15494     15498     15501     15503     15494     15498     15515     15517
     15494     15498     15515     15518     15494     15498     15515     15519
     15496     15494     15498     15500     15496     15494     15498     15501
     15496     15494     15498     15515     15497     15494     15498     15500
     15497     15494     15498     15501     15497     15494     15498     15515
     15498     15501     15503     15505     15498     15501     15503     15507
     15498     15515     15519     15521     15500     15498     15501     15503
     15500     15498     15515     15517     15500     15498     15515     15518
     15500     15498     15515     15519     15501     15498     15515     15517
     15501     15498     15515     15518     15501     15498     15515     15519
     15501     15503     15507     15509     15501     15503     15507     15510
     15501     15503     15507     15533     15503     15501     15498     15515
     15503     15507     15533     15535     15503     15507     15533     15536
     15503     15507     15533     15537     15505     15503     15507     15509
     15505     15503     15507     15510     15505     15503     15507     15533
     15507     15533     15537     15539     15507     15533     15537     15540
     15507     15533     15537     15541     15509     15507     15533     15535
     15509     15507     15533     15536     15509     15507     15533     15537
     15510     15507     15533     15535     15510     15507     15533     15536
     15510     15507     15533     15537     15515     15519     15521     15523
     15515     15519     15521     15525     15517     15515     15519     15521
     15518     15515     15519     15521     15519     15521     15525     15527
     15519     15521     15525     15528     15519     15521     15525     15596
     15521     15525     15596     15598     15521     15525     15596     15599
     15521     15525     15596     15600     15523     15521     15525     15527
     15523     15521     15525     15528     15523     15521     15525     15596
     15525     15596     15600     15602     15525     15596     15600     15603
     15525     15596     15600     15604     15527     15525     15596     15598
     15527     15525     15596     15599     15527     15525     15596     15600
     15528     15525     15596     15598     15528     15525     15596     15599
     15528     15525     15596     15600     15533     15537     15541     15543
     15533     15537     15541     15544     15533     15537     15541     15545
     15535     15533     15537     15539     15535     15533     15537     15540
     15535     15533     15537     15541     15536     15533     15537     15539
     15536     15533     15537     15540     15536     15533     15537     15541
     15537     15541     15545     15547     15537     15541     15545     15548
     15537     15541     15545     15549     15539     15537     15541     15543
     15539     15537     15541     15544     15539     15537     15541     15545
     15540     15537     15541     15543     15540     15537     15541     15544
     15540     15537     15541     15545     15541     15545     15549     15551
     15541     15545     15549     15552     15541     15545     15549     15553
     15543     15541     15545     15547     15543     15541     15545     15548
     15543     15541     15545     15549     15544     15541     15545     15547
     15544     15541     15545     15548     15544     15541     15545     15549
     15545     15549     15553     15555     15545     15549     15553     15556
     15545     15549     15553     15557     15547     15545     15549     15551
     15547     15545     15549     15552     15547     15545     15549     15553
     15548     15545     15549     15551     15548     15545     15549     15552
     15548     15545     15549     15553     15549     15553     15557     15559
     15549     15553     15557     15560     15551     15549     15553     15555
     15551     15549     15553     15556     15551     15549     15553     15557
     15552     15549     15553     15555     15552     15549     15553     15556
     15552     15549     15553     15557     15553     15557     15560     15562
     15553     15557     15560     15563     15555     15553     15557     15559
     15555     15553     15557     15560     15556     15553     15557     15559
     15556     15553     15557     15560     15557     15560     15563     15565
     15557     15560     15563     15566     15557     15560     15563     15567
     15559     15557     15560     15562     15559     15557     15560     15563
     15560     15563     15567     15569     15560     15563     15567     15570
     15560     15563     15567     15571     15562     15560     15563     15565
     15562     15560     15563     15566     15562     15560     15563     15567
     15563     15567     15571     15573     15563     15567     15571     15574
     15563     15567     15571     15575     15565     15563     15567     15569
     15565     15563     15567     15570     15565     15563     15567     15571
     15566     15563     15567     15569     15566     15563     15567     15570
     15566     15563     15567     15571     15567     15571     15575     15577
     15567     15571     15575     15578     15567     15571     15575     15579
     15569     15567     15571     15573     15569     15567     15571     15574
     15569     15567     15571     15575     15570     15567     15571     15573
     15570     15567     15571     15574     15570     15567     15571     15575
     15571     15575     15579     15581     15571     15575     15579     15582
     15571     15575     15579     15583     15573     15571     15575     15577
     15573     15571     15575     15578     15573     15571     15575     15579
     15574     15571     15575     15577     15574     15571     15575     15578
     15574     15571     15575     15579     15575     15579     15583     15585
     15575     15579     15583     15586     15575     15579     15583     15587
     15577     15575     15579     15581     15577     15575     15579     15582
     15577     15575     15579     15583     15578     15575     15579     15581
     15578     15575     15579     15582     15578     15575     15579     15583
     15579     15583     15587     15589     15579     15583     15587     15590
     15579     15583     15587     15591     15581     15579     15583     15585
     15581     15579     15583     15586     15581     15579     15583     15587
     15582     15579     15583     15585     15582     15579     15583     15586
     15582     15579     15583     15587     15583     15587     15591     15593
     15583     15587     15591     15594     15583     15587     15591     15595
     15585     15583     15587     15589     15585     15583     15587     15590
     15585     15583     15587     15591     15586     15583     15587     15589
     15586     15583     15587     15590     15586     15583     15587     15591
     15589     15587     15591     15593     15589     15587     15591     15594
     15589     15587     15591     15595     15590     15587     15591     15593
     15590     15587     15591     15594     15590     15587     15591     15595
     15596     15600     15604     15606     15596     15600     15604     15607
     15596     15600     15604     15608     15598     15596     15600     15602
     15598     15596     15600     15603     15598     15596     15600     15604
     15599     15596     15600     15602     15599     15596     15600     15603
     15599     15596     15600     15604     15600     15604     15608     15610
     15600     15604     15608     15611     15600     15604     15608     15612
     15602     15600     15604     15606     15602     15600     15604     15607
     15602     15600     15604     15608     15603     15600     15604     15606
     15603     15600     15604     15607     15603     15600     15604     15608
     15604     15608     15612     15614     15604     15608     15612     15615
     15604     15608     15612     15616     15606     15604     15608     15610
     15606     15604     15608     15611     15606     15604     15608     15612
     15607     15604     15608     15610     15607     15604     15608     15611
     15607     15604     15608     15612     15608     15612     15616     15618
     15608     15612     15616     15619     15608     15612     15616     15620
     15610     15608     15612     15614     15610     15608     15612     15615
     15610     15608     15612     15616     15611     15608     15612     15614
     15611     15608     15612     15615     15611     15608     15612     15616
     15612     15616     15620     15622     15612     15616     15620     15623
     15612     15616     15620     15624     15614     15612     15616     15618
     15614     15612     15616     15619     15614     15612     15616     15620
     15615     15612     15616     15618     15615     15612     15616     15619
     15615     15612     15616     15620     15616     15620     15624     15626
     15616     15620     15624     15627     15616     15620     15624     15628
     15618     15616     15620     15622     15618     15616     15620     15623
     15618     15616     15620     15624     15619     15616     15620     15622
     15619     15616     15620     15623     15619     15616     15620     15624
     15620     15624     15628     15630     15620     15624     15628     15631
     15620     15624     15628     15632     15622     15620     15624     15626
     15622     15620     15624     15627     15622     15620     15624     15628
     15623     15620     15624     15626     15623     15620     15624     15627
     15623     15620     15624     15628     15624     15628     15632     15634
     15624     15628     15632     15635     15624     15628     15632     15636
     15626     15624     15628     15630     15626     15624     15628     15631
     15626     15624     15628     15632     15627     15624     15628     15630
     15627     15624     15628     15631     15627     15624     15628     15632
     15628     15632     15636     15638     15628     15632     15636     15639
     15628     15632     15636     15640     15630     15628     15632     15634
     15630     15628     15632     15635     15630     15628     15632     15636
     15631     15628     15632     15634     15631     15628     15632     15635
     15631     15628     15632     15636     15632     15636     15640     15642
     15632     15636     15640     15643     15632     15636     15640     15644
     15634     15632     15636     15638     15634     15632     15636     15639
     15634     15632     15636     15640     15635     15632     15636     15638
     15635     15632     15636     15639     15635     15632     15636     15640
     15636     15640     15644     15646     15636     15640     15644     15647
     15636     15640     15644     15648     15638     15636     15640     15642
     15638     15636     15640     15643     15638     15636     15640     15644
     15639     15636     15640     15642     15639     15636     15640     15643
     15639     15636     15640     15644     15640     15644     15648     15650
     15640     15644     15648     15651     15640     15644     15648     15652
     15642     15640     15644     15646     15642     15640     15644     15647
     15642     15640     15644     15648     15643     15640     15644     15646
     15643     15640     15644     15647     15643     15640     15644     15648
     15646     15644     15648     15650     15646     15644     15648     15651
     15646     15644     15648     15652     15647     15644     15648     15650
     15647     15644     15648     15651     15647     15644     15648     15652
     15653     15658     15662     15664     15653     15658     15662     15665
     15653     15658     15662     15674     15655     15653     15658     15660
     15655     15653     15658     15661     15655     15653     15658     15662
     15656     15653     15658     15660     15656     15653     15658     15661
     15656     15653     15658     15662     15657     15653     15658     15660
     15657     15653     15658     15661     15657     15653     15658     15662
     15658     15662     15674     15666     15660     15658     15662     15664
     15660     15658     15662     15665     15660     15658     15662     15674
     15661     15658     15662     15664     15661     15658     15662     15665
     15661     15658     15662     15674     15662     15674     15666     15668
     15662     15674     15666     15670     15662     15674     15666     15672
     15664     15662     15674     15666     15665     15662     15674     15666
     15666     15672     15676     15678     15666     15672     15676     15679
     15666     15672     15676     15680     15668     15666     15672     15676
     15670     15666     15672     15676     15672     15676     15680     15682
     15672     15676     15680     15683     15672     15676     15680     15697
     15674     15666     15672     15676     15676     15680     15683     15685
     15676     15680     15697     15699     15676     15680     15697     15700
     15676     15680     15697     15701     15678     15676     15680     15682
     15678     15676     15680     15683     15678     15676     15680     15697
     15679     15676     15680     15682     15679     15676     15680     15683
     15679     15676     15680     15697     15680     15683     15685     15687
     15680     15683     15685     15689     15680     15697     15701     15703
     15682     15680     15683     15685     15682     15680     15697     15699
     15682     15680     15697     15700     15682     15680     15697     15701
     15683     15680     15697     15699     15683     15680     15697     15700
     15683     15680     15697     15701     15683     15685     15689     15691
     15683     15685     15689     15692     15683     15685     15689     15715
     15685     15683     15680     15697     15685     15689     15715     15717
     15685     15689     15715     15718     15685     15689     15715     15719
     15687     15685     15689     15691     15687     15685     15689     15692
     15687     15685     15689     15715     15689     15715     15719     15721
     15689     15715     15719     15722     15689     15715     15719     15723
     15691     15689     15715     15717     15691     15689     15715     15718
     15691     15689     15715     15719     15692     15689     15715     15717
     15692     15689     15715     15718     15692     15689     15715     15719
     15697     15701     15703     15705     15697     15701     15703     15707
     15699     15697     15701     15703     15700     15697     15701     15703
     15701     15703     15707     15709     15701     15703     15707     15710
     15701     15703     15707     15778     15703     15707     15778     15780
     15703     15707     15778     15781     15703     15707     15778     15782
     15705     15703     15707     15709     15705     15703     15707     15710
     15705     15703     15707     15778     15707     15778     15782     15784
     15707     15778     15782     15785     15707     15778     15782     15786
     15709     15707     15778     15780     15709     15707     15778     15781
     15709     15707     15778     15782     15710     15707     15778     15780
     15710     15707     15778     15781     15710     15707     15778     15782
     15715     15719     15723     15725     15715     15719     15723     15726
     15715     15719     15723     15727     15717     15715     15719     15721
     15717     15715     15719     15722     15717     15715     15719     15723
     15718     15715     15719     15721     15718     15715     15719     15722
     15718     15715     15719     15723     15719     15723     15727     15729
     15719     15723     15727     15730     15719     15723     15727     15731
     15721     15719     15723     15725     15721     15719     15723     15726
     15721     15719     15723     15727     15722     15719     15723     15725
     15722     15719     15723     15726     15722     15719     15723     15727
     15723     15727     15731     15733     15723     15727     15731     15734
     15723     15727     15731     15735     15725     15723     15727     15729
     15725     15723     15727     15730     15725     15723     15727     15731
     15726     15723     15727     15729     15726     15723     15727     15730
     15726     15723     15727     15731     15727     15731     15735     15737
     15727     15731     15735     15738     15727     15731     15735     15739
     15729     15727     15731     15733     15729     15727     15731     15734
     15729     15727     15731     15735     15730     15727     15731     15733
     15730     15727     15731     15734     15730     15727     15731     15735
     15731     15735     15739     15741     15731     15735     15739     15742
     15733     15731     15735     15737     15733     15731     15735     15738
     15733     15731     15735     15739     15734     15731     15735     15737
     15734     15731     15735     15738     15734     15731     15735     15739
     15735     15739     15742     15744     15735     15739     15742     15745
     15737     15735     15739     15741     15737     15735     15739     15742
     15738     15735     15739     15741     15738     15735     15739     15742
     15739     15742     15745     15747     15739     15742     15745     15748
     15739     15742     15745     15749     15741     15739     15742     15744
     15741     15739     15742     15745     15742     15745     15749     15751
     15742     15745     15749     15752     15742     15745     15749     15753
     15744     15742     15745     15747     15744     15742     15745     15748
     15744     15742     15745     15749     15745     15749     15753     15755
     15745     15749     15753     15756     15745     15749     15753     15757
     15747     15745     15749     15751     15747     15745     15749     15752
     15747     15745     15749     15753     15748     15745     15749     15751
     15748     15745     15749     15752     15748     15745     15749     15753
     15749     15753     15757     15759     15749     15753     15757     15760
     15749     15753     15757     15761     15751     15749     15753     15755
     15751     15749     15753     15756     15751     15749     15753     15757
     15752     15749     15753     15755     15752     15749     15753     15756
     15752     15749     15753     15757     15753     15757     15761     15763
     15753     15757     15761     15764     15753     15757     15761     15765
     15755     15753     15757     15759     15755     15753     15757     15760
     15755     15753     15757     15761     15756     15753     15757     15759
     15756     15753     15757     15760     15756     15753     15757     15761
     15757     15761     15765     15767     15757     15761     15765     15768
     15757     15761     15765     15769     15759     15757     15761     15763
     15759     15757     15761     15764     15759     15757     15761     15765
     15760     15757     15761     15763     15760     15757     15761     15764
     15760     15757     15761     15765     15761     15765     15769     15771
     15761     15765     15769     15772     15761     15765     15769     15773
     15763     15761     15765     15767     15763     15761     15765     15768
     15763     15761     15765     15769     15764     15761     15765     15767
     15764     15761     15765     15768     15764     15761     15765     15769
     15765     15769     15773     15775     15765     15769     15773     15776
     15765     15769     15773     15777     15767     15765     15769     15771
     15767     15765     15769     15772     15767     15765     15769     15773
     15768     15765     15769     15771     15768     15765     15769     15772
     15768     15765     15769     15773     15771     15769     15773     15775
     15771     15769     15773     15776     15771     15769     15773     15777
     15772     15769     15773     15775     15772     15769     15773     15776
     15772     15769     15773     15777     15778     15782     15786     15788
     15778     15782     15786     15789     15778     15782     15786     15790
     15780     15778     15782     15784     15780     15778     15782     15785
     15780     15778     15782     15786     15781     15778     15782     15784
     15781     15778     15782     15785     15781     15778     15782     15786
     15782     15786     15790     15792     15782     15786     15790     15793
     15782     15786     15790     15794     15784     15782     15786     15788
     15784     15782     15786     15789     15784     15782     15786     15790
     15785     15782     15786     15788     15785     15782     15786     15789
     15785     15782     15786     15790     15786     15790     15794     15796
     15786     15790     15794     15797     15786     15790     15794     15798
     15788     15786     15790     15792     15788     15786     15790     15793
     15788     15786     15790     15794     15789     15786     15790     15792
     15789     15786     15790     15793     15789     15786     15790     15794
     15790     15794     15798     15800     15790     15794     15798     15801
     15790     15794     15798     15802     15792     15790     15794     15796
     15792     15790     15794     15797     15792     15790     15794     15798
     15793     15790     15794     15796     15793     15790     15794     15797
     15793     15790     15794     15798     15794     15798     15802     15804
     15794     15798     15802     15805     15794     15798     15802     15806
     15796     15794     15798     15800     15796     15794     15798     15801
     15796     15794     15798     15802     15797     15794     15798     15800
     15797     15794     15798     15801     15797     15794     15798     15802
     15798     15802     15806     15808     15798     15802     15806     15809
     15798     15802     15806     15810     15800     15798     15802     15804
     15800     15798     15802     15805     15800     15798     15802     15806
     15801     15798     15802     15804     15801     15798     15802     15805
     15801     15798     15802     15806     15802     15806     15810     15812
     15802     15806     15810     15813     15802     15806     15810     15814
     15804     15802     15806     15808     15804     15802     15806     15809
     15804     15802     15806     15810     15805     15802     15806     15808
     15805     15802     15806     15809     15805     15802     15806     15810
     15806     15810     15814     15816     15806     15810     15814     15817
     15806     15810     15814     15818     15808     15806     15810     15812
     15808     15806     15810     15813     15808     15806     15810     15814
     15809     15806     15810     15812     15809     15806     15810     15813
     15809     15806     15810     15814     15810     15814     15818     15820
     15810     15814     15818     15821     15810     15814     15818     15822
     15812     15810     15814     15816     15812     15810     15814     15817
     15812     15810     15814     15818     15813     15810     15814     15816
     15813     15810     15814     15817     15813     15810     15814     15818
     15814     15818     15822     15824     15814     15818     15822     15825
     15814     15818     15822     15826     15816     15814     15818     15820
     15816     15814     15818     15821     15816     15814     15818     15822
     15817     15814     15818     15820     15817     15814     15818     15821
     15817     15814     15818     15822     15818     15822     15826     15828
     15818     15822     15826     15829     15818     15822     15826     15830
     15820     15818     15822     15824     15820     15818     15822     15825
     15820     15818     15822     15826     15821     15818     15822     15824
     15821     15818     15822     15825     15821     15818     15822     15826
     15822     15826     15830     15832     15822     15826     15830     15833
     15822     15826     15830     15834     15824     15822     15826     15828
     15824     15822     15826     15829     15824     15822     15826     15830
     15825     15822     15826     15828     15825     15822     15826     15829
     15825     15822     15826     15830     15828     15826     15830     15832
     15828     15826     15830     15833     15828     15826     15830     15834
     15829     15826     15830     15832     15829     15826     15830     15833
     15829     15826     15830     15834     15835     15840     15844     15846
     15835     15840     15844     15847     15835     15840     15844     15856
     15837     15835     15840     15842     15837     15835     15840     15843
     15837     15835     15840     15844     15838     15835     15840     15842
     15838     15835     15840     15843     15838     15835     15840     15844
     15839     15835     15840     15842     15839     15835     15840     15843
     15839     15835     15840     15844     15840     15844     15856     15848
     15842     15840     15844     15846     15842     15840     15844     15847
     15842     15840     15844     15856     15843     15840     15844     15846
     15843     15840     15844     15847     15843     15840     15844     15856
     15844     15856     15848     15850     15844     15856     15848     15852
     15844     15856     15848     15854     15846     15844     15856     15848
     15847     15844     15856     15848     15848     15854     15858     15860
     15848     15854     15858     15861     15848     15854     15858     15862
     15850     15848     15854     15858     15852     15848     15854     15858
     15854     15858     15862     15864     15854     15858     15862     15865
     15854     15858     15862     15879     15856     15848     15854     15858
     15858     15862     15865     15867     15858     15862     15879     15881
     15858     15862     15879     15882     15858     15862     15879     15883
     15860     15858     15862     15864     15860     15858     15862     15865
     15860     15858     15862     15879     15861     15858     15862     15864
     15861     15858     15862     15865     15861     15858     15862     15879
     15862     15865     15867     15869     15862     15865     15867     15871
     15862     15879     15883     15885     15864     15862     15865     15867
     15864     15862     15879     15881     15864     15862     15879     15882
     15864     15862     15879     15883     15865     15862     15879     15881
     15865     15862     15879     15882     15865     15862     15879     15883
     15865     15867     15871     15873     15865     15867     15871     15874
     15865     15867     15871     15897     15867     15865     15862     15879
     15867     15871     15897     15899     15867     15871     15897     15900
     15867     15871     15897     15901     15869     15867     15871     15873
     15869     15867     15871     15874     15869     15867     15871     15897
     15871     15897     15901     15903     15871     15897     15901     15904
     15871     15897     15901     15905     15873     15871     15897     15899
     15873     15871     15897     15900     15873     15871     15897     15901
     15874     15871     15897     15899     15874     15871     15897     15900
     15874     15871     15897     15901     15879     15883     15885     15887
     15879     15883     15885     15889     15881     15879     15883     15885
     15882     15879     15883     15885     15883     15885     15889     15891
     15883     15885     15889     15892     15883     15885     15889     15960
     15885     15889     15960     15962     15885     15889     15960     15963
     15885     15889     15960     15964     15887     15885     15889     15891
     15887     15885     15889     15892     15887     15885     15889     15960
     15889     15960     15964     15966     15889     15960     15964     15967
     15889     15960     15964     15968     15891     15889     15960     15962
     15891     15889     15960     15963     15891     15889     15960     15964
     15892     15889     15960     15962     15892     15889     15960     15963
     15892     15889     15960     15964     15897     15901     15905     15907
     15897     15901     15905     15908     15897     15901     15905     15909
     15899     15897     15901     15903     15899     15897     15901     15904
     15899     15897     15901     15905     15900     15897     15901     15903
     15900     15897     15901     15904     15900     15897     15901     15905
     15901     15905     15909     15911     15901     15905     15909     15912
     15901     15905     15909     15913     15903     15901     15905     15907
     15903     15901     15905     15908     15903     15901     15905     15909
     15904     15901     15905     15907     15904     15901     15905     15908
     15904     15901     15905     15909     15905     15909     15913     15915
     15905     15909     15913     15916     15905     15909     15913     15917
     15907     15905     15909     15911     15907     15905     15909     15912
     15907     15905     15909     15913     15908     15905     15909     15911
     15908     15905     15909     15912     15908     15905     15909     15913
     15909     15913     15917     15919     15909     15913     15917     15920
     15909     15913     15917     15921     15911     15909     15913     15915
     15911     15909     15913     15916     15911     15909     15913     15917
     15912     15909     15913     15915     15912     15909     15913     15916
     15912     15909     15913     15917     15913     15917     15921     15923
     15913     15917     15921     15924     15915     15913     15917     15919
     15915     15913     15917     15920     15915     15913     15917     15921
     15916     15913     15917     15919     15916     15913     15917     15920
     15916     15913     15917     15921     15917     15921     15924     15926
     15917     15921     15924     15927     15919     15917     15921     15923
     15919     15917     15921     15924     15920     15917     15921     15923
     15920     15917     15921     15924     15921     15924     15927     15929
     15921     15924     15927     15930     15921     15924     15927     15931
     15923     15921     15924     15926     15923     15921     15924     15927
     15924     15927     15931     15933     15924     15927     15931     15934
     15924     15927     15931     15935     15926     15924     15927     15929
     15926     15924     15927     15930     15926     15924     15927     15931
     15927     15931     15935     15937     15927     15931     15935     15938
     15927     15931     15935     15939     15929     15927     15931     15933
     15929     15927     15931     15934     15929     15927     15931     15935
     15930     15927     15931     15933     15930     15927     15931     15934
     15930     15927     15931     15935     15931     15935     15939     15941
     15931     15935     15939     15942     15931     15935     15939     15943
     15933     15931     15935     15937     15933     15931     15935     15938
     15933     15931     15935     15939     15934     15931     15935     15937
     15934     15931     15935     15938     15934     15931     15935     15939
     15935     15939     15943     15945     15935     15939     15943     15946
     15935     15939     15943     15947     15937     15935     15939     15941
     15937     15935     15939     15942     15937     15935     15939     15943
     15938     15935     15939     15941     15938     15935     15939     15942
     15938     15935     15939     15943     15939     15943     15947     15949
     15939     15943     15947     15950     15939     15943     15947     15951
     15941     15939     15943     15945     15941     15939     15943     15946
     15941     15939     15943     15947     15942     15939     15943     15945
     15942     15939     15943     15946     15942     15939     15943     15947
     15943     15947     15951     15953     15943     15947     15951     15954
     15943     15947     15951     15955     15945     15943     15947     15949
     15945     15943     15947     15950     15945     15943     15947     15951
     15946     15943     15947     15949     15946     15943     15947     15950
     15946     15943     15947     15951     15947     15951     15955     15957
     15947     15951     15955     15958     15947     15951     15955     15959
     15949     15947     15951     15953     15949     15947     15951     15954
     15949     15947     15951     15955     15950     15947     15951     15953
     15950     15947     15951     15954     15950     15947     15951     15955
     15953     15951     15955     15957     15953     15951     15955     15958
     15953     15951     15955     15959     15954     15951     15955     15957
     15954     15951     15955     15958     15954     15951     15955     15959
     15960     15964     15968     15970     15960     15964     15968     15971
     15960     15964     15968     15972     15962     15960     15964     15966
     15962     15960     15964     15967     15962     15960     15964     15968
     15963     15960     15964     15966     15963     15960     15964     15967
     15963     15960     15964     15968     15964     15968     15972     15974
     15964     15968     15972     15975     15964     15968     15972     15976
     15966     15964     15968     15970     15966     15964     15968     15971
     15966     15964     15968     15972     15967     15964     15968     15970
     15967     15964     15968     15971     15967     15964     15968     15972
     15968     15972     15976     15978     15968     15972     15976     15979
     15968     15972     15976     15980     15970     15968     15972     15974
     15970     15968     15972     15975     15970     15968     15972     15976
     15971     15968     15972     15974     15971     15968     15972     15975
     15971     15968     15972     15976     15972     15976     15980     15982
     15972     15976     15980     15983     15972     15976     15980     15984
     15974     15972     15976     15978     15974     15972     15976     15979
     15974     15972     15976     15980     15975     15972     15976     15978
     15975     15972     15976     15979     15975     15972     15976     15980
     15976     15980     15984     15986     15976     15980     15984     15987
     15976     15980     15984     15988     15978     15976     15980     15982
     15978     15976     15980     15983     15978     15976     15980     15984
     15979     15976     15980     15982     15979     15976     15980     15983
     15979     15976     15980     15984     15980     15984     15988     15990
     15980     15984     15988     15991     15980     15984     15988     15992
     15982     15980     15984     15986     15982     15980     15984     15987
     15982     15980     15984     15988     15983     15980     15984     15986
     15983     15980     15984     15987     15983     15980     15984     15988
     15984     15988     15992     15994     15984     15988     15992     15995
     15984     15988     15992     15996     15986     15984     15988     15990
     15986     15984     15988     15991     15986     15984     15988     15992
     15987     15984     15988     15990     15987     15984     15988     15991
     15987     15984     15988     15992     15988     15992     15996     15998
     15988     15992     15996     15999     15988     15992     15996     16000
     15990     15988     15992     15994     15990     15988     15992     15995
     15990     15988     15992     15996     15991     15988     15992     15994
     15991     15988     15992     15995     15991     15988     15992     15996
     15992     15996     16000     16002     15992     15996     16000     16003
     15992     15996     16000     16004     15994     15992     15996     15998
     15994     15992     15996     15999     15994     15992     15996     16000
     15995     15992     15996     15998     15995     15992     15996     15999
     15995     15992     15996     16000     15996     16000     16004     16006
     15996     16000     16004     16007     15996     16000     16004     16008
     15998     15996     16000     16002     15998     15996     16000     16003
     15998     15996     16000     16004     15999     15996     16000     16002
     15999     15996     16000     16003     15999     15996     16000     16004
     16000     16004     16008     16010     16000     16004     16008     16011
     16000     16004     16008     16012     16002     16000     16004     16006
     16002     16000     16004     16007     16002     16000     16004     16008
     16003     16000     16004     16006     16003     16000     16004     16007
     16003     16000     16004     16008     16004     16008     16012     16014
     16004     16008     16012     16015     16004     16008     16012     16016
     16006     16004     16008     16010     16006     16004     16008     16011
     16006     16004     16008     16012     16007     16004     16008     16010
     16007     16004     16008     16011     16007     16004     16008     16012
     16010     16008     16012     16014     16010     16008     16012     16015
     16010     16008     16012     16016     16011     16008     16012     16014
     16011     16008     16012     16015     16011     16008     16012     16016
     16017     16022     16026     16028     16017     16022     16026     16029
     16017     16022     16026     16038     16019     16017     16022     16024
     16019     16017     16022     16025     16019     16017     16022     16026
     16020     16017     16022     16024     16020     16017     16022     16025
     16020     16017     16022     16026     16021     16017     16022     16024
     16021     16017     16022     16025     16021     16017     16022     16026
     16022     16026     16038     16030     16024     16022     16026     16028
     16024     16022     16026     16029     16024     16022     16026     16038
     16025     16022     16026     16028     16025     16022     16026     16029
     16025     16022     16026     16038     16026     16038     16030     16032
     16026     16038     16030     16034     16026     16038     16030     16036
     16028     16026     16038     16030     16029     16026     16038     16030
     16030     16036     16040     16042     16030     16036     16040     16043
     16030     16036     16040     16044     16032     16030     16036     16040
     16034     16030     16036     16040     16036     16040     16044     16046
     16036     16040     16044     16047     16036     16040     16044     16061
     16038     16030     16036     16040     16040     16044     16047     16049
     16040     16044     16061     16063     16040     16044     16061     16064
     16040     16044     16061     16065     16042     16040     16044     16046
     16042     16040     16044     16047     16042     16040     16044     16061
     16043     16040     16044     16046     16043     16040     16044     16047
     16043     16040     16044     16061     16044     16047     16049     16051
     16044     16047     16049     16053     16044     16061     16065     16067
     16046     16044     16047     16049     16046     16044     16061     16063
     16046     16044     16061     16064     16046     16044     16061     16065
     16047     16044     16061     16063     16047     16044     16061     16064
     16047     16044     16061     16065     16047     16049     16053     16055
     16047     16049     16053     16056     16047     16049     16053     16079
     16049     16047     16044     16061     16049     16053     16079     16081
     16049     16053     16079     16082     16049     16053     16079     16083
     16051     16049     16053     16055     16051     16049     16053     16056
     16051     16049     16053     16079     16053     16079     16083     16085
     16053     16079     16083     16086     16053     16079     16083     16087
     16055     16053     16079     16081     16055     16053     16079     16082
     16055     16053     16079     16083     16056     16053     16079     16081
     16056     16053     16079     16082     16056     16053     16079     16083
     16061     16065     16067     16069     16061     16065     16067     16071
     16063     16061     16065     16067     16064     16061     16065     16067
     16065     16067     16071     16073     16065     16067     16071     16074
     16065     16067     16071     16142     16067     16071     16142     16144
     16067     16071     16142     16145     16067     16071     16142     16146
     16069     16067     16071     16073     16069     16067     16071     16074
     16069     16067     16071     16142     16071     16142     16146     16148
     16071     16142     16146     16149     16071     16142     16146     16150
     16073     16071     16142     16144     16073     16071     16142     16145
     16073     16071     16142     16146     16074     16071     16142     16144
     16074     16071     16142     16145     16074     16071     16142     16146
     16079     16083     16087     16089     16079     16083     16087     16090
     16079     16083     16087     16091     16081     16079     16083     16085
     16081     16079     16083     16086     16081     16079     16083     16087
     16082     16079     16083     16085     16082     16079     16083     16086
     16082     16079     16083     16087     16083     16087     16091     16093
     16083     16087     16091     16094     16083     16087     16091     16095
     16085     16083     16087     16089     16085     16083     16087     16090
     16085     16083     16087     16091     16086     16083     16087     16089
     16086     16083     16087     16090     16086     16083     16087     16091
     16087     16091     16095     16097     16087     16091     16095     16098
     16087     16091     16095     16099     16089     16087     16091     16093
     16089     16087     16091     16094     16089     16087     16091     16095
     16090     16087     16091     16093     16090     16087     16091     16094
     16090     16087     16091     16095     16091     16095     16099     16101
     16091     16095     16099     16102     16091     16095     16099     16103
     16093     16091     16095     16097     16093     16091     16095     16098
     16093     16091     16095     16099     16094     16091     16095     16097
     16094     16091     16095     16098     16094     16091     16095     16099
     16095     16099     16103     16105     16095     16099     16103     16106
     16097     16095     16099     16101     16097     16095     16099     16102
     16097     16095     16099     16103     16098     16095     16099     16101
     16098     16095     16099     16102     16098     16095     16099     16103
     16099     16103     16106     16108     16099     16103     16106     16109
     16101     16099     16103     16105     16101     16099     16103     16106
     16102     16099     16103     16105     16102     16099     16103     16106
     16103     16106     16109     16111     16103     16106     16109     16112
     16103     16106     16109     16113     16105     16103     16106     16108
     16105     16103     16106     16109     16106     16109     16113     16115
     16106     16109     16113     16116     16106     16109     16113     16117
     16108     16106     16109     16111     16108     16106     16109     16112
     16108     16106     16109     16113     16109     16113     16117     16119
     16109     16113     16117     16120     16109     16113     16117     16121
     16111     16109     16113     16115     16111     16109     16113     16116
     16111     16109     16113     16117     16112     16109     16113     16115
     16112     16109     16113     16116     16112     16109     16113     16117
     16113     16117     16121     16123     16113     16117     16121     16124
     16113     16117     16121     16125     16115     16113     16117     16119
     16115     16113     16117     16120     16115     16113     16117     16121
     16116     16113     16117     16119     16116     16113     16117     16120
     16116     16113     16117     16121     16117     16121     16125     16127
     16117     16121     16125     16128     16117     16121     16125     16129
     16119     16117     16121     16123     16119     16117     16121     16124
     16119     16117     16121     16125     16120     16117     16121     16123
     16120     16117     16121     16124     16120     16117     16121     16125
     16121     16125     16129     16131     16121     16125     16129     16132
     16121     16125     16129     16133     16123     16121     16125     16127
     16123     16121     16125     16128     16123     16121     16125     16129
     16124     16121     16125     16127     16124     16121     16125     16128
     16124     16121     16125     16129     16125     16129     16133     16135
     16125     16129     16133     16136     16125     16129     16133     16137
     16127     16125     16129     16131     16127     16125     16129     16132
     16127     16125     16129     16133     16128     16125     16129     16131
     16128     16125     16129     16132     16128     16125     16129     16133
     16129     16133     16137     16139     16129     16133     16137     16140
     16129     16133     16137     16141     16131     16129     16133     16135
     16131     16129     16133     16136     16131     16129     16133     16137
     16132     16129     16133     16135     16132     16129     16133     16136
     16132     16129     16133     16137     16135     16133     16137     16139
     16135     16133     16137     16140     16135     16133     16137     16141
     16136     16133     16137     16139     16136     16133     16137     16140
     16136     16133     16137     16141     16142     16146     16150     16152
     16142     16146     16150     16153     16142     16146     16150     16154
     16144     16142     16146     16148     16144     16142     16146     16149
     16144     16142     16146     16150     16145     16142     16146     16148
     16145     16142     16146     16149     16145     16142     16146     16150
     16146     16150     16154     16156     16146     16150     16154     16157
     16146     16150     16154     16158     16148     16146     16150     16152
     16148     16146     16150     16153     16148     16146     16150     16154
     16149     16146     16150     16152     16149     16146     16150     16153
     16149     16146     16150     16154     16150     16154     16158     16160
     16150     16154     16158     16161     16150     16154     16158     16162
     16152     16150     16154     16156     16152     16150     16154     16157
     16152     16150     16154     16158     16153     16150     16154     16156
     16153     16150     16154     16157     16153     16150     16154     16158
     16154     16158     16162     16164     16154     16158     16162     16165
     16154     16158     16162     16166     16156     16154     16158     16160
     16156     16154     16158     16161     16156     16154     16158     16162
     16157     16154     16158     16160     16157     16154     16158     16161
     16157     16154     16158     16162     16158     16162     16166     16168
     16158     16162     16166     16169     16158     16162     16166     16170
     16160     16158     16162     16164     16160     16158     16162     16165
     16160     16158     16162     16166     16161     16158     16162     16164
     16161     16158     16162     16165     16161     16158     16162     16166
     16162     16166     16170     16172     16162     16166     16170     16173
     16162     16166     16170     16174     16164     16162     16166     16168
     16164     16162     16166     16169     16164     16162     16166     16170
     16165     16162     16166     16168     16165     16162     16166     16169
     16165     16162     16166     16170     16166     16170     16174     16176
     16166     16170     16174     16177     16166     16170     16174     16178
     16168     16166     16170     16172     16168     16166     16170     16173
     16168     16166     16170     16174     16169     16166     16170     16172
     16169     16166     16170     16173     16169     16166     16170     16174
     16170     16174     16178     16180     16170     16174     16178     16181
     16170     16174     16178     16182     16172     16170     16174     16176
     16172     16170     16174     16177     16172     16170     16174     16178
     16173     16170     16174     16176     16173     16170     16174     16177
     16173     16170     16174     16178     16174     16178     16182     16184
     16174     16178     16182     16185     16174     16178     16182     16186
     16176     16174     16178     16180     16176     16174     16178     16181
     16176     16174     16178     16182     16177     16174     16178     16180
     16177     16174     16178     16181     16177     16174     16178     16182
     16178     16182     16186     16188     16178     16182     16186     16189
     16178     16182     16186     16190     16180     16178     16182     16184
     16180     16178     16182     16185     16180     16178     16182     16186
     16181     16178     16182     16184     16181     16178     16182     16185
     16181     16178     16182     16186     16182     16186     16190     16192
     16182     16186     16190     16193     16182     16186     16190     16194
     16184     16182     16186     16188     16184     16182     16186     16189
     16184     16182     16186     16190     16185     16182     16186     16188
     16185     16182     16186     16189     16185     16182     16186     16190
     16186     16190     16194     16196     16186     16190     16194     16197
     16186     16190     16194     16198     16188     16186     16190     16192
     16188     16186     16190     16193     16188     16186     16190     16194
     16189     16186     16190     16192     16189     16186     16190     16193
     16189     16186     16190     16194     16192     16190     16194     16196
     16192     16190     16194     16197     16192     16190     16194     16198
     16193     16190     16194     16196     16193     16190     16194     16197
     16193     16190     16194     16198     16199     16204     16208     16210
     16199     16204     16208     16211     16199     16204     16208     16220
     16201     16199     16204     16206     16201     16199     16204     16207
     16201     16199     16204     16208     16202     16199     16204     16206
     16202     16199     16204     16207     16202     16199     16204     16208
     16203     16199     16204     16206     16203     16199     16204     16207
     16203     16199     16204     16208     16204     16208     16220     16212
     16206     16204     16208     16210     16206     16204     16208     16211
     16206     16204     16208     16220     16207     16204     16208     16210
     16207     16204     16208     16211     16207     16204     16208     16220
     16208     16220     16212     16214     16208     16220     16212     16216
     16208     16220     16212     16218     16210     16208     16220     16212
     16211     16208     16220     16212     16212     16218     16222     16224
     16212     16218     16222     16225     16212     16218     16222     16226
     16214     16212     16218     16222     16216     16212     16218     16222
     16218     16222     16226     16228     16218     16222     16226     16229
     16218     16222     16226     16243     16220     16212     16218     16222
     16222     16226     16229     16231     16222     16226     16243     16245
     16222     16226     16243     16246     16222     16226     16243     16247
     16224     16222     16226     16228     16224     16222     16226     16229
     16224     16222     16226     16243     16225     16222     16226     16228
     16225     16222     16226     16229     16225     16222     16226     16243
     16226     16229     16231     16233     16226     16229     16231     16235
     16226     16243     16247     16249     16228     16226     16229     16231
     16228     16226     16243     16245     16228     16226     16243     16246
     16228     16226     16243     16247     16229     16226     16243     16245
     16229     16226     16243     16246     16229     16226     16243     16247
     16229     16231     16235     16237     16229     16231     16235     16238
     16229     16231     16235     16261     16231     16229     16226     16243
     16231     16235     16261     16263     16231     16235     16261     16264
     16231     16235     16261     16265     16233     16231     16235     16237
     16233     16231     16235     16238     16233     16231     16235     16261
     16235     16261     16265     16267     16235     16261     16265     16268
     16235     16261     16265     16269     16237     16235     16261     16263
     16237     16235     16261     16264     16237     16235     16261     16265
     16238     16235     16261     16263     16238     16235     16261     16264
     16238     16235     16261     16265     16243     16247     16249     16251
     16243     16247     16249     16253     16245     16243     16247     16249
     16246     16243     16247     16249     16247     16249     16253     16255
     16247     16249     16253     16256     16247     16249     16253     16324
     16249     16253     16324     16326     16249     16253     16324     16327
     16249     16253     16324     16328     16251     16249     16253     16255
     16251     16249     16253     16256     16251     16249     16253     16324
     16253     16324     16328     16330     16253     16324     16328     16331
     16253     16324     16328     16332     16255     16253     16324     16326
     16255     16253     16324     16327     16255     16253     16324     16328
     16256     16253     16324     16326     16256     16253     16324     16327
     16256     16253     16324     16328     16261     16265     16269     16271
     16261     16265     16269     16272     16261     16265     16269     16273
     16263     16261     16265     16267     16263     16261     16265     16268
     16263     16261     16265     16269     16264     16261     16265     16267
     16264     16261     16265     16268     16264     16261     16265     16269
     16265     16269     16273     16275     16265     16269     16273     16276
     16265     16269     16273     16277     16267     16265     16269     16271
     16267     16265     16269     16272     16267     16265     16269     16273
     16268     16265     16269     16271     16268     16265     16269     16272
     16268     16265     16269     16273     16269     16273     16277     16279
     16269     16273     16277     16280     16269     16273     16277     16281
     16271     16269     16273     16275     16271     16269     16273     16276
     16271     16269     16273     16277     16272     16269     16273     16275
     16272     16269     16273     16276     16272     16269     16273     16277
     16273     16277     16281     16283     16273     16277     16281     16284
     16273     16277     16281     16285     16275     16273     16277     16279
     16275     16273     16277     16280     16275     16273     16277     16281
     16276     16273     16277     16279     16276     16273     16277     16280
     16276     16273     16277     16281     16277     16281     16285     16287
     16277     16281     16285     16288     16279     16277     16281     16283
     16279     16277     16281     16284     16279     16277     16281     16285
     16280     16277     16281     16283     16280     16277     16281     16284
     16280     16277     16281     16285     16281     16285     16288     16290
     16281     16285     16288     16291     16283     16281     16285     16287
     16283     16281     16285     16288     16284     16281     16285     16287
     16284     16281     16285     16288     16285     16288     16291     16293
     16285     16288     16291     16294     16285     16288     16291     16295
     16287     16285     16288     16290     16287     16285     16288     16291
     16288     16291     16295     16297     16288     16291     16295     16298
     16288     16291     16295     16299     16290     16288     16291     16293
     16290     16288     16291     16294     16290     16288     16291     16295
     16291     16295     16299     16301     16291     16295     16299     16302
     16291     16295     16299     16303     16293     16291     16295     16297
     16293     16291     16295     16298     16293     16291     16295     16299
     16294     16291     16295     16297     16294     16291     16295     16298
     16294     16291     16295     16299     16295     16299     16303     16305
     16295     16299     16303     16306     16295     16299     16303     16307
     16297     16295     16299     16301     16297     16295     16299     16302
     16297     16295     16299     16303     16298     16295     16299     16301
     16298     16295     16299     16302     16298     16295     16299     16303
     16299     16303     16307     16309     16299     16303     16307     16310
     16299     16303     16307     16311     16301     16299     16303     16305
     16301     16299     16303     16306     16301     16299     16303     16307
     16302     16299     16303     16305     16302     16299     16303     16306
     16302     16299     16303     16307     16303     16307     16311     16313
     16303     16307     16311     16314     16303     16307     16311     16315
     16305     16303     16307     16309     16305     16303     16307     16310
     16305     16303     16307     16311     16306     16303     16307     16309
     16306     16303     16307     16310     16306     16303     16307     16311
     16307     16311     16315     16317     16307     16311     16315     16318
     16307     16311     16315     16319     16309     16307     16311     16313
     16309     16307     16311     16314     16309     16307     16311     16315
     16310     16307     16311     16313     16310     16307     16311     16314
     16310     16307     16311     16315     16311     16315     16319     16321
     16311     16315     16319     16322     16311     16315     16319     16323
     16313     16311     16315     16317     16313     16311     16315     16318
     16313     16311     16315     16319     16314     16311     16315     16317
     16314     16311     16315     16318     16314     16311     16315     16319
     16317     16315     16319     16321     16317     16315     16319     16322
     16317     16315     16319     16323     16318     16315     16319     16321
     16318     16315     16319     16322     16318     16315     16319     16323
     16324     16328     16332     16334     16324     16328     16332     16335
     16324     16328     16332     16336     16326     16324     16328     16330
     16326     16324     16328     16331     16326     16324     16328     16332
     16327     16324     16328     16330     16327     16324     16328     16331
     16327     16324     16328     16332     16328     16332     16336     16338
     16328     16332     16336     16339     16328     16332     16336     16340
     16330     16328     16332     16334     16330     16328     16332     16335
     16330     16328     16332     16336     16331     16328     16332     16334
     16331     16328     16332     16335     16331     16328     16332     16336
     16332     16336     16340     16342     16332     16336     16340     16343
     16332     16336     16340     16344     16334     16332     16336     16338
     16334     16332     16336     16339     16334     16332     16336     16340
     16335     16332     16336     16338     16335     16332     16336     16339
     16335     16332     16336     16340     16336     16340     16344     16346
     16336     16340     16344     16347     16336     16340     16344     16348
     16338     16336     16340     16342     16338     16336     16340     16343
     16338     16336     16340     16344     16339     16336     16340     16342
     16339     16336     16340     16343     16339     16336     16340     16344
     16340     16344     16348     16350     16340     16344     16348     16351
     16340     16344     16348     16352     16342     16340     16344     16346
     16342     16340     16344     16347     16342     16340     16344     16348
     16343     16340     16344     16346     16343     16340     16344     16347
     16343     16340     16344     16348     16344     16348     16352     16354
     16344     16348     16352     16355     16344     16348     16352     16356
     16346     16344     16348     16350     16346     16344     16348     16351
     16346     16344     16348     16352     16347     16344     16348     16350
     16347     16344     16348     16351     16347     16344     16348     16352
     16348     16352     16356     16358     16348     16352     16356     16359
     16348     16352     16356     16360     16350     16348     16352     16354
     16350     16348     16352     16355     16350     16348     16352     16356
     16351     16348     16352     16354     16351     16348     16352     16355
     16351     16348     16352     16356     16352     16356     16360     16362
     16352     16356     16360     16363     16352     16356     16360     16364
     16354     16352     16356     16358     16354     16352     16356     16359
     16354     16352     16356     16360     16355     16352     16356     16358
     16355     16352     16356     16359     16355     16352     16356     16360
     16356     16360     16364     16366     16356     16360     16364     16367
     16356     16360     16364     16368     16358     16356     16360     16362
     16358     16356     16360     16363     16358     16356     16360     16364
     16359     16356     16360     16362     16359     16356     16360     16363
     16359     16356     16360     16364     16360     16364     16368     16370
     16360     16364     16368     16371     16360     16364     16368     16372
     16362     16360     16364     16366     16362     16360     16364     16367
     16362     16360     16364     16368     16363     16360     16364     16366
     16363     16360     16364     16367     16363     16360     16364     16368
     16364     16368     16372     16374     16364     16368     16372     16375
     16364     16368     16372     16376     16366     16364     16368     16370
     16366     16364     16368     16371     16366     16364     16368     16372
     16367     16364     16368     16370     16367     16364     16368     16371
     16367     16364     16368     16372     16368     16372     16376     16378
     16368     16372     16376     16379     16368     16372     16376     16380
     16370     16368     16372     16374     16370     16368     16372     16375
     16370     16368     16372     16376     16371     16368     16372     16374
     16371     16368     16372     16375     16371     16368     16372     16376
     16374     16372     16376     16378     16374     16372     16376     16379
     16374     16372     16376     16380     16375     16372     16376     16378
     16375     16372     16376     16379     16375     16372     16376     16380
     16381     16386     16390     16392     16381     16386     16390     16393
     16381     16386     16390     16402     16383     16381     16386     16388
     16383     16381     16386     16389     16383     16381     16386     16390
     16384     16381     16386     16388     16384     16381     16386     16389
     16384     16381     16386     16390     16385     16381     16386     16388
     16385     16381     16386     16389     16385     16381     16386     16390
     16386     16390     16402     16394     16388     16386     16390     16392
     16388     16386     16390     16393     16388     16386     16390     16402
     16389     16386     16390     16392     16389     16386     16390     16393
     16389     16386     16390     16402     16390     16402     16394     16396
     16390     16402     16394     16398     16390     16402     16394     16400
     16392     16390     16402     16394     16393     16390     16402     16394
     16394     16400     16404     16406     16394     16400     16404     16407
     16394     16400     16404     16408     16396     16394     16400     16404
     16398     16394     16400     16404     16400     16404     16408     16410
     16400     16404     16408     16411     16400     16404     16408     16425
     16402     16394     16400     16404     16404     16408     16411     16413
     16404     16408     16425     16427     16404     16408     16425     16428
     16404     16408     16425     16429     16406     16404     16408     16410
     16406     16404     16408     16411     16406     16404     16408     16425
     16407     16404     16408     16410     16407     16404     16408     16411
     16407     16404     16408     16425     16408     16411     16413     16415
     16408     16411     16413     16417     16408     16425     16429     16431
     16410     16408     16411     16413     16410     16408     16425     16427
     16410     16408     16425     16428     16410     16408     16425     16429
     16411     16408     16425     16427     16411     16408     16425     16428
     16411     16408     16425     16429     16411     16413     16417     16419
     16411     16413     16417     16420     16411     16413     16417     16443
     16413     16411     16408     16425     16413     16417     16443     16445
     16413     16417     16443     16446     16413     16417     16443     16447
     16415     16413     16417     16419     16415     16413     16417     16420
     16415     16413     16417     16443     16417     16443     16447     16449
     16417     16443     16447     16450     16417     16443     16447     16451
     16419     16417     16443     16445     16419     16417     16443     16446
     16419     16417     16443     16447     16420     16417     16443     16445
     16420     16417     16443     16446     16420     16417     16443     16447
     16425     16429     16431     16433     16425     16429     16431     16435
     16427     16425     16429     16431     16428     16425     16429     16431
     16429     16431     16435     16437     16429     16431     16435     16438
     16429     16431     16435     16506     16431     16435     16506     16508
     16431     16435     16506     16509     16431     16435     16506     16510
     16433     16431     16435     16437     16433     16431     16435     16438
     16433     16431     16435     16506     16435     16506     16510     16512
     16435     16506     16510     16513     16435     16506     16510     16514
     16437     16435     16506     16508     16437     16435     16506     16509
     16437     16435     16506     16510     16438     16435     16506     16508
     16438     16435     16506     16509     16438     16435     16506     16510
     16443     16447     16451     16453     16443     16447     16451     16454
     16443     16447     16451     16455     16445     16443     16447     16449
     16445     16443     16447     16450     16445     16443     16447     16451
     16446     16443     16447     16449     16446     16443     16447     16450
     16446     16443     16447     16451     16447     16451     16455     16457
     16447     16451     16455     16458     16447     16451     16455     16459
     16449     16447     16451     16453     16449     16447     16451     16454
     16449     16447     16451     16455     16450     16447     16451     16453
     16450     16447     16451     16454     16450     16447     16451     16455
     16451     16455     16459     16461     16451     16455     16459     16462
     16451     16455     16459     16463     16453     16451     16455     16457
     16453     16451     16455     16458     16453     16451     16455     16459
     16454     16451     16455     16457     16454     16451     16455     16458
     16454     16451     16455     16459     16455     16459     16463     16465
     16455     16459     16463     16466     16455     16459     16463     16467
     16457     16455     16459     16461     16457     16455     16459     16462
     16457     16455     16459     16463     16458     16455     16459     16461
     16458     16455     16459     16462     16458     16455     16459     16463
     16459     16463     16467     16469     16459     16463     16467     16470
     16461     16459     16463     16465     16461     16459     16463     16466
     16461     16459     16463     16467     16462     16459     16463     16465
     16462     16459     16463     16466     16462     16459     16463     16467
     16463     16467     16470     16472     16463     16467     16470     16473
     16465     16463     16467     16469     16465     16463     16467     16470
     16466     16463     16467     16469     16466     16463     16467     16470
     16467     16470     16473     16475     16467     16470     16473     16476
     16467     16470     16473     16477     16469     16467     16470     16472
     16469     16467     16470     16473     16470     16473     16477     16479
     16470     16473     16477     16480     16470     16473     16477     16481
     16472     16470     16473     16475     16472     16470     16473     16476
     16472     16470     16473     16477     16473     16477     16481     16483
     16473     16477     16481     16484     16473     16477     16481     16485
     16475     16473     16477     16479     16475     16473     16477     16480
     16475     16473     16477     16481     16476     16473     16477     16479
     16476     16473     16477     16480     16476     16473     16477     16481
     16477     16481     16485     16487     16477     16481     16485     16488
     16477     16481     16485     16489     16479     16477     16481     16483
     16479     16477     16481     16484     16479     16477     16481     16485
     16480     16477     16481     16483     16480     16477     16481     16484
     16480     16477     16481     16485     16481     16485     16489     16491
     16481     16485     16489     16492     16481     16485     16489     16493
     16483     16481     16485     16487     16483     16481     16485     16488
     16483     16481     16485     16489     16484     16481     16485     16487
     16484     16481     16485     16488     16484     16481     16485     16489
     16485     16489     16493     16495     16485     16489     16493     16496
     16485     16489     16493     16497     16487     16485     16489     16491
     16487     16485     16489     16492     16487     16485     16489     16493
     16488     16485     16489     16491     16488     16485     16489     16492
     16488     16485     16489     16493     16489     16493     16497     16499
     16489     16493     16497     16500     16489     16493     16497     16501
     16491     16489     16493     16495     16491     16489     16493     16496
     16491     16489     16493     16497     16492     16489     16493     16495
     16492     16489     16493     16496     16492     16489     16493     16497
     16493     16497     16501     16503     16493     16497     16501     16504
     16493     16497     16501     16505     16495     16493     16497     16499
     16495     16493     16497     16500     16495     16493     16497     16501
     16496     16493     16497     16499     16496     16493     16497     16500
     16496     16493     16497     16501     16499     16497     16501     16503
     16499     16497     16501     16504     16499     16497     16501     16505
     16500     16497     16501     16503     16500     16497     16501     16504
     16500     16497     16501     16505     16506     16510     16514     16516
     16506     16510     16514     16517     16506     16510     16514     16518
     16508     16506     16510     16512     16508     16506     16510     16513
     16508     16506     16510     16514     16509     16506     16510     16512
     16509     16506     16510     16513     16509     16506     16510     16514
     16510     16514     16518     16520     16510     16514     16518     16521
     16510     16514     16518     16522     16512     16510     16514     16516
     16512     16510     16514     16517     16512     16510     16514     16518
     16513     16510     16514     16516     16513     16510     16514     16517
     16513     16510     16514     16518     16514     16518     16522     16524
     16514     16518     16522     16525     16514     16518     16522     16526
     16516     16514     16518     16520     16516     16514     16518     16521
     16516     16514     16518     16522     16517     16514     16518     16520
     16517     16514     16518     16521     16517     16514     16518     16522
     16518     16522     16526     16528     16518     16522     16526     16529
     16518     16522     16526     16530     16520     16518     16522     16524
     16520     16518     16522     16525     16520     16518     16522     16526
     16521     16518     16522     16524     16521     16518     16522     16525
     16521     16518     16522     16526     16522     16526     16530     16532
     16522     16526     16530     16533     16522     16526     16530     16534
     16524     16522     16526     16528     16524     16522     16526     16529
     16524     16522     16526     16530     16525     16522     16526     16528
     16525     16522     16526     16529     16525     16522     16526     16530
     16526     16530     16534     16536     16526     16530     16534     16537
     16526     16530     16534     16538     16528     16526     16530     16532
     16528     16526     16530     16533     16528     16526     16530     16534
     16529     16526     16530     16532     16529     16526     16530     16533
     16529     16526     16530     16534     16530     16534     16538     16540
     16530     16534     16538     16541     16530     16534     16538     16542
     16532     16530     16534     16536     16532     16530     16534     16537
     16532     16530     16534     16538     16533     16530     16534     16536
     16533     16530     16534     16537     16533     16530     16534     16538
     16534     16538     16542     16544     16534     16538     16542     16545
     16534     16538     16542     16546     16536     16534     16538     16540
     16536     16534     16538     16541     16536     16534     16538     16542
     16537     16534     16538     16540     16537     16534     16538     16541
     16537     16534     16538     16542     16538     16542     16546     16548
     16538     16542     16546     16549     16538     16542     16546     16550
     16540     16538     16542     16544     16540     16538     16542     16545
     16540     16538     16542     16546     16541     16538     16542     16544
     16541     16538     16542     16545     16541     16538     16542     16546
     16542     16546     16550     16552     16542     16546     16550     16553
     16542     16546     16550     16554     16544     16542     16546     16548
     16544     16542     16546     16549     16544     16542     16546     16550
     16545     16542     16546     16548     16545     16542     16546     16549
     16545     16542     16546     16550     16546     16550     16554     16556
     16546     16550     16554     16557     16546     16550     16554     16558
     16548     16546     16550     16552     16548     16546     16550     16553
     16548     16546     16550     16554     16549     16546     16550     16552
     16549     16546     16550     16553     16549     16546     16550     16554
     16550     16554     16558     16560     16550     16554     16558     16561
     16550     16554     16558     16562     16552     16550     16554     16556
     16552     16550     16554     16557     16552     16550     16554     16558
     16553     16550     16554     16556     16553     16550     16554     16557
     16553     16550     16554     16558     16556     16554     16558     16560
     16556     16554     16558     16561     16556     16554     16558     16562
     16557     16554     16558     16560     16557     16554     16558     16561
     16557     16554     16558     16562     16563     16568     16572     16574
     16563     16568     16572     16575     16563     16568     16572     16584
     16565     16563     16568     16570     16565     16563     16568     16571
     16565     16563     16568     16572     16566     16563     16568     16570
     16566     16563     16568     16571     16566     16563     16568     16572
     16567     16563     16568     16570     16567     16563     16568     16571
     16567     16563     16568     16572     16568     16572     16584     16576
     16570     16568     16572     16574     16570     16568     16572     16575
     16570     16568     16572     16584     16571     16568     16572     16574
     16571     16568     16572     16575     16571     16568     16572     16584
     16572     16584     16576     16578     16572     16584     16576     16580
     16572     16584     16576     16582     16574     16572     16584     16576
     16575     16572     16584     16576     16576     16582     16586     16588
     16576     16582     16586     16589     16576     16582     16586     16590
     16578     16576     16582     16586     16580     16576     16582     16586
     16582     16586     16590     16592     16582     16586     16590     16593
     16582     16586     16590     16607     16584     16576     16582     16586
     16586     16590     16593     16595     16586     16590     16607     16609
     16586     16590     16607     16610     16586     16590     16607     16611
     16588     16586     16590     16592     16588     16586     16590     16593
     16588     16586     16590     16607     16589     16586     16590     16592
     16589     16586     16590     16593     16589     16586     16590     16607
     16590     16593     16595     16597     16590     16593     16595     16599
     16590     16607     16611     16613     16592     16590     16593     16595
     16592     16590     16607     16609     16592     16590     16607     16610
     16592     16590     16607     16611     16593     16590     16607     16609
     16593     16590     16607     16610     16593     16590     16607     16611
     16593     16595     16599     16601     16593     16595     16599     16602
     16593     16595     16599     16625     16595     16593     16590     16607
     16595     16599     16625     16627     16595     16599     16625     16628
     16595     16599     16625     16629     16597     16595     16599     16601
     16597     16595     16599     16602     16597     16595     16599     16625
     16599     16625     16629     16631     16599     16625     16629     16632
     16599     16625     16629     16633     16601     16599     16625     16627
     16601     16599     16625     16628     16601     16599     16625     16629
     16602     16599     16625     16627     16602     16599     16625     16628
     16602     16599     16625     16629     16607     16611     16613     16615
     16607     16611     16613     16617     16609     16607     16611     16613
     16610     16607     16611     16613     16611     16613     16617     16619
     16611     16613     16617     16620     16611     16613     16617     16688
     16613     16617     16688     16690     16613     16617     16688     16691
     16613     16617     16688     16692     16615     16613     16617     16619
     16615     16613     16617     16620     16615     16613     16617     16688
     16617     16688     16692     16694     16617     16688     16692     16695
     16617     16688     16692     16696     16619     16617     16688     16690
     16619     16617     16688     16691     16619     16617     16688     16692
     16620     16617     16688     16690     16620     16617     16688     16691
     16620     16617     16688     16692     16625     16629     16633     16635
     16625     16629     16633     16636     16625     16629     16633     16637
     16627     16625     16629     16631     16627     16625     16629     16632
     16627     16625     16629     16633     16628     16625     16629     16631
     16628     16625     16629     16632     16628     16625     16629     16633
     16629     16633     16637     16639     16629     16633     16637     16640
     16629     16633     16637     16641     16631     16629     16633     16635
     16631     16629     16633     16636     16631     16629     16633     16637
     16632     16629     16633     16635     16632     16629     16633     16636
     16632     16629     16633     16637     16633     16637     16641     16643
     16633     16637     16641     16644     16633     16637     16641     16645
     16635     16633     16637     16639     16635     16633     16637     16640
     16635     16633     16637     16641     16636     16633     16637     16639
     16636     16633     16637     16640     16636     16633     16637     16641
     16637     16641     16645     16647     16637     16641     16645     16648
     16637     16641     16645     16649     16639     16637     16641     16643
     16639     16637     16641     16644     16639     16637     16641     16645
     16640     16637     16641     16643     16640     16637     16641     16644
     16640     16637     16641     16645     16641     16645     16649     16651
     16641     16645     16649     16652     16643     16641     16645     16647
     16643     16641     16645     16648     16643     16641     16645     16649
     16644     16641     16645     16647     16644     16641     16645     16648
     16644     16641     16645     16649     16645     16649     16652     16654
     16645     16649     16652     16655     16647     16645     16649     16651
     16647     16645     16649     16652     16648     16645     16649     16651
     16648     16645     16649     16652     16649     16652     16655     16657
     16649     16652     16655     16658     16649     16652     16655     16659
     16651     16649     16652     16654     16651     16649     16652     16655
     16652     16655     16659     16661     16652     16655     16659     16662
     16652     16655     16659     16663     16654     16652     16655     16657
     16654     16652     16655     16658     16654     16652     16655     16659
     16655     16659     16663     16665     16655     16659     16663     16666
     16655     16659     16663     16667     16657     16655     16659     16661
     16657     16655     16659     16662     16657     16655     16659     16663
     16658     16655     16659     16661     16658     16655     16659     16662
     16658     16655     16659     16663     16659     16663     16667     16669
     16659     16663     16667     16670     16659     16663     16667     16671
     16661     16659     16663     16665     16661     16659     16663     16666
     16661     16659     16663     16667     16662     16659     16663     16665
     16662     16659     16663     16666     16662     16659     16663     16667
     16663     16667     16671     16673     16663     16667     16671     16674
     16663     16667     16671     16675     16665     16663     16667     16669
     16665     16663     16667     16670     16665     16663     16667     16671
     16666     16663     16667     16669     16666     16663     16667     16670
     16666     16663     16667     16671     16667     16671     16675     16677
     16667     16671     16675     16678     16667     16671     16675     16679
     16669     16667     16671     16673     16669     16667     16671     16674
     16669     16667     16671     16675     16670     16667     16671     16673
     16670     16667     16671     16674     16670     16667     16671     16675
     16671     16675     16679     16681     16671     16675     16679     16682
     16671     16675     16679     16683     16673     16671     16675     16677
     16673     16671     16675     16678     16673     16671     16675     16679
     16674     16671     16675     16677     16674     16671     16675     16678
     16674     16671     16675     16679     16675     16679     16683     16685
     16675     16679     16683     16686     16675     16679     16683     16687
     16677     16675     16679     16681     16677     16675     16679     16682
     16677     16675     16679     16683     16678     16675     16679     16681
     16678     16675     16679     16682     16678     16675     16679     16683
     16681     16679     16683     16685     16681     16679     16683     16686
     16681     16679     16683     16687     16682     16679     16683     16685
     16682     16679     16683     16686     16682     16679     16683     16687
     16688     16692     16696     16698     16688     16692     16696     16699
     16688     16692     16696     16700     16690     16688     16692     16694
     16690     16688     16692     16695     16690     16688     16692     16696
     16691     16688     16692     16694     16691     16688     16692     16695
     16691     16688     16692     16696     16692     16696     16700     16702
     16692     16696     16700     16703     16692     16696     16700     16704
     16694     16692     16696     16698     16694     16692     16696     16699
     16694     16692     16696     16700     16695     16692     16696     16698
     16695     16692     16696     16699     16695     16692     16696     16700
     16696     16700     16704     16706     16696     16700     16704     16707
     16696     16700     16704     16708     16698     16696     16700     16702
     16698     16696     16700     16703     16698     16696     16700     16704
     16699     16696     16700     16702     16699     16696     16700     16703
     16699     16696     16700     16704     16700     16704     16708     16710
     16700     16704     16708     16711     16700     16704     16708     16712
     16702     16700     16704     16706     16702     16700     16704     16707
     16702     16700     16704     16708     16703     16700     16704     16706
     16703     16700     16704     16707     16703     16700     16704     16708
     16704     16708     16712     16714     16704     16708     16712     16715
     16704     16708     16712     16716     16706     16704     16708     16710
     16706     16704     16708     16711     16706     16704     16708     16712
     16707     16704     16708     16710     16707     16704     16708     16711
     16707     16704     16708     16712     16708     16712     16716     16718
     16708     16712     16716     16719     16708     16712     16716     16720
     16710     16708     16712     16714     16710     16708     16712     16715
     16710     16708     16712     16716     16711     16708     16712     16714
     16711     16708     16712     16715     16711     16708     16712     16716
     16712     16716     16720     16722     16712     16716     16720     16723
     16712     16716     16720     16724     16714     16712     16716     16718
     16714     16712     16716     16719     16714     16712     16716     16720
     16715     16712     16716     16718     16715     16712     16716     16719
     16715     16712     16716     16720     16716     16720     16724     16726
     16716     16720     16724     16727     16716     16720     16724     16728
     16718     16716     16720     16722     16718     16716     16720     16723
     16718     16716     16720     16724     16719     16716     16720     16722
     16719     16716     16720     16723     16719     16716     16720     16724
     16720     16724     16728     16730     16720     16724     16728     16731
     16720     16724     16728     16732     16722     16720     16724     16726
     16722     16720     16724     16727     16722     16720     16724     16728
     16723     16720     16724     16726     16723     16720     16724     16727
     16723     16720     16724     16728     16724     16728     16732     16734
     16724     16728     16732     16735     16724     16728     16732     16736
     16726     16724     16728     16730     16726     16724     16728     16731
     16726     16724     16728     16732     16727     16724     16728     16730
     16727     16724     16728     16731     16727     16724     16728     16732
     16728     16732     16736     16738     16728     16732     16736     16739
     16728     16732     16736     16740     16730     16728     16732     16734
     16730     16728     16732     16735     16730     16728     16732     16736
     16731     16728     16732     16734     16731     16728     16732     16735
     16731     16728     16732     16736     16732     16736     16740     16742
     16732     16736     16740     16743     16732     16736     16740     16744
     16734     16732     16736     16738     16734     16732     16736     16739
     16734     16732     16736     16740     16735     16732     16736     16738
     16735     16732     16736     16739     16735     16732     16736     16740
     16738     16736     16740     16742     16738     16736     16740     16743
     16738     16736     16740     16744     16739     16736     16740     16742
     16739     16736     16740     16743     16739     16736     16740     16744
     16745     16750     16754     16756     16745     16750     16754     16757
     16745     16750     16754     16766     16747     16745     16750     16752
     16747     16745     16750     16753     16747     16745     16750     16754
     16748     16745     16750     16752     16748     16745     16750     16753
     16748     16745     16750     16754     16749     16745     16750     16752
     16749     16745     16750     16753     16749     16745     16750     16754
     16750     16754     16766     16758     16752     16750     16754     16756
     16752     16750     16754     16757     16752     16750     16754     16766
     16753     16750     16754     16756     16753     16750     16754     16757
     16753     16750     16754     16766     16754     16766     16758     16760
     16754     16766     16758     16762     16754     16766     16758     16764
     16756     16754     16766     16758     16757     16754     16766     16758
     16758     16764     16768     16770     16758     16764     16768     16771
     16758     16764     16768     16772     16760     16758     16764     16768
     16762     16758     16764     16768     16764     16768     16772     16774
     16764     16768     16772     16775     16764     16768     16772     16789
     16766     16758     16764     16768     16768     16772     16775     16777
     16768     16772     16789     16791     16768     16772     16789     16792
     16768     16772     16789     16793     16770     16768     16772     16774
     16770     16768     16772     16775     16770     16768     16772     16789
     16771     16768     16772     16774     16771     16768     16772     16775
     16771     16768     16772     16789     16772     16775     16777     16779
     16772     16775     16777     16781     16772     16789     16793     16795
     16774     16772     16775     16777     16774     16772     16789     16791
     16774     16772     16789     16792     16774     16772     16789     16793
     16775     16772     16789     16791     16775     16772     16789     16792
     16775     16772     16789     16793     16775     16777     16781     16783
     16775     16777     16781     16784     16775     16777     16781     16807
     16777     16775     16772     16789     16777     16781     16807     16809
     16777     16781     16807     16810     16777     16781     16807     16811
     16779     16777     16781     16783     16779     16777     16781     16784
     16779     16777     16781     16807     16781     16807     16811     16813
     16781     16807     16811     16814     16781     16807     16811     16815
     16783     16781     16807     16809     16783     16781     16807     16810
     16783     16781     16807     16811     16784     16781     16807     16809
     16784     16781     16807     16810     16784     16781     16807     16811
     16789     16793     16795     16797     16789     16793     16795     16799
     16791     16789     16793     16795     16792     16789     16793     16795
     16793     16795     16799     16801     16793     16795     16799     16802
     16793     16795     16799     16870     16795     16799     16870     16872
     16795     16799     16870     16873     16795     16799     16870     16874
     16797     16795     16799     16801     16797     16795     16799     16802
     16797     16795     16799     16870     16799     16870     16874     16876
     16799     16870     16874     16877     16799     16870     16874     16878
     16801     16799     16870     16872     16801     16799     16870     16873
     16801     16799     16870     16874     16802     16799     16870     16872
     16802     16799     16870     16873     16802     16799     16870     16874
     16807     16811     16815     16817     16807     16811     16815     16818
     16807     16811     16815     16819     16809     16807     16811     16813
     16809     16807     16811     16814     16809     16807     16811     16815
     16810     16807     16811     16813     16810     16807     16811     16814
     16810     16807     16811     16815     16811     16815     16819     16821
     16811     16815     16819     16822     16811     16815     16819     16823
     16813     16811     16815     16817     16813     16811     16815     16818
     16813     16811     16815     16819     16814     16811     16815     16817
     16814     16811     16815     16818     16814     16811     16815     16819
     16815     16819     16823     16825     16815     16819     16823     16826
     16815     16819     16823     16827     16817     16815     16819     16821
     16817     16815     16819     16822     16817     16815     16819     16823
     16818     16815     16819     16821     16818     16815     16819     16822
     16818     16815     16819     16823     16819     16823     16827     16829
     16819     16823     16827     16830     16819     16823     16827     16831
     16821     16819     16823     16825     16821     16819     16823     16826
     16821     16819     16823     16827     16822     16819     16823     16825
     16822     16819     16823     16826     16822     16819     16823     16827
     16823     16827     16831     16833     16823     16827     16831     16834
     16825     16823     16827     16829     16825     16823     16827     16830
     16825     16823     16827     16831     16826     16823     16827     16829
     16826     16823     16827     16830     16826     16823     16827     16831
     16827     16831     16834     16836     16827     16831     16834     16837
     16829     16827     16831     16833     16829     16827     16831     16834
     16830     16827     16831     16833     16830     16827     16831     16834
     16831     16834     16837     16839     16831     16834     16837     16840
     16831     16834     16837     16841     16833     16831     16834     16836
     16833     16831     16834     16837     16834     16837     16841     16843
     16834     16837     16841     16844     16834     16837     16841     16845
     16836     16834     16837     16839     16836     16834     16837     16840
     16836     16834     16837     16841     16837     16841     16845     16847
     16837     16841     16845     16848     16837     16841     16845     16849
     16839     16837     16841     16843     16839     16837     16841     16844
     16839     16837     16841     16845     16840     16837     16841     16843
     16840     16837     16841     16844     16840     16837     16841     16845
     16841     16845     16849     16851     16841     16845     16849     16852
     16841     16845     16849     16853     16843     16841     16845     16847
     16843     16841     16845     16848     16843     16841     16845     16849
     16844     16841     16845     16847     16844     16841     16845     16848
     16844     16841     16845     16849     16845     16849     16853     16855
     16845     16849     16853     16856     16845     16849     16853     16857
     16847     16845     16849     16851     16847     16845     16849     16852
     16847     16845     16849     16853     16848     16845     16849     16851
     16848     16845     16849     16852     16848     16845     16849     16853
     16849     16853     16857     16859     16849     16853     16857     16860
     16849     16853     16857     16861     16851     16849     16853     16855
     16851     16849     16853     16856     16851     16849     16853     16857
     16852     16849     16853     16855     16852     16849     16853     16856
     16852     16849     16853     16857     16853     16857     16861     16863
     16853     16857     16861     16864     16853     16857     16861     16865
     16855     16853     16857     16859     16855     16853     16857     16860
     16855     16853     16857     16861     16856     16853     16857     16859
     16856     16853     16857     16860     16856     16853     16857     16861
     16857     16861     16865     16867     16857     16861     16865     16868
     16857     16861     16865     16869     16859     16857     16861     16863
     16859     16857     16861     16864     16859     16857     16861     16865
     16860     16857     16861     16863     16860     16857     16861     16864
     16860     16857     16861     16865     16863     16861     16865     16867
     16863     16861     16865     16868     16863     16861     16865     16869
     16864     16861     16865     16867     16864     16861     16865     16868
     16864     16861     16865     16869     16870     16874     16878     16880
     16870     16874     16878     16881     16870     16874     16878     16882
     16872     16870     16874     16876     16872     16870     16874     16877
     16872     16870     16874     16878     16873     16870     16874     16876
     16873     16870     16874     16877     16873     16870     16874     16878
     16874     16878     16882     16884     16874     16878     16882     16885
     16874     16878     16882     16886     16876     16874     16878     16880
     16876     16874     16878     16881     16876     16874     16878     16882
     16877     16874     16878     16880     16877     16874     16878     16881
     16877     16874     16878     16882     16878     16882     16886     16888
     16878     16882     16886     16889     16878     16882     16886     16890
     16880     16878     16882     16884     16880     16878     16882     16885
     16880     16878     16882     16886     16881     16878     16882     16884
     16881     16878     16882     16885     16881     16878     16882     16886
     16882     16886     16890     16892     16882     16886     16890     16893
     16882     16886     16890     16894     16884     16882     16886     16888
     16884     16882     16886     16889     16884     16882     16886     16890
     16885     16882     16886     16888     16885     16882     16886     16889
     16885     16882     16886     16890     16886     16890     16894     16896
     16886     16890     16894     16897     16886     16890     16894     16898
     16888     16886     16890     16892     16888     16886     16890     16893
     16888     16886     16890     16894     16889     16886     16890     16892
     16889     16886     16890     16893     16889     16886     16890     16894
     16890     16894     16898     16900     16890     16894     16898     16901
     16890     16894     16898     16902     16892     16890     16894     16896
     16892     16890     16894     16897     16892     16890     16894     16898
     16893     16890     16894     16896     16893     16890     16894     16897
     16893     16890     16894     16898     16894     16898     16902     16904
     16894     16898     16902     16905     16894     16898     16902     16906
     16896     16894     16898     16900     16896     16894     16898     16901
     16896     16894     16898     16902     16897     16894     16898     16900
     16897     16894     16898     16901     16897     16894     16898     16902
     16898     16902     16906     16908     16898     16902     16906     16909
     16898     16902     16906     16910     16900     16898     16902     16904
     16900     16898     16902     16905     16900     16898     16902     16906
     16901     16898     16902     16904     16901     16898     16902     16905
     16901     16898     16902     16906     16902     16906     16910     16912
     16902     16906     16910     16913     16902     16906     16910     16914
     16904     16902     16906     16908     16904     16902     16906     16909
     16904     16902     16906     16910     16905     16902     16906     16908
     16905     16902     16906     16909     16905     16902     16906     16910
     16906     16910     16914     16916     16906     16910     16914     16917
     16906     16910     16914     16918     16908     16906     16910     16912
     16908     16906     16910     16913     16908     16906     16910     16914
     16909     16906     16910     16912     16909     16906     16910     16913
     16909     16906     16910     16914     16910     16914     16918     16920
     16910     16914     16918     16921     16910     16914     16918     16922
     16912     16910     16914     16916     16912     16910     16914     16917
     16912     16910     16914     16918     16913     16910     16914     16916
     16913     16910     16914     16917     16913     16910     16914     16918
     16914     16918     16922     16924     16914     16918     16922     16925
     16914     16918     16922     16926     16916     16914     16918     16920
     16916     16914     16918     16921     16916     16914     16918     16922
     16917     16914     16918     16920     16917     16914     16918     16921
     16917     16914     16918     16922     16920     16918     16922     16924
     16920     16918     16922     16925     16920     16918     16922     16926
     16921     16918     16922     16924     16921     16918     16922     16925
     16921     16918     16922     16926     16927     16932     16936     16938
     16927     16932     16936     16939     16927     16932     16936     16948
     16929     16927     16932     16934     16929     16927     16932     16935
     16929     16927     16932     16936     16930     16927     16932     16934
     16930     16927     16932     16935     16930     16927     16932     16936
     16931     16927     16932     16934     16931     16927     16932     16935
     16931     16927     16932     16936     16932     16936     16948     16940
     16934     16932     16936     16938     16934     16932     16936     16939
     16934     16932     16936     16948     16935     16932     16936     16938
     16935     16932     16936     16939     16935     16932     16936     16948
     16936     16948     16940     16942     16936     16948     16940     16944
     16936     16948     16940     16946     16938     16936     16948     16940
     16939     16936     16948     16940     16940     16946     16950     16952
     16940     16946     16950     16953     16940     16946     16950     16954
     16942     16940     16946     16950     16944     16940     16946     16950
     16946     16950     16954     16956     16946     16950     16954     16957
     16946     16950     16954     16971     16948     16940     16946     16950
     16950     16954     16957     16959     16950     16954     16971     16973
     16950     16954     16971     16974     16950     16954     16971     16975
     16952     16950     16954     16956     16952     16950     16954     16957
     16952     16950     16954     16971     16953     16950     16954     16956
     16953     16950     16954     16957     16953     16950     16954     16971
     16954     16957     16959     16961     16954     16957     16959     16963
     16954     16971     16975     16977     16956     16954     16957     16959
     16956     16954     16971     16973     16956     16954     16971     16974
     16956     16954     16971     16975     16957     16954     16971     16973
     16957     16954     16971     16974     16957     16954     16971     16975
     16957     16959     16963     16965     16957     16959     16963     16966
     16957     16959     16963     16989     16959     16957     16954     16971
     16959     16963     16989     16991     16959     16963     16989     16992
     16959     16963     16989     16993     16961     16959     16963     16965
     16961     16959     16963     16966     16961     16959     16963     16989
     16963     16989     16993     16995     16963     16989     16993     16996
     16963     16989     16993     16997     16965     16963     16989     16991
     16965     16963     16989     16992     16965     16963     16989     16993
     16966     16963     16989     16991     16966     16963     16989     16992
     16966     16963     16989     16993     16971     16975     16977     16979
     16971     16975     16977     16981     16973     16971     16975     16977
     16974     16971     16975     16977     16975     16977     16981     16983
     16975     16977     16981     16984     16975     16977     16981     17052
     16977     16981     17052     17054     16977     16981     17052     17055
     16977     16981     17052     17056     16979     16977     16981     16983
     16979     16977     16981     16984     16979     16977     16981     17052
     16981     17052     17056     17058     16981     17052     17056     17059
     16981     17052     17056     17060     16983     16981     17052     17054
     16983     16981     17052     17055     16983     16981     17052     17056
     16984     16981     17052     17054     16984     16981     17052     17055
     16984     16981     17052     17056     16989     16993     16997     16999
     16989     16993     16997     17000     16989     16993     16997     17001
     16991     16989     16993     16995     16991     16989     16993     16996
     16991     16989     16993     16997     16992     16989     16993     16995
     16992     16989     16993     16996     16992     16989     16993     16997
     16993     16997     17001     17003     16993     16997     17001     17004
     16993     16997     17001     17005     16995     16993     16997     16999
     16995     16993     16997     17000     16995     16993     16997     17001
     16996     16993     16997     16999     16996     16993     16997     17000
     16996     16993     16997     17001     16997     17001     17005     17007
     16997     17001     17005     17008     16997     17001     17005     17009
     16999     16997     17001     17003     16999     16997     17001     17004
     16999     16997     17001     17005     17000     16997     17001     17003
     17000     16997     17001     17004     17000     16997     17001     17005
     17001     17005     17009     17011     17001     17005     17009     17012
     17001     17005     17009     17013     17003     17001     17005     17007
     17003     17001     17005     17008     17003     17001     17005     17009
     17004     17001     17005     17007     17004     17001     17005     17008
     17004     17001     17005     17009     17005     17009     17013     17015
     17005     17009     17013     17016     17007     17005     17009     17011
     17007     17005     17009     17012     17007     17005     17009     17013
     17008     17005     17009     17011     17008     17005     17009     17012
     17008     17005     17009     17013     17009     17013     17016     17018
     17009     17013     17016     17019     17011     17009     17013     17015
     17011     17009     17013     17016     17012     17009     17013     17015
     17012     17009     17013     17016     17013     17016     17019     17021
     17013     17016     17019     17022     17013     17016     17019     17023
     17015     17013     17016     17018     17015     17013     17016     17019
     17016     17019     17023     17025     17016     17019     17023     17026
     17016     17019     17023     17027     17018     17016     17019     17021
     17018     17016     17019     17022     17018     17016     17019     17023
     17019     17023     17027     17029     17019     17023     17027     17030
     17019     17023     17027     17031     17021     17019     17023     17025
     17021     17019     17023     17026     17021     17019     17023     17027
     17022     17019     17023     17025     17022     17019     17023     17026
     17022     17019     17023     17027     17023     17027     17031     17033
     17023     17027     17031     17034     17023     17027     17031     17035
     17025     17023     17027     17029     17025     17023     17027     17030
     17025     17023     17027     17031     17026     17023     17027     17029
     17026     17023     17027     17030     17026     17023     17027     17031
     17027     17031     17035     17037     17027     17031     17035     17038
     17027     17031     17035     17039     17029     17027     17031     17033
     17029     17027     17031     17034     17029     17027     17031     17035
     17030     17027     17031     17033     17030     17027     17031     17034
     17030     17027     17031     17035     17031     17035     17039     17041
     17031     17035     17039     17042     17031     17035     17039     17043
     17033     17031     17035     17037     17033     17031     17035     17038
     17033     17031     17035     17039     17034     17031     17035     17037
     17034     17031     17035     17038     17034     17031     17035     17039
     17035     17039     17043     17045     17035     17039     17043     17046
     17035     17039     17043     17047     17037     17035     17039     17041
     17037     17035     17039     17042     17037     17035     17039     17043
     17038     17035     17039     17041     17038     17035     17039     17042
     17038     17035     17039     17043     17039     17043     17047     17049
     17039     17043     17047     17050     17039     17043     17047     17051
     17041     17039     17043     17045     17041     17039     17043     17046
     17041     17039     17043     17047     17042     17039     17043     17045
     17042     17039     17043     17046     17042     17039     17043     17047
     17045     17043     17047     17049     17045     17043     17047     17050
     17045     17043     17047     17051     17046     17043     17047     17049
     17046     17043     17047     17050     17046     17043     17047     17051
     17052     17056     17060     17062     17052     17056     17060     17063
     17052     17056     17060     17064     17054     17052     17056     17058
     17054     17052     17056     17059     17054     17052     17056     17060
     17055     17052     17056     17058     17055     17052     17056     17059
     17055     17052     17056     17060     17056     17060     17064     17066
     17056     17060     17064     17067     17056     17060     17064     17068
     17058     17056     17060     17062     17058     17056     17060     17063
     17058     17056     17060     17064     17059     17056     17060     17062
     17059     17056     17060     17063     17059     17056     17060     17064
     17060     17064     17068     17070     17060     17064     17068     17071
     17060     17064     17068     17072     17062     17060     17064     17066
     17062     17060     17064     17067     17062     17060     17064     17068
     17063     17060     17064     17066     17063     17060     17064     17067
     17063     17060     17064     17068     17064     17068     17072     17074
     17064     17068     17072     17075     17064     17068     17072     17076
     17066     17064     17068     17070     17066     17064     17068     17071
     17066     17064     17068     17072     17067     17064     17068     17070
     17067     17064     17068     17071     17067     17064     17068     17072
     17068     17072     17076     17078     17068     17072     17076     17079
     17068     17072     17076     17080     17070     17068     17072     17074
     17070     17068     17072     17075     17070     17068     17072     17076
     17071     17068     17072     17074     17071     17068     17072     17075
     17071     17068     17072     17076     17072     17076     17080     17082
     17072     17076     17080     17083     17072     17076     17080     17084
     17074     17072     17076     17078     17074     17072     17076     17079
     17074     17072     17076     17080     17075     17072     17076     17078
     17075     17072     17076     17079     17075     17072     17076     17080
     17076     17080     17084     17086     17076     17080     17084     17087
     17076     17080     17084     17088     17078     17076     17080     17082
     17078     17076     17080     17083     17078     17076     17080     17084
     17079     17076     17080     17082     17079     17076     17080     17083
     17079     17076     17080     17084     17080     17084     17088     17090
     17080     17084     17088     17091     17080     17084     17088     17092
     17082     17080     17084     17086     17082     17080     17084     17087
     17082     17080     17084     17088     17083     17080     17084     17086
     17083     17080     17084     17087     17083     17080     17084     17088
     17084     17088     17092     17094     17084     17088     17092     17095
     17084     17088     17092     17096     17086     17084     17088     17090
     17086     17084     17088     17091     17086     17084     17088     17092
     17087     17084     17088     17090     17087     17084     17088     17091
     17087     17084     17088     17092     17088     17092     17096     17098
     17088     17092     17096     17099     17088     17092     17096     17100
     17090     17088     17092     17094     17090     17088     17092     17095
     17090     17088     17092     17096     17091     17088     17092     17094
     17091     17088     17092     17095     17091     17088     17092     17096
     17092     17096     17100     17102     17092     17096     17100     17103
     17092     17096     17100     17104     17094     17092     17096     17098
     17094     17092     17096     17099     17094     17092     17096     17100
     17095     17092     17096     17098     17095     17092     17096     17099
     17095     17092     17096     17100     17096     17100     17104     17106
     17096     17100     17104     17107     17096     17100     17104     17108
     17098     17096     17100     17102     17098     17096     17100     17103
     17098     17096     17100     17104     17099     17096     17100     17102
     17099     17096     17100     17103     17099     17096     17100     17104
     17102     17100     17104     17106     17102     17100     17104     17107
     17102     17100     17104     17108     17103     17100     17104     17106
     17103     17100     17104     17107     17103     17100     17104     17108
     17109     17114     17118     17120     17109     17114     17118     17121
     17109     17114     17118     17130     17111     17109     17114     17116
     17111     17109     17114     17117     17111     17109     17114     17118
     17112     17109     17114     17116     17112     17109     17114     17117
     17112     17109     17114     17118     17113     17109     17114     17116
     17113     17109     17114     17117     17113     17109     17114     17118
     17114     17118     17130     17122     17116     17114     17118     17120
     17116     17114     17118     17121     17116     17114     17118     17130
     17117     17114     17118     17120     17117     17114     17118     17121
     17117     17114     17118     17130     17118     17130     17122     17124
     17118     17130     17122     17126     17118     17130     17122     17128
     17120     17118     17130     17122     17121     17118     17130     17122
     17122     17128     17132     17134     17122     17128     17132     17135
     17122     17128     17132     17136     17124     17122     17128     17132
     17126     17122     17128     17132     17128     17132     17136     17138
     17128     17132     17136     17139     17128     17132     17136     17153
     17130     17122     17128     17132     17132     17136     17139     17141
     17132     17136     17153     17155     17132     17136     17153     17156
     17132     17136     17153     17157     17134     17132     17136     17138
     17134     17132     17136     17139     17134     17132     17136     17153
     17135     17132     17136     17138     17135     17132     17136     17139
     17135     17132     17136     17153     17136     17139     17141     17143
     17136     17139     17141     17145     17136     17153     17157     17159
     17138     17136     17139     17141     17138     17136     17153     17155
     17138     17136     17153     17156     17138     17136     17153     17157
     17139     17136     17153     17155     17139     17136     17153     17156
     17139     17136     17153     17157     17139     17141     17145     17147
     17139     17141     17145     17148     17139     17141     17145     17171
     17141     17139     17136     17153     17141     17145     17171     17173
     17141     17145     17171     17174     17141     17145     17171     17175
     17143     17141     17145     17147     17143     17141     17145     17148
     17143     17141     17145     17171     17145     17171     17175     17177
     17145     17171     17175     17178     17145     17171     17175     17179
     17147     17145     17171     17173     17147     17145     17171     17174
     17147     17145     17171     17175     17148     17145     17171     17173
     17148     17145     17171     17174     17148     17145     17171     17175
     17153     17157     17159     17161     17153     17157     17159     17163
     17155     17153     17157     17159     17156     17153     17157     17159
     17157     17159     17163     17165     17157     17159     17163     17166
     17157     17159     17163     17234     17159     17163     17234     17236
     17159     17163     17234     17237     17159     17163     17234     17238
     17161     17159     17163     17165     17161     17159     17163     17166
     17161     17159     17163     17234     17163     17234     17238     17240
     17163     17234     17238     17241     17163     17234     17238     17242
     17165     17163     17234     17236     17165     17163     17234     17237
     17165     17163     17234     17238     17166     17163     17234     17236
     17166     17163     17234     17237     17166     17163     17234     17238
     17171     17175     17179     17181     17171     17175     17179     17182
     17171     17175     17179     17183     17173     17171     17175     17177
     17173     17171     17175     17178     17173     17171     17175     17179
     17174     17171     17175     17177     17174     17171     17175     17178
     17174     17171     17175     17179     17175     17179     17183     17185
     17175     17179     17183     17186     17175     17179     17183     17187
     17177     17175     17179     17181     17177     17175     17179     17182
     17177     17175     17179     17183     17178     17175     17179     17181
     17178     17175     17179     17182     17178     17175     17179     17183
     17179     17183     17187     17189     17179     17183     17187     17190
     17179     17183     17187     17191     17181     17179     17183     17185
     17181     17179     17183     17186     17181     17179     17183     17187
     17182     17179     17183     17185     17182     17179     17183     17186
     17182     17179     17183     17187     17183     17187     17191     17193
     17183     17187     17191     17194     17183     17187     17191     17195
     17185     17183     17187     17189     17185     17183     17187     17190
     17185     17183     17187     17191     17186     17183     17187     17189
     17186     17183     17187     17190     17186     17183     17187     17191
     17187     17191     17195     17197     17187     17191     17195     17198
     17189     17187     17191     17193     17189     17187     17191     17194
     17189     17187     17191     17195     17190     17187     17191     17193
     17190     17187     17191     17194     17190     17187     17191     17195
     17191     17195     17198     17200     17191     17195     17198     17201
     17193     17191     17195     17197     17193     17191     17195     17198
     17194     17191     17195     17197     17194     17191     17195     17198
     17195     17198     17201     17203     17195     17198     17201     17204
     17195     17198     17201     17205     17197     17195     17198     17200
     17197     17195     17198     17201     17198     17201     17205     17207
     17198     17201     17205     17208     17198     17201     17205     17209
     17200     17198     17201     17203     17200     17198     17201     17204
     17200     17198     17201     17205     17201     17205     17209     17211
     17201     17205     17209     17212     17201     17205     17209     17213
     17203     17201     17205     17207     17203     17201     17205     17208
     17203     17201     17205     17209     17204     17201     17205     17207
     17204     17201     17205     17208     17204     17201     17205     17209
     17205     17209     17213     17215     17205     17209     17213     17216
     17205     17209     17213     17217     17207     17205     17209     17211
     17207     17205     17209     17212     17207     17205     17209     17213
     17208     17205     17209     17211     17208     17205     17209     17212
     17208     17205     17209     17213     17209     17213     17217     17219
     17209     17213     17217     17220     17209     17213     17217     17221
     17211     17209     17213     17215     17211     17209     17213     17216
     17211     17209     17213     17217     17212     17209     17213     17215
     17212     17209     17213     17216     17212     17209     17213     17217
     17213     17217     17221     17223     17213     17217     17221     17224
     17213     17217     17221     17225     17215     17213     17217     17219
     17215     17213     17217     17220     17215     17213     17217     17221
     17216     17213     17217     17219     17216     17213     17217     17220
     17216     17213     17217     17221     17217     17221     17225     17227
     17217     17221     17225     17228     17217     17221     17225     17229
     17219     17217     17221     17223     17219     17217     17221     17224
     17219     17217     17221     17225     17220     17217     17221     17223
     17220     17217     17221     17224     17220     17217     17221     17225
     17221     17225     17229     17231     17221     17225     17229     17232
     17221     17225     17229     17233     17223     17221     17225     17227
     17223     17221     17225     17228     17223     17221     17225     17229
     17224     17221     17225     17227     17224     17221     17225     17228
     17224     17221     17225     17229     17227     17225     17229     17231
     17227     17225     17229     17232     17227     17225     17229     17233
     17228     17225     17229     17231     17228     17225     17229     17232
     17228     17225     17229     17233     17234     17238     17242     17244
     17234     17238     17242     17245     17234     17238     17242     17246
     17236     17234     17238     17240     17236     17234     17238     17241
     17236     17234     17238     17242     17237     17234     17238     17240
     17237     17234     17238     17241     17237     17234     17238     17242
     17238     17242     17246     17248     17238     17242     17246     17249
     17238     17242     17246     17250     17240     17238     17242     17244
     17240     17238     17242     17245     17240     17238     17242     17246
     17241     17238     17242     17244     17241     17238     17242     17245
     17241     17238     17242     17246     17242     17246     17250     17252
     17242     17246     17250     17253     17242     17246     17250     17254
     17244     17242     17246     17248     17244     17242     17246     17249
     17244     17242     17246     17250     17245     17242     17246     17248
     17245     17242     17246     17249     17245     17242     17246     17250
     17246     17250     17254     17256     17246     17250     17254     17257
     17246     17250     17254     17258     17248     17246     17250     17252
     17248     17246     17250     17253     17248     17246     17250     17254
     17249     17246     17250     17252     17249     17246     17250     17253
     17249     17246     17250     17254     17250     17254     17258     17260
     17250     17254     17258     17261     17250     17254     17258     17262
     17252     17250     17254     17256     17252     17250     17254     17257
     17252     17250     17254     17258     17253     17250     17254     17256
     17253     17250     17254     17257     17253     17250     17254     17258
     17254     17258     17262     17264     17254     17258     17262     17265
     17254     17258     17262     17266     17256     17254     17258     17260
     17256     17254     17258     17261     17256     17254     17258     17262
     17257     17254     17258     17260     17257     17254     17258     17261
     17257     17254     17258     17262     17258     17262     17266     17268
     17258     17262     17266     17269     17258     17262     17266     17270
     17260     17258     17262     17264     17260     17258     17262     17265
     17260     17258     17262     17266     17261     17258     17262     17264
     17261     17258     17262     17265     17261     17258     17262     17266
     17262     17266     17270     17272     17262     17266     17270     17273
     17262     17266     17270     17274     17264     17262     17266     17268
     17264     17262     17266     17269     17264     17262     17266     17270
     17265     17262     17266     17268     17265     17262     17266     17269
     17265     17262     17266     17270     17266     17270     17274     17276
     17266     17270     17274     17277     17266     17270     17274     17278
     17268     17266     17270     17272     17268     17266     17270     17273
     17268     17266     17270     17274     17269     17266     17270     17272
     17269     17266     17270     17273     17269     17266     17270     17274
     17270     17274     17278     17280     17270     17274     17278     17281
     17270     17274     17278     17282     17272     17270     17274     17276
     17272     17270     17274     17277     17272     17270     17274     17278
     17273     17270     17274     17276     17273     17270     17274     17277
     17273     17270     17274     17278     17274     17278     17282     17284
     17274     17278     17282     17285     17274     17278     17282     17286
     17276     17274     17278     17280     17276     17274     17278     17281
     17276     17274     17278     17282     17277     17274     17278     17280
     17277     17274     17278     17281     17277     17274     17278     17282
     17278     17282     17286     17288     17278     17282     17286     17289
     17278     17282     17286     17290     17280     17278     17282     17284
     17280     17278     17282     17285     17280     17278     17282     17286
     17281     17278     17282     17284     17281     17278     17282     17285
     17281     17278     17282     17286     17284     17282     17286     17288
     17284     17282     17286     17289     17284     17282     17286     17290
     17285     17282     17286     17288     17285     17282     17286     17289
     17285     17282     17286     17290     17291     17296     17300     17302
     17291     17296     17300     17303     17291     17296     17300     17312
     17293     17291     17296     17298     17293     17291     17296     17299
     17293     17291     17296     17300     17294     17291     17296     17298
     17294     17291     17296     17299     17294     17291     17296     17300
     17295     17291     17296     17298     17295     17291     17296     17299
     17295     17291     17296     17300     17296     17300     17312     17304
     17298     17296     17300     17302     17298     17296     17300     17303
     17298     17296     17300     17312     17299     17296     17300     17302
     17299     17296     17300     17303     17299     17296     17300     17312
     17300     17312     17304     17306     17300     17312     17304     17308
     17300     17312     17304     17310     17302     17300     17312     17304
     17303     17300     17312     17304     17304     17310     17314     17316
     17304     17310     17314     17317     17304     17310     17314     17318
     17306     17304     17310     17314     17308     17304     17310     17314
     17310     17314     17318     17320     17310     17314     17318     17321
     17310     17314     17318     17335     17312     17304     17310     17314
     17314     17318     17321     17323     17314     17318     17335     17337
     17314     17318     17335     17338     17314     17318     17335     17339
     17316     17314     17318     17320     17316     17314     17318     17321
     17316     17314     17318     17335     17317     17314     17318     17320
     17317     17314     17318     17321     17317     17314     17318     17335
     17318     17321     17323     17325     17318     17321     17323     17327
     17318     17335     17339     17341     17320     17318     17321     17323
     17320     17318     17335     17337     17320     17318     17335     17338
     17320     17318     17335     17339     17321     17318     17335     17337
     17321     17318     17335     17338     17321     17318     17335     17339
     17321     17323     17327     17329     17321     17323     17327     17330
     17321     17323     17327     17353     17323     17321     17318     17335
     17323     17327     17353     17355     17323     17327     17353     17356
     17323     17327     17353     17357     17325     17323     17327     17329
     17325     17323     17327     17330     17325     17323     17327     17353
     17327     17353     17357     17359     17327     17353     17357     17360
     17327     17353     17357     17361     17329     17327     17353     17355
     17329     17327     17353     17356     17329     17327     17353     17357
     17330     17327     17353     17355     17330     17327     17353     17356
     17330     17327     17353     17357     17335     17339     17341     17343
     17335     17339     17341     17345     17337     17335     17339     17341
     17338     17335     17339     17341     17339     17341     17345     17347
     17339     17341     17345     17348     17339     17341     17345     17416
     17341     17345     17416     17418     17341     17345     17416     17419
     17341     17345     17416     17420     17343     17341     17345     17347
     17343     17341     17345     17348     17343     17341     17345     17416
     17345     17416     17420     17422     17345     17416     17420     17423
     17345     17416     17420     17424     17347     17345     17416     17418
     17347     17345     17416     17419     17347     17345     17416     17420
     17348     17345     17416     17418     17348     17345     17416     17419
     17348     17345     17416     17420     17353     17357     17361     17363
     17353     17357     17361     17364     17353     17357     17361     17365
     17355     17353     17357     17359     17355     17353     17357     17360
     17355     17353     17357     17361     17356     17353     17357     17359
     17356     17353     17357     17360     17356     17353     17357     17361
     17357     17361     17365     17367     17357     17361     17365     17368
     17357     17361     17365     17369     17359     17357     17361     17363
     17359     17357     17361     17364     17359     17357     17361     17365
     17360     17357     17361     17363     17360     17357     17361     17364
     17360     17357     17361     17365     17361     17365     17369     17371
     17361     17365     17369     17372     17361     17365     17369     17373
     17363     17361     17365     17367     17363     17361     17365     17368
     17363     17361     17365     17369     17364     17361     17365     17367
     17364     17361     17365     17368     17364     17361     17365     17369
     17365     17369     17373     17375     17365     17369     17373     17376
     17365     17369     17373     17377     17367     17365     17369     17371
     17367     17365     17369     17372     17367     17365     17369     17373
     17368     17365     17369     17371     17368     17365     17369     17372
     17368     17365     17369     17373     17369     17373     17377     17379
     17369     17373     17377     17380     17371     17369     17373     17375
     17371     17369     17373     17376     17371     17369     17373     17377
     17372     17369     17373     17375     17372     17369     17373     17376
     17372     17369     17373     17377     17373     17377     17380     17382
     17373     17377     17380     17383     17375     17373     17377     17379
     17375     17373     17377     17380     17376     17373     17377     17379
     17376     17373     17377     17380     17377     17380     17383     17385
     17377     17380     17383     17386     17377     17380     17383     17387
     17379     17377     17380     17382     17379     17377     17380     17383
     17380     17383     17387     17389     17380     17383     17387     17390
     17380     17383     17387     17391     17382     17380     17383     17385
     17382     17380     17383     17386     17382     17380     17383     17387
     17383     17387     17391     17393     17383     17387     17391     17394
     17383     17387     17391     17395     17385     17383     17387     17389
     17385     17383     17387     17390     17385     17383     17387     17391
     17386     17383     17387     17389     17386     17383     17387     17390
     17386     17383     17387     17391     17387     17391     17395     17397
     17387     17391     17395     17398     17387     17391     17395     17399
     17389     17387     17391     17393     17389     17387     17391     17394
     17389     17387     17391     17395     17390     17387     17391     17393
     17390     17387     17391     17394     17390     17387     17391     17395
     17391     17395     17399     17401     17391     17395     17399     17402
     17391     17395     17399     17403     17393     17391     17395     17397
     17393     17391     17395     17398     17393     17391     17395     17399
     17394     17391     17395     17397     17394     17391     17395     17398
     17394     17391     17395     17399     17395     17399     17403     17405
     17395     17399     17403     17406     17395     17399     17403     17407
     17397     17395     17399     17401     17397     17395     17399     17402
     17397     17395     17399     17403     17398     17395     17399     17401
     17398     17395     17399     17402     17398     17395     17399     17403
     17399     17403     17407     17409     17399     17403     17407     17410
     17399     17403     17407     17411     17401     17399     17403     17405
     17401     17399     17403     17406     17401     17399     17403     17407
     17402     17399     17403     17405     17402     17399     17403     17406
     17402     17399     17403     17407     17403     17407     17411     17413
     17403     17407     17411     17414     17403     17407     17411     17415
     17405     17403     17407     17409     17405     17403     17407     17410
     17405     17403     17407     17411     17406     17403     17407     17409
     17406     17403     17407     17410     17406     17403     17407     17411
     17409     17407     17411     17413     17409     17407     17411     17414
     17409     17407     17411     17415     17410     17407     17411     17413
     17410     17407     17411     17414     17410     17407     17411     17415
     17416     17420     17424     17426     17416     17420     17424     17427
     17416     17420     17424     17428     17418     17416     17420     17422
     17418     17416     17420     17423     17418     17416     17420     17424
     17419     17416     17420     17422     17419     17416     17420     17423
     17419     17416     17420     17424     17420     17424     17428     17430
     17420     17424     17428     17431     17420     17424     17428     17432
     17422     17420     17424     17426     17422     17420     17424     17427
     17422     17420     17424     17428     17423     17420     17424     17426
     17423     17420     17424     17427     17423     17420     17424     17428
     17424     17428     17432     17434     17424     17428     17432     17435
     17424     17428     17432     17436     17426     17424     17428     17430
     17426     17424     17428     17431     17426     17424     17428     17432
     17427     17424     17428     17430     17427     17424     17428     17431
     17427     17424     17428     17432     17428     17432     17436     17438
     17428     17432     17436     17439     17428     17432     17436     17440
     17430     17428     17432     17434     17430     17428     17432     17435
     17430     17428     17432     17436     17431     17428     17432     17434
     17431     17428     17432     17435     17431     17428     17432     17436
     17432     17436     17440     17442     17432     17436     17440     17443
     17432     17436     17440     17444     17434     17432     17436     17438
     17434     17432     17436     17439     17434     17432     17436     17440
     17435     17432     17436     17438     17435     17432     17436     17439
     17435     17432     17436     17440     17436     17440     17444     17446
     17436     17440     17444     17447     17436     17440     17444     17448
     17438     17436     17440     17442     17438     17436     17440     17443
     17438     17436     17440     17444     17439     17436     17440     17442
     17439     17436     17440     17443     17439     17436     17440     17444
     17440     17444     17448     17450     17440     17444     17448     17451
     17440     17444     17448     17452     17442     17440     17444     17446
     17442     17440     17444     17447     17442     17440     17444     17448
     17443     17440     17444     17446     17443     17440     17444     17447
     17443     17440     17444     17448     17444     17448     17452     17454
     17444     17448     17452     17455     17444     17448     17452     17456
     17446     17444     17448     17450     17446     17444     17448     17451
     17446     17444     17448     17452     17447     17444     17448     17450
     17447     17444     17448     17451     17447     17444     17448     17452
     17448     17452     17456     17458     17448     17452     17456     17459
     17448     17452     17456     17460     17450     17448     17452     17454
     17450     17448     17452     17455     17450     17448     17452     17456
     17451     17448     17452     17454     17451     17448     17452     17455
     17451     17448     17452     17456     17452     17456     17460     17462
     17452     17456     17460     17463     17452     17456     17460     17464
     17454     17452     17456     17458     17454     17452     17456     17459
     17454     17452     17456     17460     17455     17452     17456     17458
     17455     17452     17456     17459     17455     17452     17456     17460
     17456     17460     17464     17466     17456     17460     17464     17467
     17456     17460     17464     17468     17458     17456     17460     17462
     17458     17456     17460     17463     17458     17456     17460     17464
     17459     17456     17460     17462     17459     17456     17460     17463
     17459     17456     17460     17464     17460     17464     17468     17470
     17460     17464     17468     17471     17460     17464     17468     17472
     17462     17460     17464     17466     17462     17460     17464     17467
     17462     17460     17464     17468     17463     17460     17464     17466
     17463     17460     17464     17467     17463     17460     17464     17468
     17466     17464     17468     17470     17466     17464     17468     17471
     17466     17464     17468     17472     17467     17464     17468     17470
     17467     17464     17468     17471     17467     17464     17468     17472
     17473     17478     17482     17484     17473     17478     17482     17485
     17473     17478     17482     17494     17475     17473     17478     17480
     17475     17473     17478     17481     17475     17473     17478     17482
     17476     17473     17478     17480     17476     17473     17478     17481
     17476     17473     17478     17482     17477     17473     17478     17480
     17477     17473     17478     17481     17477     17473     17478     17482
     17478     17482     17494     17486     17480     17478     17482     17484
     17480     17478     17482     17485     17480     17478     17482     17494
     17481     17478     17482     17484     17481     17478     17482     17485
     17481     17478     17482     17494     17482     17494     17486     17488
     17482     17494     17486     17490     17482     17494     17486     17492
     17484     17482     17494     17486     17485     17482     17494     17486
     17486     17492     17496     17498     17486     17492     17496     17499
     17486     17492     17496     17500     17488     17486     17492     17496
     17490     17486     17492     17496     17492     17496     17500     17502
     17492     17496     17500     17503     17492     17496     17500     17517
     17494     17486     17492     17496     17496     17500     17503     17505
     17496     17500     17517     17519     17496     17500     17517     17520
     17496     17500     17517     17521     17498     17496     17500     17502
     17498     17496     17500     17503     17498     17496     17500     17517
     17499     17496     17500     17502     17499     17496     17500     17503
     17499     17496     17500     17517     17500     17503     17505     17507
     17500     17503     17505     17509     17500     17517     17521     17523
     17502     17500     17503     17505     17502     17500     17517     17519
     17502     17500     17517     17520     17502     17500     17517     17521
     17503     17500     17517     17519     17503     17500     17517     17520
     17503     17500     17517     17521     17503     17505     17509     17511
     17503     17505     17509     17512     17503     17505     17509     17535
     17505     17503     17500     17517     17505     17509     17535     17537
     17505     17509     17535     17538     17505     17509     17535     17539
     17507     17505     17509     17511     17507     17505     17509     17512
     17507     17505     17509     17535     17509     17535     17539     17541
     17509     17535     17539     17542     17509     17535     17539     17543
     17511     17509     17535     17537     17511     17509     17535     17538
     17511     17509     17535     17539     17512     17509     17535     17537
     17512     17509     17535     17538     17512     17509     17535     17539
     17517     17521     17523     17525     17517     17521     17523     17527
     17519     17517     17521     17523     17520     17517     17521     17523
     17521     17523     17527     17529     17521     17523     17527     17530
     17521     17523     17527     17598     17523     17527     17598     17600
     17523     17527     17598     17601     17523     17527     17598     17602
     17525     17523     17527     17529     17525     17523     17527     17530
     17525     17523     17527     17598     17527     17598     17602     17604
     17527     17598     17602     17605     17527     17598     17602     17606
     17529     17527     17598     17600     17529     17527     17598     17601
     17529     17527     17598     17602     17530     17527     17598     17600
     17530     17527     17598     17601     17530     17527     17598     17602
     17535     17539     17543     17545     17535     17539     17543     17546
     17535     17539     17543     17547     17537     17535     17539     17541
     17537     17535     17539     17542     17537     17535     17539     17543
     17538     17535     17539     17541     17538     17535     17539     17542
     17538     17535     17539     17543     17539     17543     17547     17549
     17539     17543     17547     17550     17539     17543     17547     17551
     17541     17539     17543     17545     17541     17539     17543     17546
     17541     17539     17543     17547     17542     17539     17543     17545
     17542     17539     17543     17546     17542     17539     17543     17547
     17543     17547     17551     17553     17543     17547     17551     17554
     17543     17547     17551     17555     17545     17543     17547     17549
     17545     17543     17547     17550     17545     17543     17547     17551
     17546     17543     17547     17549     17546     17543     17547     17550
     17546     17543     17547     17551     17547     17551     17555     17557
     17547     17551     17555     17558     17547     17551     17555     17559
     17549     17547     17551     17553     17549     17547     17551     17554
     17549     17547     17551     17555     17550     17547     17551     17553
     17550     17547     17551     17554     17550     17547     17551     17555
     17551     17555     17559     17561     17551     17555     17559     17562
     17553     17551     17555     17557     17553     17551     17555     17558
     17553     17551     17555     17559     17554     17551     17555     17557
     17554     17551     17555     17558     17554     17551     17555     17559
     17555     17559     17562     17564     17555     17559     17562     17565
     17557     17555     17559     17561     17557     17555     17559     17562
     17558     17555     17559     17561     17558     17555     17559     17562
     17559     17562     17565     17567     17559     17562     17565     17568
     17559     17562     17565     17569     17561     17559     17562     17564
     17561     17559     17562     17565     17562     17565     17569     17571
     17562     17565     17569     17572     17562     17565     17569     17573
     17564     17562     17565     17567     17564     17562     17565     17568
     17564     17562     17565     17569     17565     17569     17573     17575
     17565     17569     17573     17576     17565     17569     17573     17577
     17567     17565     17569     17571     17567     17565     17569     17572
     17567     17565     17569     17573     17568     17565     17569     17571
     17568     17565     17569     17572     17568     17565     17569     17573
     17569     17573     17577     17579     17569     17573     17577     17580
     17569     17573     17577     17581     17571     17569     17573     17575
     17571     17569     17573     17576     17571     17569     17573     17577
     17572     17569     17573     17575     17572     17569     17573     17576
     17572     17569     17573     17577     17573     17577     17581     17583
     17573     17577     17581     17584     17573     17577     17581     17585
     17575     17573     17577     17579     17575     17573     17577     17580
     17575     17573     17577     17581     17576     17573     17577     17579
     17576     17573     17577     17580     17576     17573     17577     17581
     17577     17581     17585     17587     17577     17581     17585     17588
     17577     17581     17585     17589     17579     17577     17581     17583
     17579     17577     17581     17584     17579     17577     17581     17585
     17580     17577     17581     17583     17580     17577     17581     17584
     17580     17577     17581     17585     17581     17585     17589     17591
     17581     17585     17589     17592     17581     17585     17589     17593
     17583     17581     17585     17587     17583     17581     17585     17588
     17583     17581     17585     17589     17584     17581     17585     17587
     17584     17581     17585     17588     17584     17581     17585     17589
     17585     17589     17593     17595     17585     17589     17593     17596
     17585     17589     17593     17597     17587     17585     17589     17591
     17587     17585     17589     17592     17587     17585     17589     17593
     17588     17585     17589     17591     17588     17585     17589     17592
     17588     17585     17589     17593     17591     17589     17593     17595
     17591     17589     17593     17596     17591     17589     17593     17597
     17592     17589     17593     17595     17592     17589     17593     17596
     17592     17589     17593     17597     17598     17602     17606     17608
     17598     17602     17606     17609     17598     17602     17606     17610
     17600     17598     17602     17604     17600     17598     17602     17605
     17600     17598     17602     17606     17601     17598     17602     17604
     17601     17598     17602     17605     17601     17598     17602     17606
     17602     17606     17610     17612     17602     17606     17610     17613
     17602     17606     17610     17614     17604     17602     17606     17608
     17604     17602     17606     17609     17604     17602     17606     17610
     17605     17602     17606     17608     17605     17602     17606     17609
     17605     17602     17606     17610     17606     17610     17614     17616
     17606     17610     17614     17617     17606     17610     17614     17618
     17608     17606     17610     17612     17608     17606     17610     17613
     17608     17606     17610     17614     17609     17606     17610     17612
     17609     17606     17610     17613     17609     17606     17610     17614
     17610     17614     17618     17620     17610     17614     17618     17621
     17610     17614     17618     17622     17612     17610     17614     17616
     17612     17610     17614     17617     17612     17610     17614     17618
     17613     17610     17614     17616     17613     17610     17614     17617
     17613     17610     17614     17618     17614     17618     17622     17624
     17614     17618     17622     17625     17614     17618     17622     17626
     17616     17614     17618     17620     17616     17614     17618     17621
     17616     17614     17618     17622     17617     17614     17618     17620
     17617     17614     17618     17621     17617     17614     17618     17622
     17618     17622     17626     17628     17618     17622     17626     17629
     17618     17622     17626     17630     17620     17618     17622     17624
     17620     17618     17622     17625     17620     17618     17622     17626
     17621     17618     17622     17624     17621     17618     17622     17625
     17621     17618     17622     17626     17622     17626     17630     17632
     17622     17626     17630     17633     17622     17626     17630     17634
     17624     17622     17626     17628     17624     17622     17626     17629
     17624     17622     17626     17630     17625     17622     17626     17628
     17625     17622     17626     17629     17625     17622     17626     17630
     17626     17630     17634     17636     17626     17630     17634     17637
     17626     17630     17634     17638     17628     17626     17630     17632
     17628     17626     17630     17633     17628     17626     17630     17634
     17629     17626     17630     17632     17629     17626     17630     17633
     17629     17626     17630     17634     17630     17634     17638     17640
     17630     17634     17638     17641     17630     17634     17638     17642
     17632     17630     17634     17636     17632     17630     17634     17637
     17632     17630     17634     17638     17633     17630     17634     17636
     17633     17630     17634     17637     17633     17630     17634     17638
     17634     17638     17642     17644     17634     17638     17642     17645
     17634     17638     17642     17646     17636     17634     17638     17640
     17636     17634     17638     17641     17636     17634     17638     17642
     17637     17634     17638     17640     17637     17634     17638     17641
     17637     17634     17638     17642     17638     17642     17646     17648
     17638     17642     17646     17649     17638     17642     17646     17650
     17640     17638     17642     17644     17640     17638     17642     17645
     17640     17638     17642     17646     17641     17638     17642     17644
     17641     17638     17642     17645     17641     17638     17642     17646
     17642     17646     17650     17652     17642     17646     17650     17653
     17642     17646     17650     17654     17644     17642     17646     17648
     17644     17642     17646     17649     17644     17642     17646     17650
     17645     17642     17646     17648     17645     17642     17646     17649
     17645     17642     17646     17650     17648     17646     17650     17652
     17648     17646     17650     17653     17648     17646     17650     17654
     17649     17646     17650     17652     17649     17646     17650     17653
     17649     17646     17650     17654     17655     17660     17664     17666
     17655     17660     17664     17667     17655     17660     17664     17676
     17657     17655     17660     17662     17657     17655     17660     17663
     17657     17655     17660     17664     17658     17655     17660     17662
     17658     17655     17660     17663     17658     17655     17660     17664
     17659     17655     17660     17662     17659     17655     17660     17663
     17659     17655     17660     17664     17660     17664     17676     17668
     17662     17660     17664     17666     17662     17660     17664     17667
     17662     17660     17664     17676     17663     17660     17664     17666
     17663     17660     17664     17667     17663     17660     17664     17676
     17664     17676     17668     17670     17664     17676     17668     17672
     17664     17676     17668     17674     17666     17664     17676     17668
     17667     17664     17676     17668     17668     17674     17678     17680
     17668     17674     17678     17681     17668     17674     17678     17682
     17670     17668     17674     17678     17672     17668     17674     17678
     17674     17678     17682     17684     17674     17678     17682     17685
     17674     17678     17682     17699     17676     17668     17674     17678
     17678     17682     17685     17687     17678     17682     17699     17701
     17678     17682     17699     17702     17678     17682     17699     17703
     17680     17678     17682     17684     17680     17678     17682     17685
     17680     17678     17682     17699     17681     17678     17682     17684
     17681     17678     17682     17685     17681     17678     17682     17699
     17682     17685     17687     17689     17682     17685     17687     17691
     17682     17699     17703     17705     17684     17682     17685     17687
     17684     17682     17699     17701     17684     17682     17699     17702
     17684     17682     17699     17703     17685     17682     17699     17701
     17685     17682     17699     17702     17685     17682     17699     17703
     17685     17687     17691     17693     17685     17687     17691     17694
     17685     17687     17691     17717     17687     17685     17682     17699
     17687     17691     17717     17719     17687     17691     17717     17720
     17687     17691     17717     17721     17689     17687     17691     17693
     17689     17687     17691     17694     17689     17687     17691     17717
     17691     17717     17721     17723     17691     17717     17721     17724
     17691     17717     17721     17725     17693     17691     17717     17719
     17693     17691     17717     17720     17693     17691     17717     17721
     17694     17691     17717     17719     17694     17691     17717     17720
     17694     17691     17717     17721     17699     17703     17705     17707
     17699     17703     17705     17709     17701     17699     17703     17705
     17702     17699     17703     17705     17703     17705     17709     17711
     17703     17705     17709     17712     17703     17705     17709     17780
     17705     17709     17780     17782     17705     17709     17780     17783
     17705     17709     17780     17784     17707     17705     17709     17711
     17707     17705     17709     17712     17707     17705     17709     17780
     17709     17780     17784     17786     17709     17780     17784     17787
     17709     17780     17784     17788     17711     17709     17780     17782
     17711     17709     17780     17783     17711     17709     17780     17784
     17712     17709     17780     17782     17712     17709     17780     17783
     17712     17709     17780     17784     17717     17721     17725     17727
     17717     17721     17725     17728     17717     17721     17725     17729
     17719     17717     17721     17723     17719     17717     17721     17724
     17719     17717     17721     17725     17720     17717     17721     17723
     17720     17717     17721     17724     17720     17717     17721     17725
     17721     17725     17729     17731     17721     17725     17729     17732
     17721     17725     17729     17733     17723     17721     17725     17727
     17723     17721     17725     17728     17723     17721     17725     17729
     17724     17721     17725     17727     17724     17721     17725     17728
     17724     17721     17725     17729     17725     17729     17733     17735
     17725     17729     17733     17736     17725     17729     17733     17737
     17727     17725     17729     17731     17727     17725     17729     17732
     17727     17725     17729     17733     17728     17725     17729     17731
     17728     17725     17729     17732     17728     17725     17729     17733
     17729     17733     17737     17739     17729     17733     17737     17740
     17729     17733     17737     17741     17731     17729     17733     17735
     17731     17729     17733     17736     17731     17729     17733     17737
     17732     17729     17733     17735     17732     17729     17733     17736
     17732     17729     17733     17737     17733     17737     17741     17743
     17733     17737     17741     17744     17735     17733     17737     17739
     17735     17733     17737     17740     17735     17733     17737     17741
     17736     17733     17737     17739     17736     17733     17737     17740
     17736     17733     17737     17741     17737     17741     17744     17746
     17737     17741     17744     17747     17739     17737     17741     17743
     17739     17737     17741     17744     17740     17737     17741     17743
     17740     17737     17741     17744     17741     17744     17747     17749
     17741     17744     17747     17750     17741     17744     17747     17751
     17743     17741     17744     17746     17743     17741     17744     17747
     17744     17747     17751     17753     17744     17747     17751     17754
     17744     17747     17751     17755     17746     17744     17747     17749
     17746     17744     17747     17750     17746     17744     17747     17751
     17747     17751     17755     17757     17747     17751     17755     17758
     17747     17751     17755     17759     17749     17747     17751     17753
     17749     17747     17751     17754     17749     17747     17751     17755
     17750     17747     17751     17753     17750     17747     17751     17754
     17750     17747     17751     17755     17751     17755     17759     17761
     17751     17755     17759     17762     17751     17755     17759     17763
     17753     17751     17755     17757     17753     17751     17755     17758
     17753     17751     17755     17759     17754     17751     17755     17757
     17754     17751     17755     17758     17754     17751     17755     17759
     17755     17759     17763     17765     17755     17759     17763     17766
     17755     17759     17763     17767     17757     17755     17759     17761
     17757     17755     17759     17762     17757     17755     17759     17763
     17758     17755     17759     17761     17758     17755     17759     17762
     17758     17755     17759     17763     17759     17763     17767     17769
     17759     17763     17767     17770     17759     17763     17767     17771
     17761     17759     17763     17765     17761     17759     17763     17766
     17761     17759     17763     17767     17762     17759     17763     17765
     17762     17759     17763     17766     17762     17759     17763     17767
     17763     17767     17771     17773     17763     17767     17771     17774
     17763     17767     17771     17775     17765     17763     17767     17769
     17765     17763     17767     17770     17765     17763     17767     17771
     17766     17763     17767     17769     17766     17763     17767     17770
     17766     17763     17767     17771     17767     17771     17775     17777
     17767     17771     17775     17778     17767     17771     17775     17779
     17769     17767     17771     17773     17769     17767     17771     17774
     17769     17767     17771     17775     17770     17767     17771     17773
     17770     17767     17771     17774     17770     17767     17771     17775
     17773     17771     17775     17777     17773     17771     17775     17778
     17773     17771     17775     17779     17774     17771     17775     17777
     17774     17771     17775     17778     17774     17771     17775     17779
     17780     17784     17788     17790     17780     17784     17788     17791
     17780     17784     17788     17792     17782     17780     17784     17786
     17782     17780     17784     17787     17782     17780     17784     17788
     17783     17780     17784     17786     17783     17780     17784     17787
     17783     17780     17784     17788     17784     17788     17792     17794
     17784     17788     17792     17795     17784     17788     17792     17796
     17786     17784     17788     17790     17786     17784     17788     17791
     17786     17784     17788     17792     17787     17784     17788     17790
     17787     17784     17788     17791     17787     17784     17788     17792
     17788     17792     17796     17798     17788     17792     17796     17799
     17788     17792     17796     17800     17790     17788     17792     17794
     17790     17788     17792     17795     17790     17788     17792     17796
     17791     17788     17792     17794     17791     17788     17792     17795
     17791     17788     17792     17796     17792     17796     17800     17802
     17792     17796     17800     17803     17792     17796     17800     17804
     17794     17792     17796     17798     17794     17792     17796     17799
     17794     17792     17796     17800     17795     17792     17796     17798
     17795     17792     17796     17799     17795     17792     17796     17800
     17796     17800     17804     17806     17796     17800     17804     17807
     17796     17800     17804     17808     17798     17796     17800     17802
     17798     17796     17800     17803     17798     17796     17800     17804
     17799     17796     17800     17802     17799     17796     17800     17803
     17799     17796     17800     17804     17800     17804     17808     17810
     17800     17804     17808     17811     17800     17804     17808     17812
     17802     17800     17804     17806     17802     17800     17804     17807
     17802     17800     17804     17808     17803     17800     17804     17806
     17803     17800     17804     17807     17803     17800     17804     17808
     17804     17808     17812     17814     17804     17808     17812     17815
     17804     17808     17812     17816     17806     17804     17808     17810
     17806     17804     17808     17811     17806     17804     17808     17812
     17807     17804     17808     17810     17807     17804     17808     17811
     17807     17804     17808     17812     17808     17812     17816     17818
     17808     17812     17816     17819     17808     17812     17816     17820
     17810     17808     17812     17814     17810     17808     17812     17815
     17810     17808     17812     17816     17811     17808     17812     17814
     17811     17808     17812     17815     17811     17808     17812     17816
     17812     17816     17820     17822     17812     17816     17820     17823
     17812     17816     17820     17824     17814     17812     17816     17818
     17814     17812     17816     17819     17814     17812     17816     17820
     17815     17812     17816     17818     17815     17812     17816     17819
     17815     17812     17816     17820     17816     17820     17824     17826
     17816     17820     17824     17827     17816     17820     17824     17828
     17818     17816     17820     17822     17818     17816     17820     17823
     17818     17816     17820     17824     17819     17816     17820     17822
     17819     17816     17820     17823     17819     17816     17820     17824
     17820     17824     17828     17830     17820     17824     17828     17831
     17820     17824     17828     17832     17822     17820     17824     17826
     17822     17820     17824     17827     17822     17820     17824     17828
     17823     17820     17824     17826     17823     17820     17824     17827
     17823     17820     17824     17828     17824     17828     17832     17834
     17824     17828     17832     17835     17824     17828     17832     17836
     17826     17824     17828     17830     17826     17824     17828     17831
     17826     17824     17828     17832     17827     17824     17828     17830
     17827     17824     17828     17831     17827     17824     17828     17832
     17830     17828     17832     17834     17830     17828     17832     17835
     17830     17828     17832     17836     17831     17828     17832     17834
     17831     17828     17832     17835     17831     17828     17832     17836
     17837     17842     17846     17848     17837     17842     17846     17849
     17837     17842     17846     17858     17839     17837     17842     17844
     17839     17837     17842     17845     17839     17837     17842     17846
     17840     17837     17842     17844     17840     17837     17842     17845
     17840     17837     17842     17846     17841     17837     17842     17844
     17841     17837     17842     17845     17841     17837     17842     17846
     17842     17846     17858     17850     17844     17842     17846     17848
     17844     17842     17846     17849     17844     17842     17846     17858
     17845     17842     17846     17848     17845     17842     17846     17849
     17845     17842     17846     17858     17846     17858     17850     17852
     17846     17858     17850     17854     17846     17858     17850     17856
     17848     17846     17858     17850     17849     17846     17858     17850
     17850     17856     17860     17862     17850     17856     17860     17863
     17850     17856     17860     17864     17852     17850     17856     17860
     17854     17850     17856     17860     17856     17860     17864     17866
     17856     17860     17864     17867     17856     17860     17864     17881
     17858     17850     17856     17860     17860     17864     17867     17869
     17860     17864     17881     17883     17860     17864     17881     17884
     17860     17864     17881     17885     17862     17860     17864     17866
     17862     17860     17864     17867     17862     17860     17864     17881
     17863     17860     17864     17866     17863     17860     17864     17867
     17863     17860     17864     17881     17864     17867     17869     17871
     17864     17867     17869     17873     17864     17881     17885     17887
     17866     17864     17867     17869     17866     17864     17881     17883
     17866     17864     17881     17884     17866     17864     17881     17885
     17867     17864     17881     17883     17867     17864     17881     17884
     17867     17864     17881     17885     17867     17869     17873     17875
     17867     17869     17873     17876     17867     17869     17873     17899
     17869     17867     17864     17881     17869     17873     17899     17901
     17869     17873     17899     17902     17869     17873     17899     17903
     17871     17869     17873     17875     17871     17869     17873     17876
     17871     17869     17873     17899     17873     17899     17903     17905
     17873     17899     17903     17906     17873     17899     17903     17907
     17875     17873     17899     17901     17875     17873     17899     17902
     17875     17873     17899     17903     17876     17873     17899     17901
     17876     17873     17899     17902     17876     17873     17899     17903
     17881     17885     17887     17889     17881     17885     17887     17891
     17883     17881     17885     17887     17884     17881     17885     17887
     17885     17887     17891     17893     17885     17887     17891     17894
     17885     17887     17891     17962     17887     17891     17962     17964
     17887     17891     17962     17965     17887     17891     17962     17966
     17889     17887     17891     17893     17889     17887     17891     17894
     17889     17887     17891     17962     17891     17962     17966     17968
     17891     17962     17966     17969     17891     17962     17966     17970
     17893     17891     17962     17964     17893     17891     17962     17965
     17893     17891     17962     17966     17894     17891     17962     17964
     17894     17891     17962     17965     17894     17891     17962     17966
     17899     17903     17907     17909     17899     17903     17907     17910
     17899     17903     17907     17911     17901     17899     17903     17905
     17901     17899     17903     17906     17901     17899     17903     17907
     17902     17899     17903     17905     17902     17899     17903     17906
     17902     17899     17903     17907     17903     17907     17911     17913
     17903     17907     17911     17914     17903     17907     17911     17915
     17905     17903     17907     17909     17905     17903     17907     17910
     17905     17903     17907     17911     17906     17903     17907     17909
     17906     17903     17907     17910     17906     17903     17907     17911
     17907     17911     17915     17917     17907     17911     17915     17918
     17907     17911     17915     17919     17909     17907     17911     17913
     17909     17907     17911     17914     17909     17907     17911     17915
     17910     17907     17911     17913     17910     17907     17911     17914
     17910     17907     17911     17915     17911     17915     17919     17921
     17911     17915     17919     17922     17911     17915     17919     17923
     17913     17911     17915     17917     17913     17911     17915     17918
     17913     17911     17915     17919     17914     17911     17915     17917
     17914     17911     17915     17918     17914     17911     17915     17919
     17915     17919     17923     17925     17915     17919     17923     17926
     17917     17915     17919     17921     17917     17915     17919     17922
     17917     17915     17919     17923     17918     17915     17919     17921
     17918     17915     17919     17922     17918     17915     17919     17923
     17919     17923     17926     17928     17919     17923     17926     17929
     17921     17919     17923     17925     17921     17919     17923     17926
     17922     17919     17923     17925     17922     17919     17923     17926
     17923     17926     17929     17931     17923     17926     17929     17932
     17923     17926     17929     17933     17925     17923     17926     17928
     17925     17923     17926     17929     17926     17929     17933     17935
     17926     17929     17933     17936     17926     17929     17933     17937
     17928     17926     17929     17931     17928     17926     17929     17932
     17928     17926     17929     17933     17929     17933     17937     17939
     17929     17933     17937     17940     17929     17933     17937     17941
     17931     17929     17933     17935     17931     17929     17933     17936
     17931     17929     17933     17937     17932     17929     17933     17935
     17932     17929     17933     17936     17932     17929     17933     17937
     17933     17937     17941     17943     17933     17937     17941     17944
     17933     17937     17941     17945     17935     17933     17937     17939
     17935     17933     17937     17940     17935     17933     17937     17941
     17936     17933     17937     17939     17936     17933     17937     17940
     17936     17933     17937     17941     17937     17941     17945     17947
     17937     17941     17945     17948     17937     17941     17945     17949
     17939     17937     17941     17943     17939     17937     17941     17944
     17939     17937     17941     17945     17940     17937     17941     17943
     17940     17937     17941     17944     17940     17937     17941     17945
     17941     17945     17949     17951     17941     17945     17949     17952
     17941     17945     17949     17953     17943     17941     17945     17947
     17943     17941     17945     17948     17943     17941     17945     17949
     17944     17941     17945     17947     17944     17941     17945     17948
     17944     17941     17945     17949     17945     17949     17953     17955
     17945     17949     17953     17956     17945     17949     17953     17957
     17947     17945     17949     17951     17947     17945     17949     17952
     17947     17945     17949     17953     17948     17945     17949     17951
     17948     17945     17949     17952     17948     17945     17949     17953
     17949     17953     17957     17959     17949     17953     17957     17960
     17949     17953     17957     17961     17951     17949     17953     17955
     17951     17949     17953     17956     17951     17949     17953     17957
     17952     17949     17953     17955     17952     17949     17953     17956
     17952     17949     17953     17957     17955     17953     17957     17959
     17955     17953     17957     17960     17955     17953     17957     17961
     17956     17953     17957     17959     17956     17953     17957     17960
     17956     17953     17957     17961     17962     17966     17970     17972
     17962     17966     17970     17973     17962     17966     17970     17974
     17964     17962     17966     17968     17964     17962     17966     17969
     17964     17962     17966     17970     17965     17962     17966     17968
     17965     17962     17966     17969     17965     17962     17966     17970
     17966     17970     17974     17976     17966     17970     17974     17977
     17966     17970     17974     17978     17968     17966     17970     17972
     17968     17966     17970     17973     17968     17966     17970     17974
     17969     17966     17970     17972     17969     17966     17970     17973
     17969     17966     17970     17974     17970     17974     17978     17980
     17970     17974     17978     17981     17970     17974     17978     17982
     17972     17970     17974     17976     17972     17970     17974     17977
     17972     17970     17974     17978     17973     17970     17974     17976
     17973     17970     17974     17977     17973     17970     17974     17978
     17974     17978     17982     17984     17974     17978     17982     17985
     17974     17978     17982     17986     17976     17974     17978     17980
     17976     17974     17978     17981     17976     17974     17978     17982
     17977     17974     17978     17980     17977     17974     17978     17981
     17977     17974     17978     17982     17978     17982     17986     17988
     17978     17982     17986     17989     17978     17982     17986     17990
     17980     17978     17982     17984     17980     17978     17982     17985
     17980     17978     17982     17986     17981     17978     17982     17984
     17981     17978     17982     17985     17981     17978     17982     17986
     17982     17986     17990     17992     17982     17986     17990     17993
     17982     17986     17990     17994     17984     17982     17986     17988
     17984     17982     17986     17989     17984     17982     17986     17990
     17985     17982     17986     17988     17985     17982     17986     17989
     17985     17982     17986     17990     17986     17990     17994     17996
     17986     17990     17994     17997     17986     17990     17994     17998
     17988     17986     17990     17992     17988     17986     17990     17993
     17988     17986     17990     17994     17989     17986     17990     17992
     17989     17986     17990     17993     17989     17986     17990     17994
     17990     17994     17998     18000     17990     17994     17998     18001
     17990     17994     17998     18002     17992     17990     17994     17996
     17992     17990     17994     17997     17992     17990     17994     17998
     17993     17990     17994     17996     17993     17990     17994     17997
     17993     17990     17994     17998     17994     17998     18002     18004
     17994     17998     18002     18005     17994     17998     18002     18006
     17996     17994     17998     18000     17996     17994     17998     18001
     17996     17994     17998     18002     17997     17994     17998     18000
     17997     17994     17998     18001     17997     17994     17998     18002
     17998     18002     18006     18008     17998     18002     18006     18009
     17998     18002     18006     18010     18000     17998     18002     18004
     18000     17998     18002     18005     18000     17998     18002     18006
     18001     17998     18002     18004     18001     17998     18002     18005
     18001     17998     18002     18006     18002     18006     18010     18012
     18002     18006     18010     18013     18002     18006     18010     18014
     18004     18002     18006     18008     18004     18002     18006     18009
     18004     18002     18006     18010     18005     18002     18006     18008
     18005     18002     18006     18009     18005     18002     18006     18010
     18006     18010     18014     18016     18006     18010     18014     18017
     18006     18010     18014     18018     18008     18006     18010     18012
     18008     18006     18010     18013     18008     18006     18010     18014
     18009     18006     18010     18012     18009     18006     18010     18013
     18009     18006     18010     18014     18012     18010     18014     18016
     18012     18010     18014     18017     18012     18010     18014     18018
     18013     18010     18014     18016     18013     18010     18014     18017
     18013     18010     18014     18018     18019     18024     18028     18030
     18019     18024     18028     18031     18019     18024     18028     18040
     18021     18019     18024     18026     18021     18019     18024     18027
     18021     18019     18024     18028     18022     18019     18024     18026
     18022     18019     18024     18027     18022     18019     18024     18028
     18023     18019     18024     18026     18023     18019     18024     18027
     18023     18019     18024     18028     18024     18028     18040     18032
     18026     18024     18028     18030     18026     18024     18028     18031
     18026     18024     18028     18040     18027     18024     18028     18030
     18027     18024     18028     18031     18027     18024     18028     18040
     18028     18040     18032     18034     18028     18040     18032     18036
     18028     18040     18032     18038     18030     18028     18040     18032
     18031     18028     18040     18032     18032     18038     18042     18044
     18032     18038     18042     18045     18032     18038     18042     18046
     18034     18032     18038     18042     18036     18032     18038     18042
     18038     18042     18046     18048     18038     18042     18046     18049
     18038     18042     18046     18063     18040     18032     18038     18042
     18042     18046     18049     18051     18042     18046     18063     18065
     18042     18046     18063     18066     18042     18046     18063     18067
     18044     18042     18046     18048     18044     18042     18046     18049
     18044     18042     18046     18063     18045     18042     18046     18048
     18045     18042     18046     18049     18045     18042     18046     18063
     18046     18049     18051     18053     18046     18049     18051     18055
     18046     18063     18067     18069     18048     18046     18049     18051
     18048     18046     18063     18065     18048     18046     18063     18066
     18048     18046     18063     18067     18049     18046     18063     18065
     18049     18046     18063     18066     18049     18046     18063     18067
     18049     18051     18055     18057     18049     18051     18055     18058
     18049     18051     18055     18081     18051     18049     18046     18063
     18051     18055     18081     18083     18051     18055     18081     18084
     18051     18055     18081     18085     18053     18051     18055     18057
     18053     18051     18055     18058     18053     18051     18055     18081
     18055     18081     18085     18087     18055     18081     18085     18088
     18055     18081     18085     18089     18057     18055     18081     18083
     18057     18055     18081     18084     18057     18055     18081     18085
     18058     18055     18081     18083     18058     18055     18081     18084
     18058     18055     18081     18085     18063     18067     18069     18071
     18063     18067     18069     18073     18065     18063     18067     18069
     18066     18063     18067     18069     18067     18069     18073     18075
     18067     18069     18073     18076     18067     18069     18073     18144
     18069     18073     18144     18146     18069     18073     18144     18147
     18069     18073     18144     18148     18071     18069     18073     18075
     18071     18069     18073     18076     18071     18069     18073     18144
     18073     18144     18148     18150     18073     18144     18148     18151
     18073     18144     18148     18152     18075     18073     18144     18146
     18075     18073     18144     18147     18075     18073     18144     18148
     18076     18073     18144     18146     18076     18073     18144     18147
     18076     18073     18144     18148     18081     18085     18089     18091
     18081     18085     18089     18092     18081     18085     18089     18093
     18083     18081     18085     18087     18083     18081     18085     18088
     18083     18081     18085     18089     18084     18081     18085     18087
     18084     18081     18085     18088     18084     18081     18085     18089
     18085     18089     18093     18095     18085     18089     18093     18096
     18085     18089     18093     18097     18087     18085     18089     18091
     18087     18085     18089     18092     18087     18085     18089     18093
     18088     18085     18089     18091     18088     18085     18089     18092
     18088     18085     18089     18093     18089     18093     18097     18099
     18089     18093     18097     18100     18089     18093     18097     18101
     18091     18089     18093     18095     18091     18089     18093     18096
     18091     18089     18093     18097     18092     18089     18093     18095
     18092     18089     18093     18096     18092     18089     18093     18097
     18093     18097     18101     18103     18093     18097     18101     18104
     18093     18097     18101     18105     18095     18093     18097     18099
     18095     18093     18097     18100     18095     18093     18097     18101
     18096     18093     18097     18099     18096     18093     18097     18100
     18096     18093     18097     18101     18097     18101     18105     18107
     18097     18101     18105     18108     18099     18097     18101     18103
     18099     18097     18101     18104     18099     18097     18101     18105
     18100     18097     18101     18103     18100     18097     18101     18104
     18100     18097     18101     18105     18101     18105     18108     18110
     18101     18105     18108     18111     18103     18101     18105     18107
     18103     18101     18105     18108     18104     18101     18105     18107
     18104     18101     18105     18108     18105     18108     18111     18113
     18105     18108     18111     18114     18105     18108     18111     18115
     18107     18105     18108     18110     18107     18105     18108     18111
     18108     18111     18115     18117     18108     18111     18115     18118
     18108     18111     18115     18119     18110     18108     18111     18113
     18110     18108     18111     18114     18110     18108     18111     18115
     18111     18115     18119     18121     18111     18115     18119     18122
     18111     18115     18119     18123     18113     18111     18115     18117
     18113     18111     18115     18118     18113     18111     18115     18119
     18114     18111     18115     18117     18114     18111     18115     18118
     18114     18111     18115     18119     18115     18119     18123     18125
     18115     18119     18123     18126     18115     18119     18123     18127
     18117     18115     18119     18121     18117     18115     18119     18122
     18117     18115     18119     18123     18118     18115     18119     18121
     18118     18115     18119     18122     18118     18115     18119     18123
     18119     18123     18127     18129     18119     18123     18127     18130
     18119     18123     18127     18131     18121     18119     18123     18125
     18121     18119     18123     18126     18121     18119     18123     18127
     18122     18119     18123     18125     18122     18119     18123     18126
     18122     18119     18123     18127     18123     18127     18131     18133
     18123     18127     18131     18134     18123     18127     18131     18135
     18125     18123     18127     18129     18125     18123     18127     18130
     18125     18123     18127     18131     18126     18123     18127     18129
     18126     18123     18127     18130     18126     18123     18127     18131
     18127     18131     18135     18137     18127     18131     18135     18138
     18127     18131     18135     18139     18129     18127     18131     18133
     18129     18127     18131     18134     18129     18127     18131     18135
     18130     18127     18131     18133     18130     18127     18131     18134
     18130     18127     18131     18135     18131     18135     18139     18141
     18131     18135     18139     18142     18131     18135     18139     18143
     18133     18131     18135     18137     18133     18131     18135     18138
     18133     18131     18135     18139     18134     18131     18135     18137
     18134     18131     18135     18138     18134     18131     18135     18139
     18137     18135     18139     18141     18137     18135     18139     18142
     18137     18135     18139     18143     18138     18135     18139     18141
     18138     18135     18139     18142     18138     18135     18139     18143
     18144     18148     18152     18154     18144     18148     18152     18155
     18144     18148     18152     18156     18146     18144     18148     18150
     18146     18144     18148     18151     18146     18144     18148     18152
     18147     18144     18148     18150     18147     18144     18148     18151
     18147     18144     18148     18152     18148     18152     18156     18158
     18148     18152     18156     18159     18148     18152     18156     18160
     18150     18148     18152     18154     18150     18148     18152     18155
     18150     18148     18152     18156     18151     18148     18152     18154
     18151     18148     18152     18155     18151     18148     18152     18156
     18152     18156     18160     18162     18152     18156     18160     18163
     18152     18156     18160     18164     18154     18152     18156     18158
     18154     18152     18156     18159     18154     18152     18156     18160
     18155     18152     18156     18158     18155     18152     18156     18159
     18155     18152     18156     18160     18156     18160     18164     18166
     18156     18160     18164     18167     18156     18160     18164     18168
     18158     18156     18160     18162     18158     18156     18160     18163
     18158     18156     18160     18164     18159     18156     18160     18162
     18159     18156     18160     18163     18159     18156     18160     18164
     18160     18164     18168     18170     18160     18164     18168     18171
     18160     18164     18168     18172     18162     18160     18164     18166
     18162     18160     18164     18167     18162     18160     18164     18168
     18163     18160     18164     18166     18163     18160     18164     18167
     18163     18160     18164     18168     18164     18168     18172     18174
     18164     18168     18172     18175     18164     18168     18172     18176
     18166     18164     18168     18170     18166     18164     18168     18171
     18166     18164     18168     18172     18167     18164     18168     18170
     18167     18164     18168     18171     18167     18164     18168     18172
     18168     18172     18176     18178     18168     18172     18176     18179
     18168     18172     18176     18180     18170     18168     18172     18174
     18170     18168     18172     18175     18170     18168     18172     18176
     18171     18168     18172     18174     18171     18168     18172     18175
     18171     18168     18172     18176     18172     18176     18180     18182
     18172     18176     18180     18183     18172     18176     18180     18184
     18174     18172     18176     18178     18174     18172     18176     18179
     18174     18172     18176     18180     18175     18172     18176     18178
     18175     18172     18176     18179     18175     18172     18176     18180
     18176     18180     18184     18186     18176     18180     18184     18187
     18176     18180     18184     18188     18178     18176     18180     18182
     18178     18176     18180     18183     18178     18176     18180     18184
     18179     18176     18180     18182     18179     18176     18180     18183
     18179     18176     18180     18184     18180     18184     18188     18190
     18180     18184     18188     18191     18180     18184     18188     18192
     18182     18180     18184     18186     18182     18180     18184     18187
     18182     18180     18184     18188     18183     18180     18184     18186
     18183     18180     18184     18187     18183     18180     18184     18188
     18184     18188     18192     18194     18184     18188     18192     18195
     18184     18188     18192     18196     18186     18184     18188     18190
     18186     18184     18188     18191     18186     18184     18188     18192
     18187     18184     18188     18190     18187     18184     18188     18191
     18187     18184     18188     18192     18188     18192     18196     18198
     18188     18192     18196     18199     18188     18192     18196     18200
     18190     18188     18192     18194     18190     18188     18192     18195
     18190     18188     18192     18196     18191     18188     18192     18194
     18191     18188     18192     18195     18191     18188     18192     18196
     18194     18192     18196     18198     18194     18192     18196     18199
     18194     18192     18196     18200     18195     18192     18196     18198
     18195     18192     18196     18199     18195     18192     18196     18200
     18201     18206     18210     18212     18201     18206     18210     18213
     18201     18206     18210     18222     18203     18201     18206     18208
     18203     18201     18206     18209     18203     18201     18206     18210
     18204     18201     18206     18208     18204     18201     18206     18209
     18204     18201     18206     18210     18205     18201     18206     18208
     18205     18201     18206     18209     18205     18201     18206     18210
     18206     18210     18222     18214     18208     18206     18210     18212
     18208     18206     18210     18213     18208     18206     18210     18222
     18209     18206     18210     18212     18209     18206     18210     18213
     18209     18206     18210     18222     18210     18222     18214     18216
     18210     18222     18214     18218     18210     18222     18214     18220
     18212     18210     18222     18214     18213     18210     18222     18214
     18214     18220     18224     18226     18214     18220     18224     18227
     18214     18220     18224     18228     18216     18214     18220     18224
     18218     18214     18220     18224     18220     18224     18228     18230
     18220     18224     18228     18231     18220     18224     18228     18245
     18222     18214     18220     18224     18224     18228     18231     18233
     18224     18228     18245     18247     18224     18228     18245     18248
     18224     18228     18245     18249     18226     18224     18228     18230
     18226     18224     18228     18231     18226     18224     18228     18245
     18227     18224     18228     18230     18227     18224     18228     18231
     18227     18224     18228     18245     18228     18231     18233     18235
     18228     18231     18233     18237     18228     18245     18249     18251
     18230     18228     18231     18233     18230     18228     18245     18247
     18230     18228     18245     18248     18230     18228     18245     18249
     18231     18228     18245     18247     18231     18228     18245     18248
     18231     18228     18245     18249     18231     18233     18237     18239
     18231     18233     18237     18240     18231     18233     18237     18263
     18233     18231     18228     18245     18233     18237     18263     18265
     18233     18237     18263     18266     18233     18237     18263     18267
     18235     18233     18237     18239     18235     18233     18237     18240
     18235     18233     18237     18263     18237     18263     18267     18269
     18237     18263     18267     18270     18237     18263     18267     18271
     18239     18237     18263     18265     18239     18237     18263     18266
     18239     18237     18263     18267     18240     18237     18263     18265
     18240     18237     18263     18266     18240     18237     18263     18267
     18245     18249     18251     18253     18245     18249     18251     18255
     18247     18245     18249     18251     18248     18245     18249     18251
     18249     18251     18255     18257     18249     18251     18255     18258
     18249     18251     18255     18326     18251     18255     18326     18328
     18251     18255     18326     18329     18251     18255     18326     18330
     18253     18251     18255     18257     18253     18251     18255     18258
     18253     18251     18255     18326     18255     18326     18330     18332
     18255     18326     18330     18333     18255     18326     18330     18334
     18257     18255     18326     18328     18257     18255     18326     18329
     18257     18255     18326     18330     18258     18255     18326     18328
     18258     18255     18326     18329     18258     18255     18326     18330
     18263     18267     18271     18273     18263     18267     18271     18274
     18263     18267     18271     18275     18265     18263     18267     18269
     18265     18263     18267     18270     18265     18263     18267     18271
     18266     18263     18267     18269     18266     18263     18267     18270
     18266     18263     18267     18271     18267     18271     18275     18277
     18267     18271     18275     18278     18267     18271     18275     18279
     18269     18267     18271     18273     18269     18267     18271     18274
     18269     18267     18271     18275     18270     18267     18271     18273
     18270     18267     18271     18274     18270     18267     18271     18275
     18271     18275     18279     18281     18271     18275     18279     18282
     18271     18275     18279     18283     18273     18271     18275     18277
     18273     18271     18275     18278     18273     18271     18275     18279
     18274     18271     18275     18277     18274     18271     18275     18278
     18274     18271     18275     18279     18275     18279     18283     18285
     18275     18279     18283     18286     18275     18279     18283     18287
     18277     18275     18279     18281     18277     18275     18279     18282
     18277     18275     18279     18283     18278     18275     18279     18281
     18278     18275     18279     18282     18278     18275     18279     18283
     18279     18283     18287     18289     18279     18283     18287     18290
     18281     18279     18283     18285     18281     18279     18283     18286
     18281     18279     18283     18287     18282     18279     18283     18285
     18282     18279     18283     18286     18282     18279     18283     18287
     18283     18287     18290     18292     18283     18287     18290     18293
     18285     18283     18287     18289     18285     18283     18287     18290
     18286     18283     18287     18289     18286     18283     18287     18290
     18287     18290     18293     18295     18287     18290     18293     18296
     18287     18290     18293     18297     18289     18287     18290     18292
     18289     18287     18290     18293     18290     18293     18297     18299
     18290     18293     18297     18300     18290     18293     18297     18301
     18292     18290     18293     18295     18292     18290     18293     18296
     18292     18290     18293     18297     18293     18297     18301     18303
     18293     18297     18301     18304     18293     18297     18301     18305
     18295     18293     18297     18299     18295     18293     18297     18300
     18295     18293     18297     18301     18296     18293     18297     18299
     18296     18293     18297     18300     18296     18293     18297     18301
     18297     18301     18305     18307     18297     18301     18305     18308
     18297     18301     18305     18309     18299     18297     18301     18303
     18299     18297     18301     18304     18299     18297     18301     18305
     18300     18297     18301     18303     18300     18297     18301     18304
     18300     18297     18301     18305     18301     18305     18309     18311
     18301     18305     18309     18312     18301     18305     18309     18313
     18303     18301     18305     18307     18303     18301     18305     18308
     18303     18301     18305     18309     18304     18301     18305     18307
     18304     18301     18305     18308     18304     18301     18305     18309
     18305     18309     18313     18315     18305     18309     18313     18316
     18305     18309     18313     18317     18307     18305     18309     18311
     18307     18305     18309     18312     18307     18305     18309     18313
     18308     18305     18309     18311     18308     18305     18309     18312
     18308     18305     18309     18313     18309     18313     18317     18319
     18309     18313     18317     18320     18309     18313     18317     18321
     18311     18309     18313     18315     18311     18309     18313     18316
     18311     18309     18313     18317     18312     18309     18313     18315
     18312     18309     18313     18316     18312     18309     18313     18317
     18313     18317     18321     18323     18313     18317     18321     18324
     18313     18317     18321     18325     18315     18313     18317     18319
     18315     18313     18317     18320     18315     18313     18317     18321
     18316     18313     18317     18319     18316     18313     18317     18320
     18316     18313     18317     18321     18319     18317     18321     18323
     18319     18317     18321     18324     18319     18317     18321     18325
     18320     18317     18321     18323     18320     18317     18321     18324
     18320     18317     18321     18325     18326     18330     18334     18336
     18326     18330     18334     18337     18326     18330     18334     18338
     18328     18326     18330     18332     18328     18326     18330     18333
     18328     18326     18330     18334     18329     18326     18330     18332
     18329     18326     18330     18333     18329     18326     18330     18334
     18330     18334     18338     18340     18330     18334     18338     18341
     18330     18334     18338     18342     18332     18330     18334     18336
     18332     18330     18334     18337     18332     18330     18334     18338
     18333     18330     18334     18336     18333     18330     18334     18337
     18333     18330     18334     18338     18334     18338     18342     18344
     18334     18338     18342     18345     18334     18338     18342     18346
     18336     18334     18338     18340     18336     18334     18338     18341
     18336     18334     18338     18342     18337     18334     18338     18340
     18337     18334     18338     18341     18337     18334     18338     18342
     18338     18342     18346     18348     18338     18342     18346     18349
     18338     18342     18346     18350     18340     18338     18342     18344
     18340     18338     18342     18345     18340     18338     18342     18346
     18341     18338     18342     18344     18341     18338     18342     18345
     18341     18338     18342     18346     18342     18346     18350     18352
     18342     18346     18350     18353     18342     18346     18350     18354
     18344     18342     18346     18348     18344     18342     18346     18349
     18344     18342     18346     18350     18345     18342     18346     18348
     18345     18342     18346     18349     18345     18342     18346     18350
     18346     18350     18354     18356     18346     18350     18354     18357
     18346     18350     18354     18358     18348     18346     18350     18352
     18348     18346     18350     18353     18348     18346     18350     18354
     18349     18346     18350     18352     18349     18346     18350     18353
     18349     18346     18350     18354     18350     18354     18358     18360
     18350     18354     18358     18361     18350     18354     18358     18362
     18352     18350     18354     18356     18352     18350     18354     18357
     18352     18350     18354     18358     18353     18350     18354     18356
     18353     18350     18354     18357     18353     18350     18354     18358
     18354     18358     18362     18364     18354     18358     18362     18365
     18354     18358     18362     18366     18356     18354     18358     18360
     18356     18354     18358     18361     18356     18354     18358     18362
     18357     18354     18358     18360     18357     18354     18358     18361
     18357     18354     18358     18362     18358     18362     18366     18368
     18358     18362     18366     18369     18358     18362     18366     18370
     18360     18358     18362     18364     18360     18358     18362     18365
     18360     18358     18362     18366     18361     18358     18362     18364
     18361     18358     18362     18365     18361     18358     18362     18366
     18362     18366     18370     18372     18362     18366     18370     18373
     18362     18366     18370     18374     18364     18362     18366     18368
     18364     18362     18366     18369     18364     18362     18366     18370
     18365     18362     18366     18368     18365     18362     18366     18369
     18365     18362     18366     18370     18366     18370     18374     18376
     18366     18370     18374     18377     18366     18370     18374     18378
     18368     18366     18370     18372     18368     18366     18370     18373
     18368     18366     18370     18374     18369     18366     18370     18372
     18369     18366     18370     18373     18369     18366     18370     18374
     18370     18374     18378     18380     18370     18374     18378     18381
     18370     18374     18378     18382     18372     18370     18374     18376
     18372     18370     18374     18377     18372     18370     18374     18378
     18373     18370     18374     18376     18373     18370     18374     18377
     18373     18370     18374     18378     18376     18374     18378     18380
     18376     18374     18378     18381     18376     18374     18378     18382
     18377     18374     18378     18380     18377     18374     18378     18381
     18377     18374     18378     18382     18383     18388     18392     18394
     18383     18388     18392     18395     18383     18388     18392     18404
     18385     18383     18388     18390     18385     18383     18388     18391
     18385     18383     18388     18392     18386     18383     18388     18390
     18386     18383     18388     18391     18386     18383     18388     18392
     18387     18383     18388     18390     18387     18383     18388     18391
     18387     18383     18388     18392     18388     18392     18404     18396
     18390     18388     18392     18394     18390     18388     18392     18395
     18390     18388     18392     18404     18391     18388     18392     18394
     18391     18388     18392     18395     18391     18388     18392     18404
     18392     18404     18396     18398     18392     18404     18396     18400
     18392     18404     18396     18402     18394     18392     18404     18396
     18395     18392     18404     18396     18396     18402     18406     18408
     18396     18402     18406     18409     18396     18402     18406     18410
     18398     18396     18402     18406     18400     18396     18402     18406
     18402     18406     18410     18412     18402     18406     18410     18413
     18402     18406     18410     18427     18404     18396     18402     18406
     18406     18410     18413     18415     18406     18410     18427     18429
     18406     18410     18427     18430     18406     18410     18427     18431
     18408     18406     18410     18412     18408     18406     18410     18413
     18408     18406     18410     18427     18409     18406     18410     18412
     18409     18406     18410     18413     18409     18406     18410     18427
     18410     18413     18415     18417     18410     18413     18415     18419
     18410     18427     18431     18433     18412     18410     18413     18415
     18412     18410     18427     18429     18412     18410     18427     18430
     18412     18410     18427     18431     18413     18410     18427     18429
     18413     18410     18427     18430     18413     18410     18427     18431
     18413     18415     18419     18421     18413     18415     18419     18422
     18413     18415     18419     18445     18415     18413     18410     18427
     18415     18419     18445     18447     18415     18419     18445     18448
     18415     18419     18445     18449     18417     18415     18419     18421
     18417     18415     18419     18422     18417     18415     18419     18445
     18419     18445     18449     18451     18419     18445     18449     18452
     18419     18445     18449     18453     18421     18419     18445     18447
     18421     18419     18445     18448     18421     18419     18445     18449
     18422     18419     18445     18447     18422     18419     18445     18448
     18422     18419     18445     18449     18427     18431     18433     18435
     18427     18431     18433     18437     18429     18427     18431     18433
     18430     18427     18431     18433     18431     18433     18437     18439
     18431     18433     18437     18440     18431     18433     18437     18508
     18433     18437     18508     18510     18433     18437     18508     18511
     18433     18437     18508     18512     18435     18433     18437     18439
     18435     18433     18437     18440     18435     18433     18437     18508
     18437     18508     18512     18514     18437     18508     18512     18515
     18437     18508     18512     18516     18439     18437     18508     18510
     18439     18437     18508     18511     18439     18437     18508     18512
     18440     18437     18508     18510     18440     18437     18508     18511
     18440     18437     18508     18512     18445     18449     18453     18455
     18445     18449     18453     18456     18445     18449     18453     18457
     18447     18445     18449     18451     18447     18445     18449     18452
     18447     18445     18449     18453     18448     18445     18449     18451
     18448     18445     18449     18452     18448     18445     18449     18453
     18449     18453     18457     18459     18449     18453     18457     18460
     18449     18453     18457     18461     18451     18449     18453     18455
     18451     18449     18453     18456     18451     18449     18453     18457
     18452     18449     18453     18455     18452     18449     18453     18456
     18452     18449     18453     18457     18453     18457     18461     18463
     18453     18457     18461     18464     18453     18457     18461     18465
     18455     18453     18457     18459     18455     18453     18457     18460
     18455     18453     18457     18461     18456     18453     18457     18459
     18456     18453     18457     18460     18456     18453     18457     18461
     18457     18461     18465     18467     18457     18461     18465     18468
     18457     18461     18465     18469     18459     18457     18461     18463
     18459     18457     18461     18464     18459     18457     18461     18465
     18460     18457     18461     18463     18460     18457     18461     18464
     18460     18457     18461     18465     18461     18465     18469     18471
     18461     18465     18469     18472     18463     18461     18465     18467
     18463     18461     18465     18468     18463     18461     18465     18469
     18464     18461     18465     18467     18464     18461     18465     18468
     18464     18461     18465     18469     18465     18469     18472     18474
     18465     18469     18472     18475     18467     18465     18469     18471
     18467     18465     18469     18472     18468     18465     18469     18471
     18468     18465     18469     18472     18469     18472     18475     18477
     18469     18472     18475     18478     18469     18472     18475     18479
     18471     18469     18472     18474     18471     18469     18472     18475
     18472     18475     18479     18481     18472     18475     18479     18482
     18472     18475     18479     18483     18474     18472     18475     18477
     18474     18472     18475     18478     18474     18472     18475     18479
     18475     18479     18483     18485     18475     18479     18483     18486
     18475     18479     18483     18487     18477     18475     18479     18481
     18477     18475     18479     18482     18477     18475     18479     18483
     18478     18475     18479     18481     18478     18475     18479     18482
     18478     18475     18479     18483     18479     18483     18487     18489
     18479     18483     18487     18490     18479     18483     18487     18491
     18481     18479     18483     18485     18481     18479     18483     18486
     18481     18479     18483     18487     18482     18479     18483     18485
     18482     18479     18483     18486     18482     18479     18483     18487
     18483     18487     18491     18493     18483     18487     18491     18494
     18483     18487     18491     18495     18485     18483     18487     18489
     18485     18483     18487     18490     18485     18483     18487     18491
     18486     18483     18487     18489     18486     18483     18487     18490
     18486     18483     18487     18491     18487     18491     18495     18497
     18487     18491     18495     18498     18487     18491     18495     18499
     18489     18487     18491     18493     18489     18487     18491     18494
     18489     18487     18491     18495     18490     18487     18491     18493
     18490     18487     18491     18494     18490     18487     18491     18495
     18491     18495     18499     18501     18491     18495     18499     18502
     18491     18495     18499     18503     18493     18491     18495     18497
     18493     18491     18495     18498     18493     18491     18495     18499
     18494     18491     18495     18497     18494     18491     18495     18498
     18494     18491     18495     18499     18495     18499     18503     18505
     18495     18499     18503     18506     18495     18499     18503     18507
     18497     18495     18499     18501     18497     18495     18499     18502
     18497     18495     18499     18503     18498     18495     18499     18501
     18498     18495     18499     18502     18498     18495     18499     18503
     18501     18499     18503     18505     18501     18499     18503     18506
     18501     18499     18503     18507     18502     18499     18503     18505
     18502     18499     18503     18506     18502     18499     18503     18507
     18508     18512     18516     18518     18508     18512     18516     18519
     18508     18512     18516     18520     18510     18508     18512     18514
     18510     18508     18512     18515     18510     18508     18512     18516
     18511     18508     18512     18514     18511     18508     18512     18515
     18511     18508     18512     18516     18512     18516     18520     18522
     18512     18516     18520     18523     18512     18516     18520     18524
     18514     18512     18516     18518     18514     18512     18516     18519
     18514     18512     18516     18520     18515     18512     18516     18518
     18515     18512     18516     18519     18515     18512     18516     18520
     18516     18520     18524     18526     18516     18520     18524     18527
     18516     18520     18524     18528     18518     18516     18520     18522
     18518     18516     18520     18523     18518     18516     18520     18524
     18519     18516     18520     18522     18519     18516     18520     18523
     18519     18516     18520     18524     18520     18524     18528     18530
     18520     18524     18528     18531     18520     18524     18528     18532
     18522     18520     18524     18526     18522     18520     18524     18527
     18522     18520     18524     18528     18523     18520     18524     18526
     18523     18520     18524     18527     18523     18520     18524     18528
     18524     18528     18532     18534     18524     18528     18532     18535
     18524     18528     18532     18536     18526     18524     18528     18530
     18526     18524     18528     18531     18526     18524     18528     18532
     18527     18524     18528     18530     18527     18524     18528     18531
     18527     18524     18528     18532     18528     18532     18536     18538
     18528     18532     18536     18539     18528     18532     18536     18540
     18530     18528     18532     18534     18530     18528     18532     18535
     18530     18528     18532     18536     18531     18528     18532     18534
     18531     18528     18532     18535     18531     18528     18532     18536
     18532     18536     18540     18542     18532     18536     18540     18543
     18532     18536     18540     18544     18534     18532     18536     18538
     18534     18532     18536     18539     18534     18532     18536     18540
     18535     18532     18536     18538     18535     18532     18536     18539
     18535     18532     18536     18540     18536     18540     18544     18546
     18536     18540     18544     18547     18536     18540     18544     18548
     18538     18536     18540     18542     18538     18536     18540     18543
     18538     18536     18540     18544     18539     18536     18540     18542
     18539     18536     18540     18543     18539     18536     18540     18544
     18540     18544     18548     18550     18540     18544     18548     18551
     18540     18544     18548     18552     18542     18540     18544     18546
     18542     18540     18544     18547     18542     18540     18544     18548
     18543     18540     18544     18546     18543     18540     18544     18547
     18543     18540     18544     18548     18544     18548     18552     18554
     18544     18548     18552     18555     18544     18548     18552     18556
     18546     18544     18548     18550     18546     18544     18548     18551
     18546     18544     18548     18552     18547     18544     18548     18550
     18547     18544     18548     18551     18547     18544     18548     18552
     18548     18552     18556     18558     18548     18552     18556     18559
     18548     18552     18556     18560     18550     18548     18552     18554
     18550     18548     18552     18555     18550     18548     18552     18556
     18551     18548     18552     18554     18551     18548     18552     18555
     18551     18548     18552     18556     18552     18556     18560     18562
     18552     18556     18560     18563     18552     18556     18560     18564
     18554     18552     18556     18558     18554     18552     18556     18559
     18554     18552     18556     18560     18555     18552     18556     18558
     18555     18552     18556     18559     18555     18552     18556     18560
     18558     18556     18560     18562     18558     18556     18560     18563
     18558     18556     18560     18564     18559     18556     18560     18562
     18559     18556     18560     18563     18559     18556     18560     18564
     18565     18570     18574     18576     18565     18570     18574     18577
     18565     18570     18574     18586     18567     18565     18570     18572
     18567     18565     18570     18573     18567     18565     18570     18574
     18568     18565     18570     18572     18568     18565     18570     18573
     18568     18565     18570     18574     18569     18565     18570     18572
     18569     18565     18570     18573     18569     18565     18570     18574
     18570     18574     18586     18578     18572     18570     18574     18576
     18572     18570     18574     18577     18572     18570     18574     18586
     18573     18570     18574     18576     18573     18570     18574     18577
     18573     18570     18574     18586     18574     18586     18578     18580
     18574     18586     18578     18582     18574     18586     18578     18584
     18576     18574     18586     18578     18577     18574     18586     18578
     18578     18584     18588     18590     18578     18584     18588     18591
     18578     18584     18588     18592     18580     18578     18584     18588
     18582     18578     18584     18588     18584     18588     18592     18594
     18584     18588     18592     18595     18584     18588     18592     18609
     18586     18578     18584     18588     18588     18592     18595     18597
     18588     18592     18609     18611     18588     18592     18609     18612
     18588     18592     18609     18613     18590     18588     18592     18594
     18590     18588     18592     18595     18590     18588     18592     18609
     18591     18588     18592     18594     18591     18588     18592     18595
     18591     18588     18592     18609     18592     18595     18597     18599
     18592     18595     18597     18601     18592     18609     18613     18615
     18594     18592     18595     18597     18594     18592     18609     18611
     18594     18592     18609     18612     18594     18592     18609     18613
     18595     18592     18609     18611     18595     18592     18609     18612
     18595     18592     18609     18613     18595     18597     18601     18603
     18595     18597     18601     18604     18595     18597     18601     18627
     18597     18595     18592     18609     18597     18601     18627     18629
     18597     18601     18627     18630     18597     18601     18627     18631
     18599     18597     18601     18603     18599     18597     18601     18604
     18599     18597     18601     18627     18601     18627     18631     18633
     18601     18627     18631     18634     18601     18627     18631     18635
     18603     18601     18627     18629     18603     18601     18627     18630
     18603     18601     18627     18631     18604     18601     18627     18629
     18604     18601     18627     18630     18604     18601     18627     18631
     18609     18613     18615     18617     18609     18613     18615     18619
     18611     18609     18613     18615     18612     18609     18613     18615
     18613     18615     18619     18621     18613     18615     18619     18622
     18613     18615     18619     18690     18615     18619     18690     18692
     18615     18619     18690     18693     18615     18619     18690     18694
     18617     18615     18619     18621     18617     18615     18619     18622
     18617     18615     18619     18690     18619     18690     18694     18696
     18619     18690     18694     18697     18619     18690     18694     18698
     18621     18619     18690     18692     18621     18619     18690     18693
     18621     18619     18690     18694     18622     18619     18690     18692
     18622     18619     18690     18693     18622     18619     18690     18694
     18627     18631     18635     18637     18627     18631     18635     18638
     18627     18631     18635     18639     18629     18627     18631     18633
     18629     18627     18631     18634     18629     18627     18631     18635
     18630     18627     18631     18633     18630     18627     18631     18634
     18630     18627     18631     18635     18631     18635     18639     18641
     18631     18635     18639     18642     18631     18635     18639     18643
     18633     18631     18635     18637     18633     18631     18635     18638
     18633     18631     18635     18639     18634     18631     18635     18637
     18634     18631     18635     18638     18634     18631     18635     18639
     18635     18639     18643     18645     18635     18639     18643     18646
     18635     18639     18643     18647     18637     18635     18639     18641
     18637     18635     18639     18642     18637     18635     18639     18643
     18638     18635     18639     18641     18638     18635     18639     18642
     18638     18635     18639     18643     18639     18643     18647     18649
     18639     18643     18647     18650     18639     18643     18647     18651
     18641     18639     18643     18645     18641     18639     18643     18646
     18641     18639     18643     18647     18642     18639     18643     18645
     18642     18639     18643     18646     18642     18639     18643     18647
     18643     18647     18651     18653     18643     18647     18651     18654
     18645     18643     18647     18649     18645     18643     18647     18650
     18645     18643     18647     18651     18646     18643     18647     18649
     18646     18643     18647     18650     18646     18643     18647     18651
     18647     18651     18654     18656     18647     18651     18654     18657
     18649     18647     18651     18653     18649     18647     18651     18654
     18650     18647     18651     18653     18650     18647     18651     18654
     18651     18654     18657     18659     18651     18654     18657     18660
     18651     18654     18657     18661     18653     18651     18654     18656
     18653     18651     18654     18657     18654     18657     18661     18663
     18654     18657     18661     18664     18654     18657     18661     18665
     18656     18654     18657     18659     18656     18654     18657     18660
     18656     18654     18657     18661     18657     18661     18665     18667
     18657     18661     18665     18668     18657     18661     18665     18669
     18659     18657     18661     18663     18659     18657     18661     18664
     18659     18657     18661     18665     18660     18657     18661     18663
     18660     18657     18661     18664     18660     18657     18661     18665
     18661     18665     18669     18671     18661     18665     18669     18672
     18661     18665     18669     18673     18663     18661     18665     18667
     18663     18661     18665     18668     18663     18661     18665     18669
     18664     18661     18665     18667     18664     18661     18665     18668
     18664     18661     18665     18669     18665     18669     18673     18675
     18665     18669     18673     18676     18665     18669     18673     18677
     18667     18665     18669     18671     18667     18665     18669     18672
     18667     18665     18669     18673     18668     18665     18669     18671
     18668     18665     18669     18672     18668     18665     18669     18673
     18669     18673     18677     18679     18669     18673     18677     18680
     18669     18673     18677     18681     18671     18669     18673     18675
     18671     18669     18673     18676     18671     18669     18673     18677
     18672     18669     18673     18675     18672     18669     18673     18676
     18672     18669     18673     18677     18673     18677     18681     18683
     18673     18677     18681     18684     18673     18677     18681     18685
     18675     18673     18677     18679     18675     18673     18677     18680
     18675     18673     18677     18681     18676     18673     18677     18679
     18676     18673     18677     18680     18676     18673     18677     18681
     18677     18681     18685     18687     18677     18681     18685     18688
     18677     18681     18685     18689     18679     18677     18681     18683
     18679     18677     18681     18684     18679     18677     18681     18685
     18680     18677     18681     18683     18680     18677     18681     18684
     18680     18677     18681     18685     18683     18681     18685     18687
     18683     18681     18685     18688     18683     18681     18685     18689
     18684     18681     18685     18687     18684     18681     18685     18688
     18684     18681     18685     18689     18690     18694     18698     18700
     18690     18694     18698     18701     18690     18694     18698     18702
     18692     18690     18694     18696     18692     18690     18694     18697
     18692     18690     18694     18698     18693     18690     18694     18696
     18693     18690     18694     18697     18693     18690     18694     18698
     18694     18698     18702     18704     18694     18698     18702     18705
     18694     18698     18702     18706     18696     18694     18698     18700
     18696     18694     18698     18701     18696     18694     18698     18702
     18697     18694     18698     18700     18697     18694     18698     18701
     18697     18694     18698     18702     18698     18702     18706     18708
     18698     18702     18706     18709     18698     18702     18706     18710
     18700     18698     18702     18704     18700     18698     18702     18705
     18700     18698     18702     18706     18701     18698     18702     18704
     18701     18698     18702     18705     18701     18698     18702     18706
     18702     18706     18710     18712     18702     18706     18710     18713
     18702     18706     18710     18714     18704     18702     18706     18708
     18704     18702     18706     18709     18704     18702     18706     18710
     18705     18702     18706     18708     18705     18702     18706     18709
     18705     18702     18706     18710     18706     18710     18714     18716
     18706     18710     18714     18717     18706     18710     18714     18718
     18708     18706     18710     18712     18708     18706     18710     18713
     18708     18706     18710     18714     18709     18706     18710     18712
     18709     18706     18710     18713     18709     18706     18710     18714
     18710     18714     18718     18720     18710     18714     18718     18721
     18710     18714     18718     18722     18712     18710     18714     18716
     18712     18710     18714     18717     18712     18710     18714     18718
     18713     18710     18714     18716     18713     18710     18714     18717
     18713     18710     18714     18718     18714     18718     18722     18724
     18714     18718     18722     18725     18714     18718     18722     18726
     18716     18714     18718     18720     18716     18714     18718     18721
     18716     18714     18718     18722     18717     18714     18718     18720
     18717     18714     18718     18721     18717     18714     18718     18722
     18718     18722     18726     18728     18718     18722     18726     18729
     18718     18722     18726     18730     18720     18718     18722     18724
     18720     18718     18722     18725     18720     18718     18722     18726
     18721     18718     18722     18724     18721     18718     18722     18725
     18721     18718     18722     18726     18722     18726     18730     18732
     18722     18726     18730     18733     18722     18726     18730     18734
     18724     18722     18726     18728     18724     18722     18726     18729
     18724     18722     18726     18730     18725     18722     18726     18728
     18725     18722     18726     18729     18725     18722     18726     18730
     18726     18730     18734     18736     18726     18730     18734     18737
     18726     18730     18734     18738     18728     18726     18730     18732
     18728     18726     18730     18733     18728     18726     18730     18734
     18729     18726     18730     18732     18729     18726     18730     18733
     18729     18726     18730     18734     18730     18734     18738     18740
     18730     18734     18738     18741     18730     18734     18738     18742
     18732     18730     18734     18736     18732     18730     18734     18737
     18732     18730     18734     18738     18733     18730     18734     18736
     18733     18730     18734     18737     18733     18730     18734     18738
     18734     18738     18742     18744     18734     18738     18742     18745
     18734     18738     18742     18746     18736     18734     18738     18740
     18736     18734     18738     18741     18736     18734     18738     18742
     18737     18734     18738     18740     18737     18734     18738     18741
     18737     18734     18738     18742     18740     18738     18742     18744
     18740     18738     18742     18745     18740     18738     18742     18746
     18741     18738     18742     18744     18741     18738     18742     18745
     18741     18738     18742     18746     18747     18752     18756     18758
     18747     18752     18756     18759     18747     18752     18756     18768
     18749     18747     18752     18754     18749     18747     18752     18755
     18749     18747     18752     18756     18750     18747     18752     18754
     18750     18747     18752     18755     18750     18747     18752     18756
     18751     18747     18752     18754     18751     18747     18752     18755
     18751     18747     18752     18756     18752     18756     18768     18760
     18754     18752     18756     18758     18754     18752     18756     18759
     18754     18752     18756     18768     18755     18752     18756     18758
     18755     18752     18756     18759     18755     18752     18756     18768
     18756     18768     18760     18762     18756     18768     18760     18764
     18756     18768     18760     18766     18758     18756     18768     18760
     18759     18756     18768     18760     18760     18766     18770     18772
     18760     18766     18770     18773     18760     18766     18770     18774
     18762     18760     18766     18770     18764     18760     18766     18770
     18766     18770     18774     18776     18766     18770     18774     18777
     18766     18770     18774     18791     18768     18760     18766     18770
     18770     18774     18777     18779     18770     18774     18791     18793
     18770     18774     18791     18794     18770     18774     18791     18795
     18772     18770     18774     18776     18772     18770     18774     18777
     18772     18770     18774     18791     18773     18770     18774     18776
     18773     18770     18774     18777     18773     18770     18774     18791
     18774     18777     18779     18781     18774     18777     18779     18783
     18774     18791     18795     18797     18776     18774     18777     18779
     18776     18774     18791     18793     18776     18774     18791     18794
     18776     18774     18791     18795     18777     18774     18791     18793
     18777     18774     18791     18794     18777     18774     18791     18795
     18777     18779     18783     18785     18777     18779     18783     18786
     18777     18779     18783     18809     18779     18777     18774     18791
     18779     18783     18809     18811     18779     18783     18809     18812
     18779     18783     18809     18813     18781     18779     18783     18785
     18781     18779     18783     18786     18781     18779     18783     18809
     18783     18809     18813     18815     18783     18809     18813     18816
     18783     18809     18813     18817     18785     18783     18809     18811
     18785     18783     18809     18812     18785     18783     18809     18813
     18786     18783     18809     18811     18786     18783     18809     18812
     18786     18783     18809     18813     18791     18795     18797     18799
     18791     18795     18797     18801     18793     18791     18795     18797
     18794     18791     18795     18797     18795     18797     18801     18803
     18795     18797     18801     18804     18795     18797     18801     18872
     18797     18801     18872     18874     18797     18801     18872     18875
     18797     18801     18872     18876     18799     18797     18801     18803
     18799     18797     18801     18804     18799     18797     18801     18872
     18801     18872     18876     18878     18801     18872     18876     18879
     18801     18872     18876     18880     18803     18801     18872     18874
     18803     18801     18872     18875     18803     18801     18872     18876
     18804     18801     18872     18874     18804     18801     18872     18875
     18804     18801     18872     18876     18809     18813     18817     18819
     18809     18813     18817     18820     18809     18813     18817     18821
     18811     18809     18813     18815     18811     18809     18813     18816
     18811     18809     18813     18817     18812     18809     18813     18815
     18812     18809     18813     18816     18812     18809     18813     18817
     18813     18817     18821     18823     18813     18817     18821     18824
     18813     18817     18821     18825     18815     18813     18817     18819
     18815     18813     18817     18820     18815     18813     18817     18821
     18816     18813     18817     18819     18816     18813     18817     18820
     18816     18813     18817     18821     18817     18821     18825     18827
     18817     18821     18825     18828     18817     18821     18825     18829
     18819     18817     18821     18823     18819     18817     18821     18824
     18819     18817     18821     18825     18820     18817     18821     18823
     18820     18817     18821     18824     18820     18817     18821     18825
     18821     18825     18829     18831     18821     18825     18829     18832
     18821     18825     18829     18833     18823     18821     18825     18827
     18823     18821     18825     18828     18823     18821     18825     18829
     18824     18821     18825     18827     18824     18821     18825     18828
     18824     18821     18825     18829     18825     18829     18833     18835
     18825     18829     18833     18836     18827     18825     18829     18831
     18827     18825     18829     18832     18827     18825     18829     18833
     18828     18825     18829     18831     18828     18825     18829     18832
     18828     18825     18829     18833     18829     18833     18836     18838
     18829     18833     18836     18839     18831     18829     18833     18835
     18831     18829     18833     18836     18832     18829     18833     18835
     18832     18829     18833     18836     18833     18836     18839     18841
     18833     18836     18839     18842     18833     18836     18839     18843
     18835     18833     18836     18838     18835     18833     18836     18839
     18836     18839     18843     18845     18836     18839     18843     18846
     18836     18839     18843     18847     18838     18836     18839     18841
     18838     18836     18839     18842     18838     18836     18839     18843
     18839     18843     18847     18849     18839     18843     18847     18850
     18839     18843     18847     18851     18841     18839     18843     18845
     18841     18839     18843     18846     18841     18839     18843     18847
     18842     18839     18843     18845     18842     18839     18843     18846
     18842     18839     18843     18847     18843     18847     18851     18853
     18843     18847     18851     18854     18843     18847     18851     18855
     18845     18843     18847     18849     18845     18843     18847     18850
     18845     18843     18847     18851     18846     18843     18847     18849
     18846     18843     18847     18850     18846     18843     18847     18851
     18847     18851     18855     18857     18847     18851     18855     18858
     18847     18851     18855     18859     18849     18847     18851     18853
     18849     18847     18851     18854     18849     18847     18851     18855
     18850     18847     18851     18853     18850     18847     18851     18854
     18850     18847     18851     18855     18851     18855     18859     18861
     18851     18855     18859     18862     18851     18855     18859     18863
     18853     18851     18855     18857     18853     18851     18855     18858
     18853     18851     18855     18859     18854     18851     18855     18857
     18854     18851     18855     18858     18854     18851     18855     18859
     18855     18859     18863     18865     18855     18859     18863     18866
     18855     18859     18863     18867     18857     18855     18859     18861
     18857     18855     18859     18862     18857     18855     18859     18863
     18858     18855     18859     18861     18858     18855     18859     18862
     18858     18855     18859     18863     18859     18863     18867     18869
     18859     18863     18867     18870     18859     18863     18867     18871
     18861     18859     18863     18865     18861     18859     18863     18866
     18861     18859     18863     18867     18862     18859     18863     18865
     18862     18859     18863     18866     18862     18859     18863     18867
     18865     18863     18867     18869     18865     18863     18867     18870
     18865     18863     18867     18871     18866     18863     18867     18869
     18866     18863     18867     18870     18866     18863     18867     18871
     18872     18876     18880     18882     18872     18876     18880     18883
     18872     18876     18880     18884     18874     18872     18876     18878
     18874     18872     18876     18879     18874     18872     18876     18880
     18875     18872     18876     18878     18875     18872     18876     18879
     18875     18872     18876     18880     18876     18880     18884     18886
     18876     18880     18884     18887     18876     18880     18884     18888
     18878     18876     18880     18882     18878     18876     18880     18883
     18878     18876     18880     18884     18879     18876     18880     18882
     18879     18876     18880     18883     18879     18876     18880     18884
     18880     18884     18888     18890     18880     18884     18888     18891
     18880     18884     18888     18892     18882     18880     18884     18886
     18882     18880     18884     18887     18882     18880     18884     18888
     18883     18880     18884     18886     18883     18880     18884     18887
     18883     18880     18884     18888     18884     18888     18892     18894
     18884     18888     18892     18895     18884     18888     18892     18896
     18886     18884     18888     18890     18886     18884     18888     18891
     18886     18884     18888     18892     18887     18884     18888     18890
     18887     18884     18888     18891     18887     18884     18888     18892
     18888     18892     18896     18898     18888     18892     18896     18899
     18888     18892     18896     18900     18890     18888     18892     18894
     18890     18888     18892     18895     18890     18888     18892     18896
     18891     18888     18892     18894     18891     18888     18892     18895
     18891     18888     18892     18896     18892     18896     18900     18902
     18892     18896     18900     18903     18892     18896     18900     18904
     18894     18892     18896     18898     18894     18892     18896     18899
     18894     18892     18896     18900     18895     18892     18896     18898
     18895     18892     18896     18899     18895     18892     18896     18900
     18896     18900     18904     18906     18896     18900     18904     18907
     18896     18900     18904     18908     18898     18896     18900     18902
     18898     18896     18900     18903     18898     18896     18900     18904
     18899     18896     18900     18902     18899     18896     18900     18903
     18899     18896     18900     18904     18900     18904     18908     18910
     18900     18904     18908     18911     18900     18904     18908     18912
     18902     18900     18904     18906     18902     18900     18904     18907
     18902     18900     18904     18908     18903     18900     18904     18906
     18903     18900     18904     18907     18903     18900     18904     18908
     18904     18908     18912     18914     18904     18908     18912     18915
     18904     18908     18912     18916     18906     18904     18908     18910
     18906     18904     18908     18911     18906     18904     18908     18912
     18907     18904     18908     18910     18907     18904     18908     18911
     18907     18904     18908     18912     18908     18912     18916     18918
     18908     18912     18916     18919     18908     18912     18916     18920
     18910     18908     18912     18914     18910     18908     18912     18915
     18910     18908     18912     18916     18911     18908     18912     18914
     18911     18908     18912     18915     18911     18908     18912     18916
     18912     18916     18920     18922     18912     18916     18920     18923
     18912     18916     18920     18924     18914     18912     18916     18918
     18914     18912     18916     18919     18914     18912     18916     18920
     18915     18912     18916     18918     18915     18912     18916     18919
     18915     18912     18916     18920     18916     18920     18924     18926
     18916     18920     18924     18927     18916     18920     18924     18928
     18918     18916     18920     18922     18918     18916     18920     18923
     18918     18916     18920     18924     18919     18916     18920     18922
     18919     18916     18920     18923     18919     18916     18920     18924
     18922     18920     18924     18926     18922     18920     18924     18927
     18922     18920     18924     18928     18923     18920     18924     18926
     18923     18920     18924     18927     18923     18920     18924     18928
     18929     18934     18938     18940     18929     18934     18938     18941
     18929     18934     18938     18950     18931     18929     18934     18936
     18931     18929     18934     18937     18931     18929     18934     18938
     18932     18929     18934     18936     18932     18929     18934     18937
     18932     18929     18934     18938     18933     18929     18934     18936
     18933     18929     18934     18937     18933     18929     18934     18938
     18934     18938     18950     18942     18936     18934     18938     18940
     18936     18934     18938     18941     18936     18934     18938     18950
     18937     18934     18938     18940     18937     18934     18938     18941
     18937     18934     18938     18950     18938     18950     18942     18944
     18938     18950     18942     18946     18938     18950     18942     18948
     18940     18938     18950     18942     18941     18938     18950     18942
     18942     18948     18952     18954     18942     18948     18952     18955
     18942     18948     18952     18956     18944     18942     18948     18952
     18946     18942     18948     18952     18948     18952     18956     18958
     18948     18952     18956     18959     18948     18952     18956     18973
     18950     18942     18948     18952     18952     18956     18959     18961
     18952     18956     18973     18975     18952     18956     18973     18976
     18952     18956     18973     18977     18954     18952     18956     18958
     18954     18952     18956     18959     18954     18952     18956     18973
     18955     18952     18956     18958     18955     18952     18956     18959
     18955     18952     18956     18973     18956     18959     18961     18963
     18956     18959     18961     18965     18956     18973     18977     18979
     18958     18956     18959     18961     18958     18956     18973     18975
     18958     18956     18973     18976     18958     18956     18973     18977
     18959     18956     18973     18975     18959     18956     18973     18976
     18959     18956     18973     18977     18959     18961     18965     18967
     18959     18961     18965     18968     18959     18961     18965     18991
     18961     18959     18956     18973     18961     18965     18991     18993
     18961     18965     18991     18994     18961     18965     18991     18995
     18963     18961     18965     18967     18963     18961     18965     18968
     18963     18961     18965     18991     18965     18991     18995     18997
     18965     18991     18995     18998     18965     18991     18995     18999
     18967     18965     18991     18993     18967     18965     18991     18994
     18967     18965     18991     18995     18968     18965     18991     18993
     18968     18965     18991     18994     18968     18965     18991     18995
     18973     18977     18979     18981     18973     18977     18979     18983
     18975     18973     18977     18979     18976     18973     18977     18979
     18977     18979     18983     18985     18977     18979     18983     18986
     18977     18979     18983     19054     18979     18983     19054     19056
     18979     18983     19054     19057     18979     18983     19054     19058
     18981     18979     18983     18985     18981     18979     18983     18986
     18981     18979     18983     19054     18983     19054     19058     19060
     18983     19054     19058     19061     18983     19054     19058     19062
     18985     18983     19054     19056     18985     18983     19054     19057
     18985     18983     19054     19058     18986     18983     19054     19056
     18986     18983     19054     19057     18986     18983     19054     19058
     18991     18995     18999     19001     18991     18995     18999     19002
     18991     18995     18999     19003     18993     18991     18995     18997
     18993     18991     18995     18998     18993     18991     18995     18999
     18994     18991     18995     18997     18994     18991     18995     18998
     18994     18991     18995     18999     18995     18999     19003     19005
     18995     18999     19003     19006     18995     18999     19003     19007
     18997     18995     18999     19001     18997     18995     18999     19002
     18997     18995     18999     19003     18998     18995     18999     19001
     18998     18995     18999     19002     18998     18995     18999     19003
     18999     19003     19007     19009     18999     19003     19007     19010
     18999     19003     19007     19011     19001     18999     19003     19005
     19001     18999     19003     19006     19001     18999     19003     19007
     19002     18999     19003     19005     19002     18999     19003     19006
     19002     18999     19003     19007     19003     19007     19011     19013
     19003     19007     19011     19014     19003     19007     19011     19015
     19005     19003     19007     19009     19005     19003     19007     19010
     19005     19003     19007     19011     19006     19003     19007     19009
     19006     19003     19007     19010     19006     19003     19007     19011
     19007     19011     19015     19017     19007     19011     19015     19018
     19009     19007     19011     19013     19009     19007     19011     19014
     19009     19007     19011     19015     19010     19007     19011     19013
     19010     19007     19011     19014     19010     19007     19011     19015
     19011     19015     19018     19020     19011     19015     19018     19021
     19013     19011     19015     19017     19013     19011     19015     19018
     19014     19011     19015     19017     19014     19011     19015     19018
     19015     19018     19021     19023     19015     19018     19021     19024
     19015     19018     19021     19025     19017     19015     19018     19020
     19017     19015     19018     19021     19018     19021     19025     19027
     19018     19021     19025     19028     19018     19021     19025     19029
     19020     19018     19021     19023     19020     19018     19021     19024
     19020     19018     19021     19025     19021     19025     19029     19031
     19021     19025     19029     19032     19021     19025     19029     19033
     19023     19021     19025     19027     19023     19021     19025     19028
     19023     19021     19025     19029     19024     19021     19025     19027
     19024     19021     19025     19028     19024     19021     19025     19029
     19025     19029     19033     19035     19025     19029     19033     19036
     19025     19029     19033     19037     19027     19025     19029     19031
     19027     19025     19029     19032     19027     19025     19029     19033
     19028     19025     19029     19031     19028     19025     19029     19032
     19028     19025     19029     19033     19029     19033     19037     19039
     19029     19033     19037     19040     19029     19033     19037     19041
     19031     19029     19033     19035     19031     19029     19033     19036
     19031     19029     19033     19037     19032     19029     19033     19035
     19032     19029     19033     19036     19032     19029     19033     19037
     19033     19037     19041     19043     19033     19037     19041     19044
     19033     19037     19041     19045     19035     19033     19037     19039
     19035     19033     19037     19040     19035     19033     19037     19041
     19036     19033     19037     19039     19036     19033     19037     19040
     19036     19033     19037     19041     19037     19041     19045     19047
     19037     19041     19045     19048     19037     19041     19045     19049
     19039     19037     19041     19043     19039     19037     19041     19044
     19039     19037     19041     19045     19040     19037     19041     19043
     19040     19037     19041     19044     19040     19037     19041     19045
     19041     19045     19049     19051     19041     19045     19049     19052
     19041     19045     19049     19053     19043     19041     19045     19047
     19043     19041     19045     19048     19043     19041     19045     19049
     19044     19041     19045     19047     19044     19041     19045     19048
     19044     19041     19045     19049     19047     19045     19049     19051
     19047     19045     19049     19052     19047     19045     19049     19053
     19048     19045     19049     19051     19048     19045     19049     19052
     19048     19045     19049     19053     19054     19058     19062     19064
     19054     19058     19062     19065     19054     19058     19062     19066
     19056     19054     19058     19060     19056     19054     19058     19061
     19056     19054     19058     19062     19057     19054     19058     19060
     19057     19054     19058     19061     19057     19054     19058     19062
     19058     19062     19066     19068     19058     19062     19066     19069
     19058     19062     19066     19070     19060     19058     19062     19064
     19060     19058     19062     19065     19060     19058     19062     19066
     19061     19058     19062     19064     19061     19058     19062     19065
     19061     19058     19062     19066     19062     19066     19070     19072
     19062     19066     19070     19073     19062     19066     19070     19074
     19064     19062     19066     19068     19064     19062     19066     19069
     19064     19062     19066     19070     19065     19062     19066     19068
     19065     19062     19066     19069     19065     19062     19066     19070
     19066     19070     19074     19076     19066     19070     19074     19077
     19066     19070     19074     19078     19068     19066     19070     19072
     19068     19066     19070     19073     19068     19066     19070     19074
     19069     19066     19070     19072     19069     19066     19070     19073
     19069     19066     19070     19074     19070     19074     19078     19080
     19070     19074     19078     19081     19070     19074     19078     19082
     19072     19070     19074     19076     19072     19070     19074     19077
     19072     19070     19074     19078     19073     19070     19074     19076
     19073     19070     19074     19077     19073     19070     19074     19078
     19074     19078     19082     19084     19074     19078     19082     19085
     19074     19078     19082     19086     19076     19074     19078     19080
     19076     19074     19078     19081     19076     19074     19078     19082
     19077     19074     19078     19080     19077     19074     19078     19081
     19077     19074     19078     19082     19078     19082     19086     19088
     19078     19082     19086     19089     19078     19082     19086     19090
     19080     19078     19082     19084     19080     19078     19082     19085
     19080     19078     19082     19086     19081     19078     19082     19084
     19081     19078     19082     19085     19081     19078     19082     19086
     19082     19086     19090     19092     19082     19086     19090     19093
     19082     19086     19090     19094     19084     19082     19086     19088
     19084     19082     19086     19089     19084     19082     19086     19090
     19085     19082     19086     19088     19085     19082     19086     19089
     19085     19082     19086     19090     19086     19090     19094     19096
     19086     19090     19094     19097     19086     19090     19094     19098
     19088     19086     19090     19092     19088     19086     19090     19093
     19088     19086     19090     19094     19089     19086     19090     19092
     19089     19086     19090     19093     19089     19086     19090     19094
     19090     19094     19098     19100     19090     19094     19098     19101
     19090     19094     19098     19102     19092     19090     19094     19096
     19092     19090     19094     19097     19092     19090     19094     19098
     19093     19090     19094     19096     19093     19090     19094     19097
     19093     19090     19094     19098     19094     19098     19102     19104
     19094     19098     19102     19105     19094     19098     19102     19106
     19096     19094     19098     19100     19096     19094     19098     19101
     19096     19094     19098     19102     19097     19094     19098     19100
     19097     19094     19098     19101     19097     19094     19098     19102
     19098     19102     19106     19108     19098     19102     19106     19109
     19098     19102     19106     19110     19100     19098     19102     19104
     19100     19098     19102     19105     19100     19098     19102     19106
     19101     19098     19102     19104     19101     19098     19102     19105
     19101     19098     19102     19106     19104     19102     19106     19108
     19104     19102     19106     19109     19104     19102     19106     19110
     19105     19102     19106     19108     19105     19102     19106     19109
     19105     19102     19106     19110     19111     19116     19120     19122
     19111     19116     19120     19123     19111     19116     19120     19132
     19113     19111     19116     19118     19113     19111     19116     19119
     19113     19111     19116     19120     19114     19111     19116     19118
     19114     19111     19116     19119     19114     19111     19116     19120
     19115     19111     19116     19118     19115     19111     19116     19119
     19115     19111     19116     19120     19116     19120     19132     19124
     19118     19116     19120     19122     19118     19116     19120     19123
     19118     19116     19120     19132     19119     19116     19120     19122
     19119     19116     19120     19123     19119     19116     19120     19132
     19120     19132     19124     19126     19120     19132     19124     19128
     19120     19132     19124     19130     19122     19120     19132     19124
     19123     19120     19132     19124     19124     19130     19134     19136
     19124     19130     19134     19137     19124     19130     19134     19138
     19126     19124     19130     19134     19128     19124     19130     19134
     19130     19134     19138     19140     19130     19134     19138     19141
     19130     19134     19138     19155     19132     19124     19130     19134
     19134     19138     19141     19143     19134     19138     19155     19157
     19134     19138     19155     19158     19134     19138     19155     19159
     19136     19134     19138     19140     19136     19134     19138     19141
     19136     19134     19138     19155     19137     19134     19138     19140
     19137     19134     19138     19141     19137     19134     19138     19155
     19138     19141     19143     19145     19138     19141     19143     19147
     19138     19155     19159     19161     19140     19138     19141     19143
     19140     19138     19155     19157     19140     19138     19155     19158
     19140     19138     19155     19159     19141     19138     19155     19157
     19141     19138     19155     19158     19141     19138     19155     19159
     19141     19143     19147     19149     19141     19143     19147     19150
     19141     19143     19147     19173     19143     19141     19138     19155
     19143     19147     19173     19175     19143     19147     19173     19176
     19143     19147     19173     19177     19145     19143     19147     19149
     19145     19143     19147     19150     19145     19143     19147     19173
     19147     19173     19177     19179     19147     19173     19177     19180
     19147     19173     19177     19181     19149     19147     19173     19175
     19149     19147     19173     19176     19149     19147     19173     19177
     19150     19147     19173     19175     19150     19147     19173     19176
     19150     19147     19173     19177     19155     19159     19161     19163
     19155     19159     19161     19165     19157     19155     19159     19161
     19158     19155     19159     19161     19159     19161     19165     19167
     19159     19161     19165     19168     19159     19161     19165     19236
     19161     19165     19236     19238     19161     19165     19236     19239
     19161     19165     19236     19240     19163     19161     19165     19167
     19163     19161     19165     19168     19163     19161     19165     19236
     19165     19236     19240     19242     19165     19236     19240     19243
     19165     19236     19240     19244     19167     19165     19236     19238
     19167     19165     19236     19239     19167     19165     19236     19240
     19168     19165     19236     19238     19168     19165     19236     19239
     19168     19165     19236     19240     19173     19177     19181     19183
     19173     19177     19181     19184     19173     19177     19181     19185
     19175     19173     19177     19179     19175     19173     19177     19180
     19175     19173     19177     19181     19176     19173     19177     19179
     19176     19173     19177     19180     19176     19173     19177     19181
     19177     19181     19185     19187     19177     19181     19185     19188
     19177     19181     19185     19189     19179     19177     19181     19183
     19179     19177     19181     19184     19179     19177     19181     19185
     19180     19177     19181     19183     19180     19177     19181     19184
     19180     19177     19181     19185     19181     19185     19189     19191
     19181     19185     19189     19192     19181     19185     19189     19193
     19183     19181     19185     19187     19183     19181     19185     19188
     19183     19181     19185     19189     19184     19181     19185     19187
     19184     19181     19185     19188     19184     19181     19185     19189
     19185     19189     19193     19195     19185     19189     19193     19196
     19185     19189     19193     19197     19187     19185     19189     19191
     19187     19185     19189     19192     19187     19185     19189     19193
     19188     19185     19189     19191     19188     19185     19189     19192
     19188     19185     19189     19193     19189     19193     19197     19199
     19189     19193     19197     19200     19191     19189     19193     19195
     19191     19189     19193     19196     19191     19189     19193     19197
     19192     19189     19193     19195     19192     19189     19193     19196
     19192     19189     19193     19197     19193     19197     19200     19202
     19193     19197     19200     19203     19195     19193     19197     19199
     19195     19193     19197     19200     19196     19193     19197     19199
     19196     19193     19197     19200     19197     19200     19203     19205
     19197     19200     19203     19206     19197     19200     19203     19207
     19199     19197     19200     19202     19199     19197     19200     19203
     19200     19203     19207     19209     19200     19203     19207     19210
     19200     19203     19207     19211     19202     19200     19203     19205
     19202     19200     19203     19206     19202     19200     19203     19207
     19203     19207     19211     19213     19203     19207     19211     19214
     19203     19207     19211     19215     19205     19203     19207     19209
     19205     19203     19207     19210     19205     19203     19207     19211
     19206     19203     19207     19209     19206     19203     19207     19210
     19206     19203     19207     19211     19207     19211     19215     19217
     19207     19211     19215     19218     19207     19211     19215     19219
     19209     19207     19211     19213     19209     19207     19211     19214
     19209     19207     19211     19215     19210     19207     19211     19213
     19210     19207     19211     19214     19210     19207     19211     19215
     19211     19215     19219     19221     19211     19215     19219     19222
     19211     19215     19219     19223     19213     19211     19215     19217
     19213     19211     19215     19218     19213     19211     19215     19219
     19214     19211     19215     19217     19214     19211     19215     19218
     19214     19211     19215     19219     19215     19219     19223     19225
     19215     19219     19223     19226     19215     19219     19223     19227
     19217     19215     19219     19221     19217     19215     19219     19222
     19217     19215     19219     19223     19218     19215     19219     19221
     19218     19215     19219     19222     19218     19215     19219     19223
     19219     19223     19227     19229     19219     19223     19227     19230
     19219     19223     19227     19231     19221     19219     19223     19225
     19221     19219     19223     19226     19221     19219     19223     19227
     19222     19219     19223     19225     19222     19219     19223     19226
     19222     19219     19223     19227     19223     19227     19231     19233
     19223     19227     19231     19234     19223     19227     19231     19235
     19225     19223     19227     19229     19225     19223     19227     19230
     19225     19223     19227     19231     19226     19223     19227     19229
     19226     19223     19227     19230     19226     19223     19227     19231
     19229     19227     19231     19233     19229     19227     19231     19234
     19229     19227     19231     19235     19230     19227     19231     19233
     19230     19227     19231     19234     19230     19227     19231     19235
     19236     19240     19244     19246     19236     19240     19244     19247
     19236     19240     19244     19248     19238     19236     19240     19242
     19238     19236     19240     19243     19238     19236     19240     19244
     19239     19236     19240     19242     19239     19236     19240     19243
     19239     19236     19240     19244     19240     19244     19248     19250
     19240     19244     19248     19251     19240     19244     19248     19252
     19242     19240     19244     19246     19242     19240     19244     19247
     19242     19240     19244     19248     19243     19240     19244     19246
     19243     19240     19244     19247     19243     19240     19244     19248
     19244     19248     19252     19254     19244     19248     19252     19255
     19244     19248     19252     19256     19246     19244     19248     19250
     19246     19244     19248     19251     19246     19244     19248     19252
     19247     19244     19248     19250     19247     19244     19248     19251
     19247     19244     19248     19252     19248     19252     19256     19258
     19248     19252     19256     19259     19248     19252     19256     19260
     19250     19248     19252     19254     19250     19248     19252     19255
     19250     19248     19252     19256     19251     19248     19252     19254
     19251     19248     19252     19255     19251     19248     19252     19256
     19252     19256     19260     19262     19252     19256     19260     19263
     19252     19256     19260     19264     19254     19252     19256     19258
     19254     19252     19256     19259     19254     19252     19256     19260
     19255     19252     19256     19258     19255     19252     19256     19259
     19255     19252     19256     19260     19256     19260     19264     19266
     19256     19260     19264     19267     19256     19260     19264     19268
     19258     19256     19260     19262     19258     19256     19260     19263
     19258     19256     19260     19264     19259     19256     19260     19262
     19259     19256     19260     19263     19259     19256     19260     19264
     19260     19264     19268     19270     19260     19264     19268     19271
     19260     19264     19268     19272     19262     19260     19264     19266
     19262     19260     19264     19267     19262     19260     19264     19268
     19263     19260     19264     19266     19263     19260     19264     19267
     19263     19260     19264     19268     19264     19268     19272     19274
     19264     19268     19272     19275     19264     19268     19272     19276
     19266     19264     19268     19270     19266     19264     19268     19271
     19266     19264     19268     19272     19267     19264     19268     19270
     19267     19264     19268     19271     19267     19264     19268     19272
     19268     19272     19276     19278     19268     19272     19276     19279
     19268     19272     19276     19280     19270     19268     19272     19274
     19270     19268     19272     19275     19270     19268     19272     19276
     19271     19268     19272     19274     19271     19268     19272     19275
     19271     19268     19272     19276     19272     19276     19280     19282
     19272     19276     19280     19283     19272     19276     19280     19284
     19274     19272     19276     19278     19274     19272     19276     19279
     19274     19272     19276     19280     19275     19272     19276     19278
     19275     19272     19276     19279     19275     19272     19276     19280
     19276     19280     19284     19286     19276     19280     19284     19287
     19276     19280     19284     19288     19278     19276     19280     19282
     19278     19276     19280     19283     19278     19276     19280     19284
     19279     19276     19280     19282     19279     19276     19280     19283
     19279     19276     19280     19284     19280     19284     19288     19290
     19280     19284     19288     19291     19280     19284     19288     19292
     19282     19280     19284     19286     19282     19280     19284     19287
     19282     19280     19284     19288     19283     19280     19284     19286
     19283     19280     19284     19287     19283     19280     19284     19288
     19286     19284     19288     19290     19286     19284     19288     19291
     19286     19284     19288     19292     19287     19284     19288     19290
     19287     19284     19288     19291     19287     19284     19288     19292
     19293     19298     19302     19304     19293     19298     19302     19305
     19293     19298     19302     19314     19295     19293     19298     19300
     19295     19293     19298     19301     19295     19293     19298     19302
     19296     19293     19298     19300     19296     19293     19298     19301
     19296     19293     19298     19302     19297     19293     19298     19300
     19297     19293     19298     19301     19297     19293     19298     19302
     19298     19302     19314     19306     19300     19298     19302     19304
     19300     19298     19302     19305     19300     19298     19302     19314
     19301     19298     19302     19304     19301     19298     19302     19305
     19301     19298     19302     19314     19302     19314     19306     19308
     19302     19314     19306     19310     19302     19314     19306     19312
     19304     19302     19314     19306     19305     19302     19314     19306
     19306     19312     19316     19318     19306     19312     19316     19319
     19306     19312     19316     19320     19308     19306     19312     19316
     19310     19306     19312     19316     19312     19316     19320     19322
     19312     19316     19320     19323     19312     19316     19320     19337
     19314     19306     19312     19316     19316     19320     19323     19325
     19316     19320     19337     19339     19316     19320     19337     19340
     19316     19320     19337     19341     19318     19316     19320     19322
     19318     19316     19320     19323     19318     19316     19320     19337
     19319     19316     19320     19322     19319     19316     19320     19323
     19319     19316     19320     19337     19320     19323     19325     19327
     19320     19323     19325     19329     19320     19337     19341     19343
     19322     19320     19323     19325     19322     19320     19337     19339
     19322     19320     19337     19340     19322     19320     19337     19341
     19323     19320     19337     19339     19323     19320     19337     19340
     19323     19320     19337     19341     19323     19325     19329     19331
     19323     19325     19329     19332     19323     19325     19329     19355
     19325     19323     19320     19337     19325     19329     19355     19357
     19325     19329     19355     19358     19325     19329     19355     19359
     19327     19325     19329     19331     19327     19325     19329     19332
     19327     19325     19329     19355     19329     19355     19359     19361
     19329     19355     19359     19362     19329     19355     19359     19363
     19331     19329     19355     19357     19331     19329     19355     19358
     19331     19329     19355     19359     19332     19329     19355     19357
     19332     19329     19355     19358     19332     19329     19355     19359
     19337     19341     19343     19345     19337     19341     19343     19347
     19339     19337     19341     19343     19340     19337     19341     19343
     19341     19343     19347     19349     19341     19343     19347     19350
     19341     19343     19347     19418     19343     19347     19418     19420
     19343     19347     19418     19421     19343     19347     19418     19422
     19345     19343     19347     19349     19345     19343     19347     19350
     19345     19343     19347     19418     19347     19418     19422     19424
     19347     19418     19422     19425     19347     19418     19422     19426
     19349     19347     19418     19420     19349     19347     19418     19421
     19349     19347     19418     19422     19350     19347     19418     19420
     19350     19347     19418     19421     19350     19347     19418     19422
     19355     19359     19363     19365     19355     19359     19363     19366
     19355     19359     19363     19367     19357     19355     19359     19361
     19357     19355     19359     19362     19357     19355     19359     19363
     19358     19355     19359     19361     19358     19355     19359     19362
     19358     19355     19359     19363     19359     19363     19367     19369
     19359     19363     19367     19370     19359     19363     19367     19371
     19361     19359     19363     19365     19361     19359     19363     19366
     19361     19359     19363     19367     19362     19359     19363     19365
     19362     19359     19363     19366     19362     19359     19363     19367
     19363     19367     19371     19373     19363     19367     19371     19374
     19363     19367     19371     19375     19365     19363     19367     19369
     19365     19363     19367     19370     19365     19363     19367     19371
     19366     19363     19367     19369     19366     19363     19367     19370
     19366     19363     19367     19371     19367     19371     19375     19377
     19367     19371     19375     19378     19367     19371     19375     19379
     19369     19367     19371     19373     19369     19367     19371     19374
     19369     19367     19371     19375     19370     19367     19371     19373
     19370     19367     19371     19374     19370     19367     19371     19375
     19371     19375     19379     19381     19371     19375     19379     19382
     19373     19371     19375     19377     19373     19371     19375     19378
     19373     19371     19375     19379     19374     19371     19375     19377
     19374     19371     19375     19378     19374     19371     19375     19379
     19375     19379     19382     19384     19375     19379     19382     19385
     19377     19375     19379     19381     19377     19375     19379     19382
     19378     19375     19379     19381     19378     19375     19379     19382
     19379     19382     19385     19387     19379     19382     19385     19388
     19379     19382     19385     19389     19381     19379     19382     19384
     19381     19379     19382     19385     19382     19385     19389     19391
     19382     19385     19389     19392     19382     19385     19389     19393
     19384     19382     19385     19387     19384     19382     19385     19388
     19384     19382     19385     19389     19385     19389     19393     19395
     19385     19389     19393     19396     19385     19389     19393     19397
     19387     19385     19389     19391     19387     19385     19389     19392
     19387     19385     19389     19393     19388     19385     19389     19391
     19388     19385     19389     19392     19388     19385     19389     19393
     19389     19393     19397     19399     19389     19393     19397     19400
     19389     19393     19397     19401     19391     19389     19393     19395
     19391     19389     19393     19396     19391     19389     19393     19397
     19392     19389     19393     19395     19392     19389     19393     19396
     19392     19389     19393     19397     19393     19397     19401     19403
     19393     19397     19401     19404     19393     19397     19401     19405
     19395     19393     19397     19399     19395     19393     19397     19400
     19395     19393     19397     19401     19396     19393     19397     19399
     19396     19393     19397     19400     19396     19393     19397     19401
     19397     19401     19405     19407     19397     19401     19405     19408
     19397     19401     19405     19409     19399     19397     19401     19403
     19399     19397     19401     19404     19399     19397     19401     19405
     19400     19397     19401     19403     19400     19397     19401     19404
     19400     19397     19401     19405     19401     19405     19409     19411
     19401     19405     19409     19412     19401     19405     19409     19413
     19403     19401     19405     19407     19403     19401     19405     19408
     19403     19401     19405     19409     19404     19401     19405     19407
     19404     19401     19405     19408     19404     19401     19405     19409
     19405     19409     19413     19415     19405     19409     19413     19416
     19405     19409     19413     19417     19407     19405     19409     19411
     19407     19405     19409     19412     19407     19405     19409     19413
     19408     19405     19409     19411     19408     19405     19409     19412
     19408     19405     19409     19413     19411     19409     19413     19415
     19411     19409     19413     19416     19411     19409     19413     19417
     19412     19409     19413     19415     19412     19409     19413     19416
     19412     19409     19413     19417     19418     19422     19426     19428
     19418     19422     19426     19429     19418     19422     19426     19430
     19420     19418     19422     19424     19420     19418     19422     19425
     19420     19418     19422     19426     19421     19418     19422     19424
     19421     19418     19422     19425     19421     19418     19422     19426
     19422     19426     19430     19432     19422     19426     19430     19433
     19422     19426     19430     19434     19424     19422     19426     19428
     19424     19422     19426     19429     19424     19422     19426     19430
     19425     19422     19426     19428     19425     19422     19426     19429
     19425     19422     19426     19430     19426     19430     19434     19436
     19426     19430     19434     19437     19426     19430     19434     19438
     19428     19426     19430     19432     19428     19426     19430     19433
     19428     19426     19430     19434     19429     19426     19430     19432
     19429     19426     19430     19433     19429     19426     19430     19434
     19430     19434     19438     19440     19430     19434     19438     19441
     19430     19434     19438     19442     19432     19430     19434     19436
     19432     19430     19434     19437     19432     19430     19434     19438
     19433     19430     19434     19436     19433     19430     19434     19437
     19433     19430     19434     19438     19434     19438     19442     19444
     19434     19438     19442     19445     19434     19438     19442     19446
     19436     19434     19438     19440     19436     19434     19438     19441
     19436     19434     19438     19442     19437     19434     19438     19440
     19437     19434     19438     19441     19437     19434     19438     19442
     19438     19442     19446     19448     19438     19442     19446     19449
     19438     19442     19446     19450     19440     19438     19442     19444
     19440     19438     19442     19445     19440     19438     19442     19446
     19441     19438     19442     19444     19441     19438     19442     19445
     19441     19438     19442     19446     19442     19446     19450     19452
     19442     19446     19450     19453     19442     19446     19450     19454
     19444     19442     19446     19448     19444     19442     19446     19449
     19444     19442     19446     19450     19445     19442     19446     19448
     19445     19442     19446     19449     19445     19442     19446     19450
     19446     19450     19454     19456     19446     19450     19454     19457
     19446     19450     19454     19458     19448     19446     19450     19452
     19448     19446     19450     19453     19448     19446     19450     19454
     19449     19446     19450     19452     19449     19446     19450     19453
     19449     19446     19450     19454     19450     19454     19458     19460
     19450     19454     19458     19461     19450     19454     19458     19462
     19452     19450     19454     19456     19452     19450     19454     19457
     19452     19450     19454     19458     19453     19450     19454     19456
     19453     19450     19454     19457     19453     19450     19454     19458
     19454     19458     19462     19464     19454     19458     19462     19465
     19454     19458     19462     19466     19456     19454     19458     19460
     19456     19454     19458     19461     19456     19454     19458     19462
     19457     19454     19458     19460     19457     19454     19458     19461
     19457     19454     19458     19462     19458     19462     19466     19468
     19458     19462     19466     19469     19458     19462     19466     19470
     19460     19458     19462     19464     19460     19458     19462     19465
     19460     19458     19462     19466     19461     19458     19462     19464
     19461     19458     19462     19465     19461     19458     19462     19466
     19462     19466     19470     19472     19462     19466     19470     19473
     19462     19466     19470     19474     19464     19462     19466     19468
     19464     19462     19466     19469     19464     19462     19466     19470
     19465     19462     19466     19468     19465     19462     19466     19469
     19465     19462     19466     19470     19468     19466     19470     19472
     19468     19466     19470     19473     19468     19466     19470     19474
     19469     19466     19470     19472     19469     19466     19470     19473
     19469     19466     19470     19474     19475     19480     19484     19486
     19475     19480     19484     19487     19475     19480     19484     19496
     19477     19475     19480     19482     19477     19475     19480     19483
     19477     19475     19480     19484     19478     19475     19480     19482
     19478     19475     19480     19483     19478     19475     19480     19484
     19479     19475     19480     19482     19479     19475     19480     19483
     19479     19475     19480     19484     19480     19484     19496     19488
     19482     19480     19484     19486     19482     19480     19484     19487
     19482     19480     19484     19496     19483     19480     19484     19486
     19483     19480     19484     19487     19483     19480     19484     19496
     19484     19496     19488     19490     19484     19496     19488     19492
     19484     19496     19488     19494     19486     19484     19496     19488
     19487     19484     19496     19488     19488     19494     19498     19500
     19488     19494     19498     19501     19488     19494     19498     19502
     19490     19488     19494     19498     19492     19488     19494     19498
     19494     19498     19502     19504     19494     19498     19502     19505
     19494     19498     19502     19519     19496     19488     19494     19498
     19498     19502     19505     19507     19498     19502     19519     19521
     19498     19502     19519     19522     19498     19502     19519     19523
     19500     19498     19502     19504     19500     19498     19502     19505
     19500     19498     19502     19519     19501     19498     19502     19504
     19501     19498     19502     19505     19501     19498     19502     19519
     19502     19505     19507     19509     19502     19505     19507     19511
     19502     19519     19523     19525     19504     19502     19505     19507
     19504     19502     19519     19521     19504     19502     19519     19522
     19504     19502     19519     19523     19505     19502     19519     19521
     19505     19502     19519     19522     19505     19502     19519     19523
     19505     19507     19511     19513     19505     19507     19511     19514
     19505     19507     19511     19537     19507     19505     19502     19519
     19507     19511     19537     19539     19507     19511     19537     19540
     19507     19511     19537     19541     19509     19507     19511     19513
     19509     19507     19511     19514     19509     19507     19511     19537
     19511     19537     19541     19543     19511     19537     19541     19544
     19511     19537     19541     19545     19513     19511     19537     19539
     19513     19511     19537     19540     19513     19511     19537     19541
     19514     19511     19537     19539     19514     19511     19537     19540
     19514     19511     19537     19541     19519     19523     19525     19527
     19519     19523     19525     19529     19521     19519     19523     19525
     19522     19519     19523     19525     19523     19525     19529     19531
     19523     19525     19529     19532     19523     19525     19529     19600
     19525     19529     19600     19602     19525     19529     19600     19603
     19525     19529     19600     19604     19527     19525     19529     19531
     19527     19525     19529     19532     19527     19525     19529     19600
     19529     19600     19604     19606     19529     19600     19604     19607
     19529     19600     19604     19608     19531     19529     19600     19602
     19531     19529     19600     19603     19531     19529     19600     19604
     19532     19529     19600     19602     19532     19529     19600     19603
     19532     19529     19600     19604     19537     19541     19545     19547
     19537     19541     19545     19548     19537     19541     19545     19549
     19539     19537     19541     19543     19539     19537     19541     19544
     19539     19537     19541     19545     19540     19537     19541     19543
     19540     19537     19541     19544     19540     19537     19541     19545
     19541     19545     19549     19551     19541     19545     19549     19552
     19541     19545     19549     19553     19543     19541     19545     19547
     19543     19541     19545     19548     19543     19541     19545     19549
     19544     19541     19545     19547     19544     19541     19545     19548
     19544     19541     19545     19549     19545     19549     19553     19555
     19545     19549     19553     19556     19545     19549     19553     19557
     19547     19545     19549     19551     19547     19545     19549     19552
     19547     19545     19549     19553     19548     19545     19549     19551
     19548     19545     19549     19552     19548     19545     19549     19553
     19549     19553     19557     19559     19549     19553     19557     19560
     19549     19553     19557     19561     19551     19549     19553     19555
     19551     19549     19553     19556     19551     19549     19553     19557
     19552     19549     19553     19555     19552     19549     19553     19556
     19552     19549     19553     19557     19553     19557     19561     19563
     19553     19557     19561     19564     19555     19553     19557     19559
     19555     19553     19557     19560     19555     19553     19557     19561
     19556     19553     19557     19559     19556     19553     19557     19560
     19556     19553     19557     19561     19557     19561     19564     19566
     19557     19561     19564     19567     19559     19557     19561     19563
     19559     19557     19561     19564     19560     19557     19561     19563
     19560     19557     19561     19564     19561     19564     19567     19569
     19561     19564     19567     19570     19561     19564     19567     19571
     19563     19561     19564     19566     19563     19561     19564     19567
     19564     19567     19571     19573     19564     19567     19571     19574
     19564     19567     19571     19575     19566     19564     19567     19569
     19566     19564     19567     19570     19566     19564     19567     19571
     19567     19571     19575     19577     19567     19571     19575     19578
     19567     19571     19575     19579     19569     19567     19571     19573
     19569     19567     19571     19574     19569     19567     19571     19575
     19570     19567     19571     19573     19570     19567     19571     19574
     19570     19567     19571     19575     19571     19575     19579     19581
     19571     19575     19579     19582     19571     19575     19579     19583
     19573     19571     19575     19577     19573     19571     19575     19578
     19573     19571     19575     19579     19574     19571     19575     19577
     19574     19571     19575     19578     19574     19571     19575     19579
     19575     19579     19583     19585     19575     19579     19583     19586
     19575     19579     19583     19587     19577     19575     19579     19581
     19577     19575     19579     19582     19577     19575     19579     19583
     19578     19575     19579     19581     19578     19575     19579     19582
     19578     19575     19579     19583     19579     19583     19587     19589
     19579     19583     19587     19590     19579     19583     19587     19591
     19581     19579     19583     19585     19581     19579     19583     19586
     19581     19579     19583     19587     19582     19579     19583     19585
     19582     19579     19583     19586     19582     19579     19583     19587
     19583     19587     19591     19593     19583     19587     19591     19594
     19583     19587     19591     19595     19585     19583     19587     19589
     19585     19583     19587     19590     19585     19583     19587     19591
     19586     19583     19587     19589     19586     19583     19587     19590
     19586     19583     19587     19591     19587     19591     19595     19597
     19587     19591     19595     19598     19587     19591     19595     19599
     19589     19587     19591     19593     19589     19587     19591     19594
     19589     19587     19591     19595     19590     19587     19591     19593
     19590     19587     19591     19594     19590     19587     19591     19595
     19593     19591     19595     19597     19593     19591     19595     19598
     19593     19591     19595     19599     19594     19591     19595     19597
     19594     19591     19595     19598     19594     19591     19595     19599
     19600     19604     19608     19610     19600     19604     19608     19611
     19600     19604     19608     19612     19602     19600     19604     19606
     19602     19600     19604     19607     19602     19600     19604     19608
     19603     19600     19604     19606     19603     19600     19604     19607
     19603     19600     19604     19608     19604     19608     19612     19614
     19604     19608     19612     19615     19604     19608     19612     19616
     19606     19604     19608     19610     19606     19604     19608     19611
     19606     19604     19608     19612     19607     19604     19608     19610
     19607     19604     19608     19611     19607     19604     19608     19612
     19608     19612     19616     19618     19608     19612     19616     19619
     19608     19612     19616     19620     19610     19608     19612     19614
     19610     19608     19612     19615     19610     19608     19612     19616
     19611     19608     19612     19614     19611     19608     19612     19615
     19611     19608     19612     19616     19612     19616     19620     19622
     19612     19616     19620     19623     19612     19616     19620     19624
     19614     19612     19616     19618     19614     19612     19616     19619
     19614     19612     19616     19620     19615     19612     19616     19618
     19615     19612     19616     19619     19615     19612     19616     19620
     19616     19620     19624     19626     19616     19620     19624     19627
     19616     19620     19624     19628     19618     19616     19620     19622
     19618     19616     19620     19623     19618     19616     19620     19624
     19619     19616     19620     19622     19619     19616     19620     19623
     19619     19616     19620     19624     19620     19624     19628     19630
     19620     19624     19628     19631     19620     19624     19628     19632
     19622     19620     19624     19626     19622     19620     19624     19627
     19622     19620     19624     19628     19623     19620     19624     19626
     19623     19620     19624     19627     19623     19620     19624     19628
     19624     19628     19632     19634     19624     19628     19632     19635
     19624     19628     19632     19636     19626     19624     19628     19630
     19626     19624     19628     19631     19626     19624     19628     19632
     19627     19624     19628     19630     19627     19624     19628     19631
     19627     19624     19628     19632     19628     19632     19636     19638
     19628     19632     19636     19639     19628     19632     19636     19640
     19630     19628     19632     19634     19630     19628     19632     19635
     19630     19628     19632     19636     19631     19628     19632     19634
     19631     19628     19632     19635     19631     19628     19632     19636
     19632     19636     19640     19642     19632     19636     19640     19643
     19632     19636     19640     19644     19634     19632     19636     19638
     19634     19632     19636     19639     19634     19632     19636     19640
     19635     19632     19636     19638     19635     19632     19636     19639
     19635     19632     19636     19640     19636     19640     19644     19646
     19636     19640     19644     19647     19636     19640     19644     19648
     19638     19636     19640     19642     19638     19636     19640     19643
     19638     19636     19640     19644     19639     19636     19640     19642
     19639     19636     19640     19643     19639     19636     19640     19644
     19640     19644     19648     19650     19640     19644     19648     19651
     19640     19644     19648     19652     19642     19640     19644     19646
     19642     19640     19644     19647     19642     19640     19644     19648
     19643     19640     19644     19646     19643     19640     19644     19647
     19643     19640     19644     19648     19644     19648     19652     19654
     19644     19648     19652     19655     19644     19648     19652     19656
     19646     19644     19648     19650     19646     19644     19648     19651
     19646     19644     19648     19652     19647     19644     19648     19650
     19647     19644     19648     19651     19647     19644     19648     19652
     19650     19648     19652     19654     19650     19648     19652     19655
     19650     19648     19652     19656     19651     19648     19652     19654
     19651     19648     19652     19655     19651     19648     19652     19656
     19657     19662     19666     19668     19657     19662     19666     19669
     19657     19662     19666     19678     19659     19657     19662     19664
     19659     19657     19662     19665     19659     19657     19662     19666
     19660     19657     19662     19664     19660     19657     19662     19665
     19660     19657     19662     19666     19661     19657     19662     19664
     19661     19657     19662     19665     19661     19657     19662     19666
     19662     19666     19678     19670     19664     19662     19666     19668
     19664     19662     19666     19669     19664     19662     19666     19678
     19665     19662     19666     19668     19665     19662     19666     19669
     19665     19662     19666     19678     19666     19678     19670     19672
     19666     19678     19670     19674     19666     19678     19670     19676
     19668     19666     19678     19670     19669     19666     19678     19670
     19670     19676     19680     19682     19670     19676     19680     19683
     19670     19676     19680     19684     19672     19670     19676     19680
     19674     19670     19676     19680     19676     19680     19684     19686
     19676     19680     19684     19687     19676     19680     19684     19701
     19678     19670     19676     19680     19680     19684     19687     19689
     19680     19684     19701     19703     19680     19684     19701     19704
     19680     19684     19701     19705     19682     19680     19684     19686
     19682     19680     19684     19687     19682     19680     19684     19701
     19683     19680     19684     19686     19683     19680     19684     19687
     19683     19680     19684     19701     19684     19687     19689     19691
     19684     19687     19689     19693     19684     19701     19705     19707
     19686     19684     19687     19689     19686     19684     19701     19703
     19686     19684     19701     19704     19686     19684     19701     19705
     19687     19684     19701     19703     19687     19684     19701     19704
     19687     19684     19701     19705     19687     19689     19693     19695
     19687     19689     19693     19696     19687     19689     19693     19719
     19689     19687     19684     19701     19689     19693     19719     19721
     19689     19693     19719     19722     19689     19693     19719     19723
     19691     19689     19693     19695     19691     19689     19693     19696
     19691     19689     19693     19719     19693     19719     19723     19725
     19693     19719     19723     19726     19693     19719     19723     19727
     19695     19693     19719     19721     19695     19693     19719     19722
     19695     19693     19719     19723     19696     19693     19719     19721
     19696     19693     19719     19722     19696     19693     19719     19723
     19701     19705     19707     19709     19701     19705     19707     19711
     19703     19701     19705     19707     19704     19701     19705     19707
     19705     19707     19711     19713     19705     19707     19711     19714
     19705     19707     19711     19782     19707     19711     19782     19784
     19707     19711     19782     19785     19707     19711     19782     19786
     19709     19707     19711     19713     19709     19707     19711     19714
     19709     19707     19711     19782     19711     19782     19786     19788
     19711     19782     19786     19789     19711     19782     19786     19790
     19713     19711     19782     19784     19713     19711     19782     19785
     19713     19711     19782     19786     19714     19711     19782     19784
     19714     19711     19782     19785     19714     19711     19782     19786
     19719     19723     19727     19729     19719     19723     19727     19730
     19719     19723     19727     19731     19721     19719     19723     19725
     19721     19719     19723     19726     19721     19719     19723     19727
     19722     19719     19723     19725     19722     19719     19723     19726
     19722     19719     19723     19727     19723     19727     19731     19733
     19723     19727     19731     19734     19723     19727     19731     19735
     19725     19723     19727     19729     19725     19723     19727     19730
     19725     19723     19727     19731     19726     19723     19727     19729
     19726     19723     19727     19730     19726     19723     19727     19731
     19727     19731     19735     19737     19727     19731     19735     19738
     19727     19731     19735     19739     19729     19727     19731     19733
     19729     19727     19731     19734     19729     19727     19731     19735
     19730     19727     19731     19733     19730     19727     19731     19734
     19730     19727     19731     19735     19731     19735     19739     19741
     19731     19735     19739     19742     19731     19735     19739     19743
     19733     19731     19735     19737     19733     19731     19735     19738
     19733     19731     19735     19739     19734     19731     19735     19737
     19734     19731     19735     19738     19734     19731     19735     19739
     19735     19739     19743     19745     19735     19739     19743     19746
     19737     19735     19739     19741     19737     19735     19739     19742
     19737     19735     19739     19743     19738     19735     19739     19741
     19738     19735     19739     19742     19738     19735     19739     19743
     19739     19743     19746     19748     19739     19743     19746     19749
     19741     19739     19743     19745     19741     19739     19743     19746
     19742     19739     19743     19745     19742     19739     19743     19746
     19743     19746     19749     19751     19743     19746     19749     19752
     19743     19746     19749     19753     19745     19743     19746     19748
     19745     19743     19746     19749     19746     19749     19753     19755
     19746     19749     19753     19756     19746     19749     19753     19757
     19748     19746     19749     19751     19748     19746     19749     19752
     19748     19746     19749     19753     19749     19753     19757     19759
     19749     19753     19757     19760     19749     19753     19757     19761
     19751     19749     19753     19755     19751     19749     19753     19756
     19751     19749     19753     19757     19752     19749     19753     19755
     19752     19749     19753     19756     19752     19749     19753     19757
     19753     19757     19761     19763     19753     19757     19761     19764
     19753     19757     19761     19765     19755     19753     19757     19759
     19755     19753     19757     19760     19755     19753     19757     19761
     19756     19753     19757     19759     19756     19753     19757     19760
     19756     19753     19757     19761     19757     19761     19765     19767
     19757     19761     19765     19768     19757     19761     19765     19769
     19759     19757     19761     19763     19759     19757     19761     19764
     19759     19757     19761     19765     19760     19757     19761     19763
     19760     19757     19761     19764     19760     19757     19761     19765
     19761     19765     19769     19771     19761     19765     19769     19772
     19761     19765     19769     19773     19763     19761     19765     19767
     19763     19761     19765     19768     19763     19761     19765     19769
     19764     19761     19765     19767     19764     19761     19765     19768
     19764     19761     19765     19769     19765     19769     19773     19775
     19765     19769     19773     19776     19765     19769     19773     19777
     19767     19765     19769     19771     19767     19765     19769     19772
     19767     19765     19769     19773     19768     19765     19769     19771
     19768     19765     19769     19772     19768     19765     19769     19773
     19769     19773     19777     19779     19769     19773     19777     19780
     19769     19773     19777     19781     19771     19769     19773     19775
     19771     19769     19773     19776     19771     19769     19773     19777
     19772     19769     19773     19775     19772     19769     19773     19776
     19772     19769     19773     19777     19775     19773     19777     19779
     19775     19773     19777     19780     19775     19773     19777     19781
     19776     19773     19777     19779     19776     19773     19777     19780
     19776     19773     19777     19781     19782     19786     19790     19792
     19782     19786     19790     19793     19782     19786     19790     19794
     19784     19782     19786     19788     19784     19782     19786     19789
     19784     19782     19786     19790     19785     19782     19786     19788
     19785     19782     19786     19789     19785     19782     19786     19790
     19786     19790     19794     19796     19786     19790     19794     19797
     19786     19790     19794     19798     19788     19786     19790     19792
     19788     19786     19790     19793     19788     19786     19790     19794
     19789     19786     19790     19792     19789     19786     19790     19793
     19789     19786     19790     19794     19790     19794     19798     19800
     19790     19794     19798     19801     19790     19794     19798     19802
     19792     19790     19794     19796     19792     19790     19794     19797
     19792     19790     19794     19798     19793     19790     19794     19796
     19793     19790     19794     19797     19793     19790     19794     19798
     19794     19798     19802     19804     19794     19798     19802     19805
     19794     19798     19802     19806     19796     19794     19798     19800
     19796     19794     19798     19801     19796     19794     19798     19802
     19797     19794     19798     19800     19797     19794     19798     19801
     19797     19794     19798     19802     19798     19802     19806     19808
     19798     19802     19806     19809     19798     19802     19806     19810
     19800     19798     19802     19804     19800     19798     19802     19805
     19800     19798     19802     19806     19801     19798     19802     19804
     19801     19798     19802     19805     19801     19798     19802     19806
     19802     19806     19810     19812     19802     19806     19810     19813
     19802     19806     19810     19814     19804     19802     19806     19808
     19804     19802     19806     19809     19804     19802     19806     19810
     19805     19802     19806     19808     19805     19802     19806     19809
     19805     19802     19806     19810     19806     19810     19814     19816
     19806     19810     19814     19817     19806     19810     19814     19818
     19808     19806     19810     19812     19808     19806     19810     19813
     19808     19806     19810     19814     19809     19806     19810     19812
     19809     19806     19810     19813     19809     19806     19810     19814
     19810     19814     19818     19820     19810     19814     19818     19821
     19810     19814     19818     19822     19812     19810     19814     19816
     19812     19810     19814     19817     19812     19810     19814     19818
     19813     19810     19814     19816     19813     19810     19814     19817
     19813     19810     19814     19818     19814     19818     19822     19824
     19814     19818     19822     19825     19814     19818     19822     19826
     19816     19814     19818     19820     19816     19814     19818     19821
     19816     19814     19818     19822     19817     19814     19818     19820
     19817     19814     19818     19821     19817     19814     19818     19822
     19818     19822     19826     19828     19818     19822     19826     19829
     19818     19822     19826     19830     19820     19818     19822     19824
     19820     19818     19822     19825     19820     19818     19822     19826
     19821     19818     19822     19824     19821     19818     19822     19825
     19821     19818     19822     19826     19822     19826     19830     19832
     19822     19826     19830     19833     19822     19826     19830     19834
     19824     19822     19826     19828     19824     19822     19826     19829
     19824     19822     19826     19830     19825     19822     19826     19828
     19825     19822     19826     19829     19825     19822     19826     19830
     19826     19830     19834     19836     19826     19830     19834     19837
     19826     19830     19834     19838     19828     19826     19830     19832
     19828     19826     19830     19833     19828     19826     19830     19834
     19829     19826     19830     19832     19829     19826     19830     19833
     19829     19826     19830     19834     19832     19830     19834     19836
     19832     19830     19834     19837     19832     19830     19834     19838
     19833     19830     19834     19836     19833     19830     19834     19837
     19833     19830     19834     19838     19839     19844     19848     19850
     19839     19844     19848     19851     19839     19844     19848     19860
     19841     19839     19844     19846     19841     19839     19844     19847
     19841     19839     19844     19848     19842     19839     19844     19846
     19842     19839     19844     19847     19842     19839     19844     19848
     19843     19839     19844     19846     19843     19839     19844     19847
     19843     19839     19844     19848     19844     19848     19860     19852
     19846     19844     19848     19850     19846     19844     19848     19851
     19846     19844     19848     19860     19847     19844     19848     19850
     19847     19844     19848     19851     19847     19844     19848     19860
     19848     19860     19852     19854     19848     19860     19852     19856
     19848     19860     19852     19858     19850     19848     19860     19852
     19851     19848     19860     19852     19852     19858     19862     19864
     19852     19858     19862     19865     19852     19858     19862     19866
     19854     19852     19858     19862     19856     19852     19858     19862
     19858     19862     19866     19868     19858     19862     19866     19869
     19858     19862     19866     19883     19860     19852     19858     19862
     19862     19866     19869     19871     19862     19866     19883     19885
     19862     19866     19883     19886     19862     19866     19883     19887
     19864     19862     19866     19868     19864     19862     19866     19869
     19864     19862     19866     19883     19865     19862     19866     19868
     19865     19862     19866     19869     19865     19862     19866     19883
     19866     19869     19871     19873     19866     19869     19871     19875
     19866     19883     19887     19889     19868     19866     19869     19871
     19868     19866     19883     19885     19868     19866     19883     19886
     19868     19866     19883     19887     19869     19866     19883     19885
     19869     19866     19883     19886     19869     19866     19883     19887
     19869     19871     19875     19877     19869     19871     19875     19878
     19869     19871     19875     19901     19871     19869     19866     19883
     19871     19875     19901     19903     19871     19875     19901     19904
     19871     19875     19901     19905     19873     19871     19875     19877
     19873     19871     19875     19878     19873     19871     19875     19901
     19875     19901     19905     19907     19875     19901     19905     19908
     19875     19901     19905     19909     19877     19875     19901     19903
     19877     19875     19901     19904     19877     19875     19901     19905
     19878     19875     19901     19903     19878     19875     19901     19904
     19878     19875     19901     19905     19883     19887     19889     19891
     19883     19887     19889     19893     19885     19883     19887     19889
     19886     19883     19887     19889     19887     19889     19893     19895
     19887     19889     19893     19896     19887     19889     19893     19964
     19889     19893     19964     19966     19889     19893     19964     19967
     19889     19893     19964     19968     19891     19889     19893     19895
     19891     19889     19893     19896     19891     19889     19893     19964
     19893     19964     19968     19970     19893     19964     19968     19971
     19893     19964     19968     19972     19895     19893     19964     19966
     19895     19893     19964     19967     19895     19893     19964     19968
     19896     19893     19964     19966     19896     19893     19964     19967
     19896     19893     19964     19968     19901     19905     19909     19911
     19901     19905     19909     19912     19901     19905     19909     19913
     19903     19901     19905     19907     19903     19901     19905     19908
     19903     19901     19905     19909     19904     19901     19905     19907
     19904     19901     19905     19908     19904     19901     19905     19909
     19905     19909     19913     19915     19905     19909     19913     19916
     19905     19909     19913     19917     19907     19905     19909     19911
     19907     19905     19909     19912     19907     19905     19909     19913
     19908     19905     19909     19911     19908     19905     19909     19912
     19908     19905     19909     19913     19909     19913     19917     19919
     19909     19913     19917     19920     19909     19913     19917     19921
     19911     19909     19913     19915     19911     19909     19913     19916
     19911     19909     19913     19917     19912     19909     19913     19915
     19912     19909     19913     19916     19912     19909     19913     19917
     19913     19917     19921     19923     19913     19917     19921     19924
     19913     19917     19921     19925     19915     19913     19917     19919
     19915     19913     19917     19920     19915     19913     19917     19921
     19916     19913     19917     19919     19916     19913     19917     19920
     19916     19913     19917     19921     19917     19921     19925     19927
     19917     19921     19925     19928     19919     19917     19921     19923
     19919     19917     19921     19924     19919     19917     19921     19925
     19920     19917     19921     19923     19920     19917     19921     19924
     19920     19917     19921     19925     19921     19925     19928     19930
     19921     19925     19928     19931     19923     19921     19925     19927
     19923     19921     19925     19928     19924     19921     19925     19927
     19924     19921     19925     19928     19925     19928     19931     19933
     19925     19928     19931     19934     19925     19928     19931     19935
     19927     19925     19928     19930     19927     19925     19928     19931
     19928     19931     19935     19937     19928     19931     19935     19938
     19928     19931     19935     19939     19930     19928     19931     19933
     19930     19928     19931     19934     19930     19928     19931     19935
     19931     19935     19939     19941     19931     19935     19939     19942
     19931     19935     19939     19943     19933     19931     19935     19937
     19933     19931     19935     19938     19933     19931     19935     19939
     19934     19931     19935     19937     19934     19931     19935     19938
     19934     19931     19935     19939     19935     19939     19943     19945
     19935     19939     19943     19946     19935     19939     19943     19947
     19937     19935     19939     19941     19937     19935     19939     19942
     19937     19935     19939     19943     19938     19935     19939     19941
     19938     19935     19939     19942     19938     19935     19939     19943
     19939     19943     19947     19949     19939     19943     19947     19950
     19939     19943     19947     19951     19941     19939     19943     19945
     19941     19939     19943     19946     19941     19939     19943     19947
     19942     19939     19943     19945     19942     19939     19943     19946
     19942     19939     19943     19947     19943     19947     19951     19953
     19943     19947     19951     19954     19943     19947     19951     19955
     19945     19943     19947     19949     19945     19943     19947     19950
     19945     19943     19947     19951     19946     19943     19947     19949
     19946     19943     19947     19950     19946     19943     19947     19951
     19947     19951     19955     19957     19947     19951     19955     19958
     19947     19951     19955     19959     19949     19947     19951     19953
     19949     19947     19951     19954     19949     19947     19951     19955
     19950     19947     19951     19953     19950     19947     19951     19954
     19950     19947     19951     19955     19951     19955     19959     19961
     19951     19955     19959     19962     19951     19955     19959     19963
     19953     19951     19955     19957     19953     19951     19955     19958
     19953     19951     19955     19959     19954     19951     19955     19957
     19954     19951     19955     19958     19954     19951     19955     19959
     19957     19955     19959     19961     19957     19955     19959     19962
     19957     19955     19959     19963     19958     19955     19959     19961
     19958     19955     19959     19962     19958     19955     19959     19963
     19964     19968     19972     19974     19964     19968     19972     19975
     19964     19968     19972     19976     19966     19964     19968     19970
     19966     19964     19968     19971     19966     19964     19968     19972
     19967     19964     19968     19970     19967     19964     19968     19971
     19967     19964     19968     19972     19968     19972     19976     19978
     19968     19972     19976     19979     19968     19972     19976     19980
     19970     19968     19972     19974     19970     19968     19972     19975
     19970     19968     19972     19976     19971     19968     19972     19974
     19971     19968     19972     19975     19971     19968     19972     19976
     19972     19976     19980     19982     19972     19976     19980     19983
     19972     19976     19980     19984     19974     19972     19976     19978
     19974     19972     19976     19979     19974     19972     19976     19980
     19975     19972     19976     19978     19975     19972     19976     19979
     19975     19972     19976     19980     19976     19980     19984     19986
     19976     19980     19984     19987     19976     19980     19984     19988
     19978     19976     19980     19982     19978     19976     19980     19983
     19978     19976     19980     19984     19979     19976     19980     19982
     19979     19976     19980     19983     19979     19976     19980     19984
     19980     19984     19988     19990     19980     19984     19988     19991
     19980     19984     19988     19992     19982     19980     19984     19986
     19982     19980     19984     19987     19982     19980     19984     19988
     19983     19980     19984     19986     19983     19980     19984     19987
     19983     19980     19984     19988     19984     19988     19992     19994
     19984     19988     19992     19995     19984     19988     19992     19996
     19986     19984     19988     19990     19986     19984     19988     19991
     19986     19984     19988     19992     19987     19984     19988     19990
     19987     19984     19988     19991     19987     19984     19988     19992
     19988     19992     19996     19998     19988     19992     19996     19999
     19988     19992     19996     20000     19990     19988     19992     19994
     19990     19988     19992     19995     19990     19988     19992     19996
     19991     19988     19992     19994     19991     19988     19992     19995
     19991     19988     19992     19996     19992     19996     20000     20002
     19992     19996     20000     20003     19992     19996     20000     20004
     19994     19992     19996     19998     19994     19992     19996     19999
     19994     19992     19996     20000     19995     19992     19996     19998
     19995     19992     19996     19999     19995     19992     19996     20000
     19996     20000     20004     20006     19996     20000     20004     20007
     19996     20000     20004     20008     19998     19996     20000     20002
     19998     19996     20000     20003     19998     19996     20000     20004
     19999     19996     20000     20002     19999     19996     20000     20003
     19999     19996     20000     20004     20000     20004     20008     20010
     20000     20004     20008     20011     20000     20004     20008     20012
     20002     20000     20004     20006     20002     20000     20004     20007
     20002     20000     20004     20008     20003     20000     20004     20006
     20003     20000     20004     20007     20003     20000     20004     20008
     20004     20008     20012     20014     20004     20008     20012     20015
     20004     20008     20012     20016     20006     20004     20008     20010
     20006     20004     20008     20011     20006     20004     20008     20012
     20007     20004     20008     20010     20007     20004     20008     20011
     20007     20004     20008     20012     20008     20012     20016     20018
     20008     20012     20016     20019     20008     20012     20016     20020
     20010     20008     20012     20014     20010     20008     20012     20015
     20010     20008     20012     20016     20011     20008     20012     20014
     20011     20008     20012     20015     20011     20008     20012     20016
     20014     20012     20016     20018     20014     20012     20016     20019
     20014     20012     20016     20020     20015     20012     20016     20018
     20015     20012     20016     20019     20015     20012     20016     20020
     20021     20026     20030     20032     20021     20026     20030     20033
     20021     20026     20030     20042     20023     20021     20026     20028
     20023     20021     20026     20029     20023     20021     20026     20030
     20024     20021     20026     20028     20024     20021     20026     20029
     20024     20021     20026     20030     20025     20021     20026     20028
     20025     20021     20026     20029     20025     20021     20026     20030
     20026     20030     20042     20034     20028     20026     20030     20032
     20028     20026     20030     20033     20028     20026     20030     20042
     20029     20026     20030     20032     20029     20026     20030     20033
     20029     20026     20030     20042     20030     20042     20034     20036
     20030     20042     20034     20038     20030     20042     20034     20040
     20032     20030     20042     20034     20033     20030     20042     20034
     20034     20040     20044     20046     20034     20040     20044     20047
     20034     20040     20044     20048     20036     20034     20040     20044
     20038     20034     20040     20044     20040     20044     20048     20050
     20040     20044     20048     20051     20040     20044     20048     20065
     20042     20034     20040     20044     20044     20048     20051     20053
     20044     20048     20065     20067     20044     20048     20065     20068
     20044     20048     20065     20069     20046     20044     20048     20050
     20046     20044     20048     20051     20046     20044     20048     20065
     20047     20044     20048     20050     20047     20044     20048     20051
     20047     20044     20048     20065     20048     20051     20053     20055
     20048     20051     20053     20057     20048     20065     20069     20071
     20050     20048     20051     20053     20050     20048     20065     20067
     20050     20048     20065     20068     20050     20048     20065     20069
     20051     20048     20065     20067     20051     20048     20065     20068
     20051     20048     20065     20069     20051     20053     20057     20059
     20051     20053     20057     20060     20051     20053     20057     20083
     20053     20051     20048     20065     20053     20057     20083     20085
     20053     20057     20083     20086     20053     20057     20083     20087
     20055     20053     20057     20059     20055     20053     20057     20060
     20055     20053     20057     20083     20057     20083     20087     20089
     20057     20083     20087     20090     20057     20083     20087     20091
     20059     20057     20083     20085     20059     20057     20083     20086
     20059     20057     20083     20087     20060     20057     20083     20085
     20060     20057     20083     20086     20060     20057     20083     20087
     20065     20069     20071     20073     20065     20069     20071     20075
     20067     20065     20069     20071     20068     20065     20069     20071
     20069     20071     20075     20077     20069     20071     20075     20078
     20069     20071     20075     20146     20071     20075     20146     20148
     20071     20075     20146     20149     20071     20075     20146     20150
     20073     20071     20075     20077     20073     20071     20075     20078
     20073     20071     20075     20146     20075     20146     20150     20152
     20075     20146     20150     20153     20075     20146     20150     20154
     20077     20075     20146     20148     20077     20075     20146     20149
     20077     20075     20146     20150     20078     20075     20146     20148
     20078     20075     20146     20149     20078     20075     20146     20150
     20083     20087     20091     20093     20083     20087     20091     20094
     20083     20087     20091     20095     20085     20083     20087     20089
     20085     20083     20087     20090     20085     20083     20087     20091
     20086     20083     20087     20089     20086     20083     20087     20090
     20086     20083     20087     20091     20087     20091     20095     20097
     20087     20091     20095     20098     20087     20091     20095     20099
     20089     20087     20091     20093     20089     20087     20091     20094
     20089     20087     20091     20095     20090     20087     20091     20093
     20090     20087     20091     20094     20090     20087     20091     20095
     20091     20095     20099     20101     20091     20095     20099     20102
     20091     20095     20099     20103     20093     20091     20095     20097
     20093     20091     20095     20098     20093     20091     20095     20099
     20094     20091     20095     20097     20094     20091     20095     20098
     20094     20091     20095     20099     20095     20099     20103     20105
     20095     20099     20103     20106     20095     20099     20103     20107
     20097     20095     20099     20101     20097     20095     20099     20102
     20097     20095     20099     20103     20098     20095     20099     20101
     20098     20095     20099     20102     20098     20095     20099     20103
     20099     20103     20107     20109     20099     20103     20107     20110
     20101     20099     20103     20105     20101     20099     20103     20106
     20101     20099     20103     20107     20102     20099     20103     20105
     20102     20099     20103     20106     20102     20099     20103     20107
     20103     20107     20110     20112     20103     20107     20110     20113
     20105     20103     20107     20109     20105     20103     20107     20110
     20106     20103     20107     20109     20106     20103     20107     20110
     20107     20110     20113     20115     20107     20110     20113     20116
     20107     20110     20113     20117     20109     20107     20110     20112
     20109     20107     20110     20113     20110     20113     20117     20119
     20110     20113     20117     20120     20110     20113     20117     20121
     20112     20110     20113     20115     20112     20110     20113     20116
     20112     20110     20113     20117     20113     20117     20121     20123
     20113     20117     20121     20124     20113     20117     20121     20125
     20115     20113     20117     20119     20115     20113     20117     20120
     20115     20113     20117     20121     20116     20113     20117     20119
     20116     20113     20117     20120     20116     20113     20117     20121
     20117     20121     20125     20127     20117     20121     20125     20128
     20117     20121     20125     20129     20119     20117     20121     20123
     20119     20117     20121     20124     20119     20117     20121     20125
     20120     20117     20121     20123     20120     20117     20121     20124
     20120     20117     20121     20125     20121     20125     20129     20131
     20121     20125     20129     20132     20121     20125     20129     20133
     20123     20121     20125     20127     20123     20121     20125     20128
     20123     20121     20125     20129     20124     20121     20125     20127
     20124     20121     20125     20128     20124     20121     20125     20129
     20125     20129     20133     20135     20125     20129     20133     20136
     20125     20129     20133     20137     20127     20125     20129     20131
     20127     20125     20129     20132     20127     20125     20129     20133
     20128     20125     20129     20131     20128     20125     20129     20132
     20128     20125     20129     20133     20129     20133     20137     20139
     20129     20133     20137     20140     20129     20133     20137     20141
     20131     20129     20133     20135     20131     20129     20133     20136
     20131     20129     20133     20137     20132     20129     20133     20135
     20132     20129     20133     20136     20132     20129     20133     20137
     20133     20137     20141     20143     20133     20137     20141     20144
     20133     20137     20141     20145     20135     20133     20137     20139
     20135     20133     20137     20140     20135     20133     20137     20141
     20136     20133     20137     20139     20136     20133     20137     20140
     20136     20133     20137     20141     20139     20137     20141     20143
     20139     20137     20141     20144     20139     20137     20141     20145
     20140     20137     20141     20143     20140     20137     20141     20144
     20140     20137     20141     20145     20146     20150     20154     20156
     20146     20150     20154     20157     20146     20150     20154     20158
     20148     20146     20150     20152     20148     20146     20150     20153
     20148     20146     20150     20154     20149     20146     20150     20152
     20149     20146     20150     20153     20149     20146     20150     20154
     20150     20154     20158     20160     20150     20154     20158     20161
     20150     20154     20158     20162     20152     20150     20154     20156
     20152     20150     20154     20157     20152     20150     20154     20158
     20153     20150     20154     20156     20153     20150     20154     20157
     20153     20150     20154     20158     20154     20158     20162     20164
     20154     20158     20162     20165     20154     20158     20162     20166
     20156     20154     20158     20160     20156     20154     20158     20161
     20156     20154     20158     20162     20157     20154     20158     20160
     20157     20154     20158     20161     20157     20154     20158     20162
     20158     20162     20166     20168     20158     20162     20166     20169
     20158     20162     20166     20170     20160     20158     20162     20164
     20160     20158     20162     20165     20160     20158     20162     20166
     20161     20158     20162     20164     20161     20158     20162     20165
     20161     20158     20162     20166     20162     20166     20170     20172
     20162     20166     20170     20173     20162     20166     20170     20174
     20164     20162     20166     20168     20164     20162     20166     20169
     20164     20162     20166     20170     20165     20162     20166     20168
     20165     20162     20166     20169     20165     20162     20166     20170
     20166     20170     20174     20176     20166     20170     20174     20177
     20166     20170     20174     20178     20168     20166     20170     20172
     20168     20166     20170     20173     20168     20166     20170     20174
     20169     20166     20170     20172     20169     20166     20170     20173
     20169     20166     20170     20174     20170     20174     20178     20180
     20170     20174     20178     20181     20170     20174     20178     20182
     20172     20170     20174     20176     20172     20170     20174     20177
     20172     20170     20174     20178     20173     20170     20174     20176
     20173     20170     20174     20177     20173     20170     20174     20178
     20174     20178     20182     20184     20174     20178     20182     20185
     20174     20178     20182     20186     20176     20174     20178     20180
     20176     20174     20178     20181     20176     20174     20178     20182
     20177     20174     20178     20180     20177     20174     20178     20181
     20177     20174     20178     20182     20178     20182     20186     20188
     20178     20182     20186     20189     20178     20182     20186     20190
     20180     20178     20182     20184     20180     20178     20182     20185
     20180     20178     20182     20186     20181     20178     20182     20184
     20181     20178     20182     20185     20181     20178     20182     20186
     20182     20186     20190     20192     20182     20186     20190     20193
     20182     20186     20190     20194     20184     20182     20186     20188
     20184     20182     20186     20189     20184     20182     20186     20190
     20185     20182     20186     20188     20185     20182     20186     20189
     20185     20182     20186     20190     20186     20190     20194     20196
     20186     20190     20194     20197     20186     20190     20194     20198
     20188     20186     20190     20192     20188     20186     20190     20193
     20188     20186     20190     20194     20189     20186     20190     20192
     20189     20186     20190     20193     20189     20186     20190     20194
     20190     20194     20198     20200     20190     20194     20198     20201
     20190     20194     20198     20202     20192     20190     20194     20196
     20192     20190     20194     20197     20192     20190     20194     20198
     20193     20190     20194     20196     20193     20190     20194     20197
     20193     20190     20194     20198     20196     20194     20198     20200
     20196     20194     20198     20201     20196     20194     20198     20202
     20197     20194     20198     20200     20197     20194     20198     20201
     20197     20194     20198     20202     20203     20208     20212     20214
     20203     20208     20212     20215     20203     20208     20212     20224
     20205     20203     20208     20210     20205     20203     20208     20211
     20205     20203     20208     20212     20206     20203     20208     20210
     20206     20203     20208     20211     20206     20203     20208     20212
     20207     20203     20208     20210     20207     20203     20208     20211
     20207     20203     20208     20212     20208     20212     20224     20216
     20210     20208     20212     20214     20210     20208     20212     20215
     20210     20208     20212     20224     20211     20208     20212     20214
     20211     20208     20212     20215     20211     20208     20212     20224
     20212     20224     20216     20218     20212     20224     20216     20220
     20212     20224     20216     20222     20214     20212     20224     20216
     20215     20212     20224     20216     20216     20222     20226     20228
     20216     20222     20226     20229     20216     20222     20226     20230
     20218     20216     20222     20226     20220     20216     20222     20226
     20222     20226     20230     20232     20222     20226     20230     20233
     20222     20226     20230     20247     20224     20216     20222     20226
     20226     20230     20233     20235     20226     20230     20247     20249
     20226     20230     20247     20250     20226     20230     20247     20251
     20228     20226     20230     20232     20228     20226     20230     20233
     20228     20226     20230     20247     20229     20226     20230     20232
     20229     20226     20230     20233     20229     20226     20230     20247
     20230     20233     20235     20237     20230     20233     20235     20239
     20230     20247     20251     20253     20232     20230     20233     20235
     20232     20230     20247     20249     20232     20230     20247     20250
     20232     20230     20247     20251     20233     20230     20247     20249
     20233     20230     20247     20250     20233     20230     20247     20251
     20233     20235     20239     20241     20233     20235     20239     20242
     20233     20235     20239     20265     20235     20233     20230     20247
     20235     20239     20265     20267     20235     20239     20265     20268
     20235     20239     20265     20269     20237     20235     20239     20241
     20237     20235     20239     20242     20237     20235     20239     20265
     20239     20265     20269     20271     20239     20265     20269     20272
     20239     20265     20269     20273     20241     20239     20265     20267
     20241     20239     20265     20268     20241     20239     20265     20269
     20242     20239     20265     20267     20242     20239     20265     20268
     20242     20239     20265     20269     20247     20251     20253     20255
     20247     20251     20253     20257     20249     20247     20251     20253
     20250     20247     20251     20253     20251     20253     20257     20259
     20251     20253     20257     20260     20251     20253     20257     20328
     20253     20257     20328     20330     20253     20257     20328     20331
     20253     20257     20328     20332     20255     20253     20257     20259
     20255     20253     20257     20260     20255     20253     20257     20328
     20257     20328     20332     20334     20257     20328     20332     20335
     20257     20328     20332     20336     20259     20257     20328     20330
     20259     20257     20328     20331     20259     20257     20328     20332
     20260     20257     20328     20330     20260     20257     20328     20331
     20260     20257     20328     20332     20265     20269     20273     20275
     20265     20269     20273     20276     20265     20269     20273     20277
     20267     20265     20269     20271     20267     20265     20269     20272
     20267     20265     20269     20273     20268     20265     20269     20271
     20268     20265     20269     20272     20268     20265     20269     20273
     20269     20273     20277     20279     20269     20273     20277     20280
     20269     20273     20277     20281     20271     20269     20273     20275
     20271     20269     20273     20276     20271     20269     20273     20277
     20272     20269     20273     20275     20272     20269     20273     20276
     20272     20269     20273     20277     20273     20277     20281     20283
     20273     20277     20281     20284     20273     20277     20281     20285
     20275     20273     20277     20279     20275     20273     20277     20280
     20275     20273     20277     20281     20276     20273     20277     20279
     20276     20273     20277     20280     20276     20273     20277     20281
     20277     20281     20285     20287     20277     20281     20285     20288
     20277     20281     20285     20289     20279     20277     20281     20283
     20279     20277     20281     20284     20279     20277     20281     20285
     20280     20277     20281     20283     20280     20277     20281     20284
     20280     20277     20281     20285     20281     20285     20289     20291
     20281     20285     20289     20292     20283     20281     20285     20287
     20283     20281     20285     20288     20283     20281     20285     20289
     20284     20281     20285     20287     20284     20281     20285     20288
     20284     20281     20285     20289     20285     20289     20292     20294
     20285     20289     20292     20295     20287     20285     20289     20291
     20287     20285     20289     20292     20288     20285     20289     20291
     20288     20285     20289     20292     20289     20292     20295     20297
     20289     20292     20295     20298     20289     20292     20295     20299
     20291     20289     20292     20294     20291     20289     20292     20295
     20292     20295     20299     20301     20292     20295     20299     20302
     20292     20295     20299     20303     20294     20292     20295     20297
     20294     20292     20295     20298     20294     20292     20295     20299
     20295     20299     20303     20305     20295     20299     20303     20306
     20295     20299     20303     20307     20297     20295     20299     20301
     20297     20295     20299     20302     20297     20295     20299     20303
     20298     20295     20299     20301     20298     20295     20299     20302
     20298     20295     20299     20303     20299     20303     20307     20309
     20299     20303     20307     20310     20299     20303     20307     20311
     20301     20299     20303     20305     20301     20299     20303     20306
     20301     20299     20303     20307     20302     20299     20303     20305
     20302     20299     20303     20306     20302     20299     20303     20307
     20303     20307     20311     20313     20303     20307     20311     20314
     20303     20307     20311     20315     20305     20303     20307     20309
     20305     20303     20307     20310     20305     20303     20307     20311
     20306     20303     20307     20309     20306     20303     20307     20310
     20306     20303     20307     20311     20307     20311     20315     20317
     20307     20311     20315     20318     20307     20311     20315     20319
     20309     20307     20311     20313     20309     20307     20311     20314
     20309     20307     20311     20315     20310     20307     20311     20313
     20310     20307     20311     20314     20310     20307     20311     20315
     20311     20315     20319     20321     20311     20315     20319     20322
     20311     20315     20319     20323     20313     20311     20315     20317
     20313     20311     20315     20318     20313     20311     20315     20319
     20314     20311     20315     20317     20314     20311     20315     20318
     20314     20311     20315     20319     20315     20319     20323     20325
     20315     20319     20323     20326     20315     20319     20323     20327
     20317     20315     20319     20321     20317     20315     20319     20322
     20317     20315     20319     20323     20318     20315     20319     20321
     20318     20315     20319     20322     20318     20315     20319     20323
     20321     20319     20323     20325     20321     20319     20323     20326
     20321     20319     20323     20327     20322     20319     20323     20325
     20322     20319     20323     20326     20322     20319     20323     20327
     20328     20332     20336     20338     20328     20332     20336     20339
     20328     20332     20336     20340     20330     20328     20332     20334
     20330     20328     20332     20335     20330     20328     20332     20336
     20331     20328     20332     20334     20331     20328     20332     20335
     20331     20328     20332     20336     20332     20336     20340     20342
     20332     20336     20340     20343     20332     20336     20340     20344
     20334     20332     20336     20338     20334     20332     20336     20339
     20334     20332     20336     20340     20335     20332     20336     20338
     20335     20332     20336     20339     20335     20332     20336     20340
     20336     20340     20344     20346     20336     20340     20344     20347
     20336     20340     20344     20348     20338     20336     20340     20342
     20338     20336     20340     20343     20338     20336     20340     20344
     20339     20336     20340     20342     20339     20336     20340     20343
     20339     20336     20340     20344     20340     20344     20348     20350
     20340     20344     20348     20351     20340     20344     20348     20352
     20342     20340     20344     20346     20342     20340     20344     20347
     20342     20340     20344     20348     20343     20340     20344     20346
     20343     20340     20344     20347     20343     20340     20344     20348
     20344     20348     20352     20354     20344     20348     20352     20355
     20344     20348     20352     20356     20346     20344     20348     20350
     20346     20344     20348     20351     20346     20344     20348     20352
     20347     20344     20348     20350     20347     20344     20348     20351
     20347     20344     20348     20352     20348     20352     20356     20358
     20348     20352     20356     20359     20348     20352     20356     20360
     20350     20348     20352     20354     20350     20348     20352     20355
     20350     20348     20352     20356     20351     20348     20352     20354
     20351     20348     20352     20355     20351     20348     20352     20356
     20352     20356     20360     20362     20352     20356     20360     20363
     20352     20356     20360     20364     20354     20352     20356     20358
     20354     20352     20356     20359     20354     20352     20356     20360
     20355     20352     20356     20358     20355     20352     20356     20359
     20355     20352     20356     20360     20356     20360     20364     20366
     20356     20360     20364     20367     20356     20360     20364     20368
     20358     20356     20360     20362     20358     20356     20360     20363
     20358     20356     20360     20364     20359     20356     20360     20362
     20359     20356     20360     20363     20359     20356     20360     20364
     20360     20364     20368     20370     20360     20364     20368     20371
     20360     20364     20368     20372     20362     20360     20364     20366
     20362     20360     20364     20367     20362     20360     20364     20368
     20363     20360     20364     20366     20363     20360     20364     20367
     20363     20360     20364     20368     20364     20368     20372     20374
     20364     20368     20372     20375     20364     20368     20372     20376
     20366     20364     20368     20370     20366     20364     20368     20371
     20366     20364     20368     20372     20367     20364     20368     20370
     20367     20364     20368     20371     20367     20364     20368     20372
     20368     20372     20376     20378     20368     20372     20376     20379
     20368     20372     20376     20380     20370     20368     20372     20374
     20370     20368     20372     20375     20370     20368     20372     20376
     20371     20368     20372     20374     20371     20368     20372     20375
     20371     20368     20372     20376     20372     20376     20380     20382
     20372     20376     20380     20383     20372     20376     20380     20384
     20374     20372     20376     20378     20374     20372     20376     20379
     20374     20372     20376     20380     20375     20372     20376     20378
     20375     20372     20376     20379     20375     20372     20376     20380
     20378     20376     20380     20382     20378     20376     20380     20383
     20378     20376     20380     20384     20379     20376     20380     20382
     20379     20376     20380     20383     20379     20376     20380     20384
     20385     20390     20394     20396     20385     20390     20394     20397
     20385     20390     20394     20406     20387     20385     20390     20392
     20387     20385     20390     20393     20387     20385     20390     20394
     20388     20385     20390     20392     20388     20385     20390     20393
     20388     20385     20390     20394     20389     20385     20390     20392
     20389     20385     20390     20393     20389     20385     20390     20394
     20390     20394     20406     20398     20392     20390     20394     20396
     20392     20390     20394     20397     20392     20390     20394     20406
     20393     20390     20394     20396     20393     20390     20394     20397
     20393     20390     20394     20406     20394     20406     20398     20400
     20394     20406     20398     20402     20394     20406     20398     20404
     20396     20394     20406     20398     20397     20394     20406     20398
     20398     20404     20408     20410     20398     20404     20408     20411
     20398     20404     20408     20412     20400     20398     20404     20408
     20402     20398     20404     20408     20404     20408     20412     20414
     20404     20408     20412     20415     20404     20408     20412     20429
     20406     20398     20404     20408     20408     20412     20415     20417
     20408     20412     20429     20431     20408     20412     20429     20432
     20408     20412     20429     20433     20410     20408     20412     20414
     20410     20408     20412     20415     20410     20408     20412     20429
     20411     20408     20412     20414     20411     20408     20412     20415
     20411     20408     20412     20429     20412     20415     20417     20419
     20412     20415     20417     20421     20412     20429     20433     20435
     20414     20412     20415     20417     20414     20412     20429     20431
     20414     20412     20429     20432     20414     20412     20429     20433
     20415     20412     20429     20431     20415     20412     20429     20432
     20415     20412     20429     20433     20415     20417     20421     20423
     20415     20417     20421     20424     20415     20417     20421     20447
     20417     20415     20412     20429     20417     20421     20447     20449
     20417     20421     20447     20450     20417     20421     20447     20451
     20419     20417     20421     20423     20419     20417     20421     20424
     20419     20417     20421     20447     20421     20447     20451     20453
     20421     20447     20451     20454     20421     20447     20451     20455
     20423     20421     20447     20449     20423     20421     20447     20450
     20423     20421     20447     20451     20424     20421     20447     20449
     20424     20421     20447     20450     20424     20421     20447     20451
     20429     20433     20435     20437     20429     20433     20435     20439
     20431     20429     20433     20435     20432     20429     20433     20435
     20433     20435     20439     20441     20433     20435     20439     20442
     20433     20435     20439     20510     20435     20439     20510     20512
     20435     20439     20510     20513     20435     20439     20510     20514
     20437     20435     20439     20441     20437     20435     20439     20442
     20437     20435     20439     20510     20439     20510     20514     20516
     20439     20510     20514     20517     20439     20510     20514     20518
     20441     20439     20510     20512     20441     20439     20510     20513
     20441     20439     20510     20514     20442     20439     20510     20512
     20442     20439     20510     20513     20442     20439     20510     20514
     20447     20451     20455     20457     20447     20451     20455     20458
     20447     20451     20455     20459     20449     20447     20451     20453
     20449     20447     20451     20454     20449     20447     20451     20455
     20450     20447     20451     20453     20450     20447     20451     20454
     20450     20447     20451     20455     20451     20455     20459     20461
     20451     20455     20459     20462     20451     20455     20459     20463
     20453     20451     20455     20457     20453     20451     20455     20458
     20453     20451     20455     20459     20454     20451     20455     20457
     20454     20451     20455     20458     20454     20451     20455     20459
     20455     20459     20463     20465     20455     20459     20463     20466
     20455     20459     20463     20467     20457     20455     20459     20461
     20457     20455     20459     20462     20457     20455     20459     20463
     20458     20455     20459     20461     20458     20455     20459     20462
     20458     20455     20459     20463     20459     20463     20467     20469
     20459     20463     20467     20470     20459     20463     20467     20471
     20461     20459     20463     20465     20461     20459     20463     20466
     20461     20459     20463     20467     20462     20459     20463     20465
     20462     20459     20463     20466     20462     20459     20463     20467
     20463     20467     20471     20473     20463     20467     20471     20474
     20465     20463     20467     20469     20465     20463     20467     20470
     20465     20463     20467     20471     20466     20463     20467     20469
     20466     20463     20467     20470     20466     20463     20467     20471
     20467     20471     20474     20476     20467     20471     20474     20477
     20469     20467     20471     20473     20469     20467     20471     20474
     20470     20467     20471     20473     20470     20467     20471     20474
     20471     20474     20477     20479     20471     20474     20477     20480
     20471     20474     20477     20481     20473     20471     20474     20476
     20473     20471     20474     20477     20474     20477     20481     20483
     20474     20477     20481     20484     20474     20477     20481     20485
     20476     20474     20477     20479     20476     20474     20477     20480
     20476     20474     20477     20481     20477     20481     20485     20487
     20477     20481     20485     20488     20477     20481     20485     20489
     20479     20477     20481     20483     20479     20477     20481     20484
     20479     20477     20481     20485     20480     20477     20481     20483
     20480     20477     20481     20484     20480     20477     20481     20485
     20481     20485     20489     20491     20481     20485     20489     20492
     20481     20485     20489     20493     20483     20481     20485     20487
     20483     20481     20485     20488     20483     20481     20485     20489
     20484     20481     20485     20487     20484     20481     20485     20488
     20484     20481     20485     20489     20485     20489     20493     20495
     20485     20489     20493     20496     20485     20489     20493     20497
     20487     20485     20489     20491     20487     20485     20489     20492
     20487     20485     20489     20493     20488     20485     20489     20491
     20488     20485     20489     20492     20488     20485     20489     20493
     20489     20493     20497     20499     20489     20493     20497     20500
     20489     20493     20497     20501     20491     20489     20493     20495
     20491     20489     20493     20496     20491     20489     20493     20497
     20492     20489     20493     20495     20492     20489     20493     20496
     20492     20489     20493     20497     20493     20497     20501     20503
     20493     20497     20501     20504     20493     20497     20501     20505
     20495     20493     20497     20499     20495     20493     20497     20500
     20495     20493     20497     20501     20496     20493     20497     20499
     20496     20493     20497     20500     20496     20493     20497     20501
     20497     20501     20505     20507     20497     20501     20505     20508
     20497     20501     20505     20509     20499     20497     20501     20503
     20499     20497     20501     20504     20499     20497     20501     20505
     20500     20497     20501     20503     20500     20497     20501     20504
     20500     20497     20501     20505     20503     20501     20505     20507
     20503     20501     20505     20508     20503     20501     20505     20509
     20504     20501     20505     20507     20504     20501     20505     20508
     20504     20501     20505     20509     20510     20514     20518     20520
     20510     20514     20518     20521     20510     20514     20518     20522
     20512     20510     20514     20516     20512     20510     20514     20517
     20512     20510     20514     20518     20513     20510     20514     20516
     20513     20510     20514     20517     20513     20510     20514     20518
     20514     20518     20522     20524     20514     20518     20522     20525
     20514     20518     20522     20526     20516     20514     20518     20520
     20516     20514     20518     20521     20516     20514     20518     20522
     20517     20514     20518     20520     20517     20514     20518     20521
     20517     20514     20518     20522     20518     20522     20526     20528
     20518     20522     20526     20529     20518     20522     20526     20530
     20520     20518     20522     20524     20520     20518     20522     20525
     20520     20518     20522     20526     20521     20518     20522     20524
     20521     20518     20522     20525     20521     20518     20522     20526
     20522     20526     20530     20532     20522     20526     20530     20533
     20522     20526     20530     20534     20524     20522     20526     20528
     20524     20522     20526     20529     20524     20522     20526     20530
     20525     20522     20526     20528     20525     20522     20526     20529
     20525     20522     20526     20530     20526     20530     20534     20536
     20526     20530     20534     20537     20526     20530     20534     20538
     20528     20526     20530     20532     20528     20526     20530     20533
     20528     20526     20530     20534     20529     20526     20530     20532
     20529     20526     20530     20533     20529     20526     20530     20534
     20530     20534     20538     20540     20530     20534     20538     20541
     20530     20534     20538     20542     20532     20530     20534     20536
     20532     20530     20534     20537     20532     20530     20534     20538
     20533     20530     20534     20536     20533     20530     20534     20537
     20533     20530     20534     20538     20534     20538     20542     20544
     20534     20538     20542     20545     20534     20538     20542     20546
     20536     20534     20538     20540     20536     20534     20538     20541
     20536     20534     20538     20542     20537     20534     20538     20540
     20537     20534     20538     20541     20537     20534     20538     20542
     20538     20542     20546     20548     20538     20542     20546     20549
     20538     20542     20546     20550     20540     20538     20542     20544
     20540     20538     20542     20545     20540     20538     20542     20546
     20541     20538     20542     20544     20541     20538     20542     20545
     20541     20538     20542     20546     20542     20546     20550     20552
     20542     20546     20550     20553     20542     20546     20550     20554
     20544     20542     20546     20548     20544     20542     20546     20549
     20544     20542     20546     20550     20545     20542     20546     20548
     20545     20542     20546     20549     20545     20542     20546     20550
     20546     20550     20554     20556     20546     20550     20554     20557
     20546     20550     20554     20558     20548     20546     20550     20552
     20548     20546     20550     20553     20548     20546     20550     20554
     20549     20546     20550     20552     20549     20546     20550     20553
     20549     20546     20550     20554     20550     20554     20558     20560
     20550     20554     20558     20561     20550     20554     20558     20562
     20552     20550     20554     20556     20552     20550     20554     20557
     20552     20550     20554     20558     20553     20550     20554     20556
     20553     20550     20554     20557     20553     20550     20554     20558
     20554     20558     20562     20564     20554     20558     20562     20565
     20554     20558     20562     20566     20556     20554     20558     20560
     20556     20554     20558     20561     20556     20554     20558     20562
     20557     20554     20558     20560     20557     20554     20558     20561
     20557     20554     20558     20562     20560     20558     20562     20564
     20560     20558     20562     20565     20560     20558     20562     20566
     20561     20558     20562     20564     20561     20558     20562     20565
     20561     20558     20562     20566     20567     20572     20576     20578
     20567     20572     20576     20579     20567     20572     20576     20588
     20569     20567     20572     20574     20569     20567     20572     20575
     20569     20567     20572     20576     20570     20567     20572     20574
     20570     20567     20572     20575     20570     20567     20572     20576
     20571     20567     20572     20574     20571     20567     20572     20575
     20571     20567     20572     20576     20572     20576     20588     20580
     20574     20572     20576     20578     20574     20572     20576     20579
     20574     20572     20576     20588     20575     20572     20576     20578
     20575     20572     20576     20579     20575     20572     20576     20588
     20576     20588     20580     20582     20576     20588     20580     20584
     20576     20588     20580     20586     20578     20576     20588     20580
     20579     20576     20588     20580     20580     20586     20590     20592
     20580     20586     20590     20593     20580     20586     20590     20594
     20582     20580     20586     20590     20584     20580     20586     20590
     20586     20590     20594     20596     20586     20590     20594     20597
     20586     20590     20594     20611     20588     20580     20586     20590
     20590     20594     20597     20599     20590     20594     20611     20613
     20590     20594     20611     20614     20590     20594     20611     20615
     20592     20590     20594     20596     20592     20590     20594     20597
     20592     20590     20594     20611     20593     20590     20594     20596
     20593     20590     20594     20597     20593     20590     20594     20611
     20594     20597     20599     20601     20594     20597     20599     20603
     20594     20611     20615     20617     20596     20594     20597     20599
     20596     20594     20611     20613     20596     20594     20611     20614
     20596     20594     20611     20615     20597     20594     20611     20613
     20597     20594     20611     20614     20597     20594     20611     20615
     20597     20599     20603     20605     20597     20599     20603     20606
     20597     20599     20603     20629     20599     20597     20594     20611
     20599     20603     20629     20631     20599     20603     20629     20632
     20599     20603     20629     20633     20601     20599     20603     20605
     20601     20599     20603     20606     20601     20599     20603     20629
     20603     20629     20633     20635     20603     20629     20633     20636
     20603     20629     20633     20637     20605     20603     20629     20631
     20605     20603     20629     20632     20605     20603     20629     20633
     20606     20603     20629     20631     20606     20603     20629     20632
     20606     20603     20629     20633     20611     20615     20617     20619
     20611     20615     20617     20621     20613     20611     20615     20617
     20614     20611     20615     20617     20615     20617     20621     20623
     20615     20617     20621     20624     20615     20617     20621     20692
     20617     20621     20692     20694     20617     20621     20692     20695
     20617     20621     20692     20696     20619     20617     20621     20623
     20619     20617     20621     20624     20619     20617     20621     20692
     20621     20692     20696     20698     20621     20692     20696     20699
     20621     20692     20696     20700     20623     20621     20692     20694
     20623     20621     20692     20695     20623     20621     20692     20696
     20624     20621     20692     20694     20624     20621     20692     20695
     20624     20621     20692     20696     20629     20633     20637     20639
     20629     20633     20637     20640     20629     20633     20637     20641
     20631     20629     20633     20635     20631     20629     20633     20636
     20631     20629     20633     20637     20632     20629     20633     20635
     20632     20629     20633     20636     20632     20629     20633     20637
     20633     20637     20641     20643     20633     20637     20641     20644
     20633     20637     20641     20645     20635     20633     20637     20639
     20635     20633     20637     20640     20635     20633     20637     20641
     20636     20633     20637     20639     20636     20633     20637     20640
     20636     20633     20637     20641     20637     20641     20645     20647
     20637     20641     20645     20648     20637     20641     20645     20649
     20639     20637     20641     20643     20639     20637     20641     20644
     20639     20637     20641     20645     20640     20637     20641     20643
     20640     20637     20641     20644     20640     20637     20641     20645
     20641     20645     20649     20651     20641     20645     20649     20652
     20641     20645     20649     20653     20643     20641     20645     20647
     20643     20641     20645     20648     20643     20641     20645     20649
     20644     20641     20645     20647     20644     20641     20645     20648
     20644     20641     20645     20649     20645     20649     20653     20655
     20645     20649     20653     20656     20647     20645     20649     20651
     20647     20645     20649     20652     20647     20645     20649     20653
     20648     20645     20649     20651     20648     20645     20649     20652
     20648     20645     20649     20653     20649     20653     20656     20658
     20649     20653     20656     20659     20651     20649     20653     20655
     20651     20649     20653     20656     20652     20649     20653     20655
     20652     20649     20653     20656     20653     20656     20659     20661
     20653     20656     20659     20662     20653     20656     20659     20663
     20655     20653     20656     20658     20655     20653     20656     20659
     20656     20659     20663     20665     20656     20659     20663     20666
     20656     20659     20663     20667     20658     20656     20659     20661
     20658     20656     20659     20662     20658     20656     20659     20663
     20659     20663     20667     20669     20659     20663     20667     20670
     20659     20663     20667     20671     20661     20659     20663     20665
     20661     20659     20663     20666     20661     20659     20663     20667
     20662     20659     20663     20665     20662     20659     20663     20666
     20662     20659     20663     20667     20663     20667     20671     20673
     20663     20667     20671     20674     20663     20667     20671     20675
     20665     20663     20667     20669     20665     20663     20667     20670
     20665     20663     20667     20671     20666     20663     20667     20669
     20666     20663     20667     20670     20666     20663     20667     20671
     20667     20671     20675     20677     20667     20671     20675     20678
     20667     20671     20675     20679     20669     20667     20671     20673
     20669     20667     20671     20674     20669     20667     20671     20675
     20670     20667     20671     20673     20670     20667     20671     20674
     20670     20667     20671     20675     20671     20675     20679     20681
     20671     20675     20679     20682     20671     20675     20679     20683
     20673     20671     20675     20677     20673     20671     20675     20678
     20673     20671     20675     20679     20674     20671     20675     20677
     20674     20671     20675     20678     20674     20671     20675     20679
     20675     20679     20683     20685     20675     20679     20683     20686
     20675     20679     20683     20687     20677     20675     20679     20681
     20677     20675     20679     20682     20677     20675     20679     20683
     20678     20675     20679     20681     20678     20675     20679     20682
     20678     20675     20679     20683     20679     20683     20687     20689
     20679     20683     20687     20690     20679     20683     20687     20691
     20681     20679     20683     20685     20681     20679     20683     20686
     20681     20679     20683     20687     20682     20679     20683     20685
     20682     20679     20683     20686     20682     20679     20683     20687
     20685     20683     20687     20689     20685     20683     20687     20690
     20685     20683     20687     20691     20686     20683     20687     20689
     20686     20683     20687     20690     20686     20683     20687     20691
     20692     20696     20700     20702     20692     20696     20700     20703
     20692     20696     20700     20704     20694     20692     20696     20698
     20694     20692     20696     20699     20694     20692     20696     20700
     20695     20692     20696     20698     20695     20692     20696     20699
     20695     20692     20696     20700     20696     20700     20704     20706
     20696     20700     20704     20707     20696     20700     20704     20708
     20698     20696     20700     20702     20698     20696     20700     20703
     20698     20696     20700     20704     20699     20696     20700     20702
     20699     20696     20700     20703     20699     20696     20700     20704
     20700     20704     20708     20710     20700     20704     20708     20711
     20700     20704     20708     20712     20702     20700     20704     20706
     20702     20700     20704     20707     20702     20700     20704     20708
     20703     20700     20704     20706     20703     20700     20704     20707
     20703     20700     20704     20708     20704     20708     20712     20714
     20704     20708     20712     20715     20704     20708     20712     20716
     20706     20704     20708     20710     20706     20704     20708     20711
     20706     20704     20708     20712     20707     20704     20708     20710
     20707     20704     20708     20711     20707     20704     20708     20712
     20708     20712     20716     20718     20708     20712     20716     20719
     20708     20712     20716     20720     20710     20708     20712     20714
     20710     20708     20712     20715     20710     20708     20712     20716
     20711     20708     20712     20714     20711     20708     20712     20715
     20711     20708     20712     20716     20712     20716     20720     20722
     20712     20716     20720     20723     20712     20716     20720     20724
     20714     20712     20716     20718     20714     20712     20716     20719
     20714     20712     20716     20720     20715     20712     20716     20718
     20715     20712     20716     20719     20715     20712     20716     20720
     20716     20720     20724     20726     20716     20720     20724     20727
     20716     20720     20724     20728     20718     20716     20720     20722
     20718     20716     20720     20723     20718     20716     20720     20724
     20719     20716     20720     20722     20719     20716     20720     20723
     20719     20716     20720     20724     20720     20724     20728     20730
     20720     20724     20728     20731     20720     20724     20728     20732
     20722     20720     20724     20726     20722     20720     20724     20727
     20722     20720     20724     20728     20723     20720     20724     20726
     20723     20720     20724     20727     20723     20720     20724     20728
     20724     20728     20732     20734     20724     20728     20732     20735
     20724     20728     20732     20736     20726     20724     20728     20730
     20726     20724     20728     20731     20726     20724     20728     20732
     20727     20724     20728     20730     20727     20724     20728     20731
     20727     20724     20728     20732     20728     20732     20736     20738
     20728     20732     20736     20739     20728     20732     20736     20740
     20730     20728     20732     20734     20730     20728     20732     20735
     20730     20728     20732     20736     20731     20728     20732     20734
     20731     20728     20732     20735     20731     20728     20732     20736
     20732     20736     20740     20742     20732     20736     20740     20743
     20732     20736     20740     20744     20734     20732     20736     20738
     20734     20732     20736     20739     20734     20732     20736     20740
     20735     20732     20736     20738     20735     20732     20736     20739
     20735     20732     20736     20740     20736     20740     20744     20746
     20736     20740     20744     20747     20736     20740     20744     20748
     20738     20736     20740     20742     20738     20736     20740     20743
     20738     20736     20740     20744     20739     20736     20740     20742
     20739     20736     20740     20743     20739     20736     20740     20744
     20742     20740     20744     20746     20742     20740     20744     20747
     20742     20740     20744     20748     20743     20740     20744     20746
     20743     20740     20744     20747     20743     20740     20744     20748
     20749     20754     20758     20760     20749     20754     20758     20761
     20749     20754     20758     20770     20751     20749     20754     20756
     20751     20749     20754     20757     20751     20749     20754     20758
     20752     20749     20754     20756     20752     20749     20754     20757
     20752     20749     20754     20758     20753     20749     20754     20756
     20753     20749     20754     20757     20753     20749     20754     20758
     20754     20758     20770     20762     20756     20754     20758     20760
     20756     20754     20758     20761     20756     20754     20758     20770
     20757     20754     20758     20760     20757     20754     20758     20761
     20757     20754     20758     20770     20758     20770     20762     20764
     20758     20770     20762     20766     20758     20770     20762     20768
     20760     20758     20770     20762     20761     20758     20770     20762
     20762     20768     20772     20774     20762     20768     20772     20775
     20762     20768     20772     20776     20764     20762     20768     20772
     20766     20762     20768     20772     20768     20772     20776     20778
     20768     20772     20776     20779     20768     20772     20776     20793
     20770     20762     20768     20772     20772     20776     20779     20781
     20772     20776     20793     20795     20772     20776     20793     20796
     20772     20776     20793     20797     20774     20772     20776     20778
     20774     20772     20776     20779     20774     20772     20776     20793
     20775     20772     20776     20778     20775     20772     20776     20779
     20775     20772     20776     20793     20776     20779     20781     20783
     20776     20779     20781     20785     20776     20793     20797     20799
     20778     20776     20779     20781     20778     20776     20793     20795
     20778     20776     20793     20796     20778     20776     20793     20797
     20779     20776     20793     20795     20779     20776     20793     20796
     20779     20776     20793     20797     20779     20781     20785     20787
     20779     20781     20785     20788     20779     20781     20785     20811
     20781     20779     20776     20793     20781     20785     20811     20813
     20781     20785     20811     20814     20781     20785     20811     20815
     20783     20781     20785     20787     20783     20781     20785     20788
     20783     20781     20785     20811     20785     20811     20815     20817
     20785     20811     20815     20818     20785     20811     20815     20819
     20787     20785     20811     20813     20787     20785     20811     20814
     20787     20785     20811     20815     20788     20785     20811     20813
     20788     20785     20811     20814     20788     20785     20811     20815
     20793     20797     20799     20801     20793     20797     20799     20803
     20795     20793     20797     20799     20796     20793     20797     20799
     20797     20799     20803     20805     20797     20799     20803     20806
     20797     20799     20803     20874     20799     20803     20874     20876
     20799     20803     20874     20877     20799     20803     20874     20878
     20801     20799     20803     20805     20801     20799     20803     20806
     20801     20799     20803     20874     20803     20874     20878     20880
     20803     20874     20878     20881     20803     20874     20878     20882
     20805     20803     20874     20876     20805     20803     20874     20877
     20805     20803     20874     20878     20806     20803     20874     20876
     20806     20803     20874     20877     20806     20803     20874     20878
     20811     20815     20819     20821     20811     20815     20819     20822
     20811     20815     20819     20823     20813     20811     20815     20817
     20813     20811     20815     20818     20813     20811     20815     20819
     20814     20811     20815     20817     20814     20811     20815     20818
     20814     20811     20815     20819     20815     20819     20823     20825
     20815     20819     20823     20826     20815     20819     20823     20827
     20817     20815     20819     20821     20817     20815     20819     20822
     20817     20815     20819     20823     20818     20815     20819     20821
     20818     20815     20819     20822     20818     20815     20819     20823
     20819     20823     20827     20829     20819     20823     20827     20830
     20819     20823     20827     20831     20821     20819     20823     20825
     20821     20819     20823     20826     20821     20819     20823     20827
     20822     20819     20823     20825     20822     20819     20823     20826
     20822     20819     20823     20827     20823     20827     20831     20833
     20823     20827     20831     20834     20823     20827     20831     20835
     20825     20823     20827     20829     20825     20823     20827     20830
     20825     20823     20827     20831     20826     20823     20827     20829
     20826     20823     20827     20830     20826     20823     20827     20831
     20827     20831     20835     20837     20827     20831     20835     20838
     20829     20827     20831     20833     20829     20827     20831     20834
     20829     20827     20831     20835     20830     20827     20831     20833
     20830     20827     20831     20834     20830     20827     20831     20835
     20831     20835     20838     20840     20831     20835     20838     20841
     20833     20831     20835     20837     20833     20831     20835     20838
     20834     20831     20835     20837     20834     20831     20835     20838
     20835     20838     20841     20843     20835     20838     20841     20844
     20835     20838     20841     20845     20837     20835     20838     20840
     20837     20835     20838     20841     20838     20841     20845     20847
     20838     20841     20845     20848     20838     20841     20845     20849
     20840     20838     20841     20843     20840     20838     20841     20844
     20840     20838     20841     20845     20841     20845     20849     20851
     20841     20845     20849     20852     20841     20845     20849     20853
     20843     20841     20845     20847     20843     20841     20845     20848
     20843     20841     20845     20849     20844     20841     20845     20847
     20844     20841     20845     20848     20844     20841     20845     20849
     20845     20849     20853     20855     20845     20849     20853     20856
     20845     20849     20853     20857     20847     20845     20849     20851
     20847     20845     20849     20852     20847     20845     20849     20853
     20848     20845     20849     20851     20848     20845     20849     20852
     20848     20845     20849     20853     20849     20853     20857     20859
     20849     20853     20857     20860     20849     20853     20857     20861
     20851     20849     20853     20855     20851     20849     20853     20856
     20851     20849     20853     20857     20852     20849     20853     20855
     20852     20849     20853     20856     20852     20849     20853     20857
     20853     20857     20861     20863     20853     20857     20861     20864
     20853     20857     20861     20865     20855     20853     20857     20859
     20855     20853     20857     20860     20855     20853     20857     20861
     20856     20853     20857     20859     20856     20853     20857     20860
     20856     20853     20857     20861     20857     20861     20865     20867
     20857     20861     20865     20868     20857     20861     20865     20869
     20859     20857     20861     20863     20859     20857     20861     20864
     20859     20857     20861     20865     20860     20857     20861     20863
     20860     20857     20861     20864     20860     20857     20861     20865
     20861     20865     20869     20871     20861     20865     20869     20872
     20861     20865     20869     20873     20863     20861     20865     20867
     20863     20861     20865     20868     20863     20861     20865     20869
     20864     20861     20865     20867     20864     20861     20865     20868
     20864     20861     20865     20869     20867     20865     20869     20871
     20867     20865     20869     20872     20867     20865     20869     20873
     20868     20865     20869     20871     20868     20865     20869     20872
     20868     20865     20869     20873     20874     20878     20882     20884
     20874     20878     20882     20885     20874     20878     20882     20886
     20876     20874     20878     20880     20876     20874     20878     20881
     20876     20874     20878     20882     20877     20874     20878     20880
     20877     20874     20878     20881     20877     20874     20878     20882
     20878     20882     20886     20888     20878     20882     20886     20889
     20878     20882     20886     20890     20880     20878     20882     20884
     20880     20878     20882     20885     20880     20878     20882     20886
     20881     20878     20882     20884     20881     20878     20882     20885
     20881     20878     20882     20886     20882     20886     20890     20892
     20882     20886     20890     20893     20882     20886     20890     20894
     20884     20882     20886     20888     20884     20882     20886     20889
     20884     20882     20886     20890     20885     20882     20886     20888
     20885     20882     20886     20889     20885     20882     20886     20890
     20886     20890     20894     20896     20886     20890     20894     20897
     20886     20890     20894     20898     20888     20886     20890     20892
     20888     20886     20890     20893     20888     20886     20890     20894
     20889     20886     20890     20892     20889     20886     20890     20893
     20889     20886     20890     20894     20890     20894     20898     20900
     20890     20894     20898     20901     20890     20894     20898     20902
     20892     20890     20894     20896     20892     20890     20894     20897
     20892     20890     20894     20898     20893     20890     20894     20896
     20893     20890     20894     20897     20893     20890     20894     20898
     20894     20898     20902     20904     20894     20898     20902     20905
     20894     20898     20902     20906     20896     20894     20898     20900
     20896     20894     20898     20901     20896     20894     20898     20902
     20897     20894     20898     20900     20897     20894     20898     20901
     20897     20894     20898     20902     20898     20902     20906     20908
     20898     20902     20906     20909     20898     20902     20906     20910
     20900     20898     20902     20904     20900     20898     20902     20905
     20900     20898     20902     20906     20901     20898     20902     20904
     20901     20898     20902     20905     20901     20898     20902     20906
     20902     20906     20910     20912     20902     20906     20910     20913
     20902     20906     20910     20914     20904     20902     20906     20908
     20904     20902     20906     20909     20904     20902     20906     20910
     20905     20902     20906     20908     20905     20902     20906     20909
     20905     20902     20906     20910     20906     20910     20914     20916
     20906     20910     20914     20917     20906     20910     20914     20918
     20908     20906     20910     20912     20908     20906     20910     20913
     20908     20906     20910     20914     20909     20906     20910     20912
     20909     20906     20910     20913     20909     20906     20910     20914
     20910     20914     20918     20920     20910     20914     20918     20921
     20910     20914     20918     20922     20912     20910     20914     20916
     20912     20910     20914     20917     20912     20910     20914     20918
     20913     20910     20914     20916     20913     20910     20914     20917
     20913     20910     20914     20918     20914     20918     20922     20924
     20914     20918     20922     20925     20914     20918     20922     20926
     20916     20914     20918     20920     20916     20914     20918     20921
     20916     20914     20918     20922     20917     20914     20918     20920
     20917     20914     20918     20921     20917     20914     20918     20922
     20918     20922     20926     20928     20918     20922     20926     20929
     20918     20922     20926     20930     20920     20918     20922     20924
     20920     20918     20922     20925     20920     20918     20922     20926
     20921     20918     20922     20924     20921     20918     20922     20925
     20921     20918     20922     20926     20924     20922     20926     20928
     20924     20922     20926     20929     20924     20922     20926     20930
     20925     20922     20926     20928     20925     20922     20926     20929
     20925     20922     20926     20930     20931     20936     20940     20942
     20931     20936     20940     20943     20931     20936     20940     20952
     20933     20931     20936     20938     20933     20931     20936     20939
     20933     20931     20936     20940     20934     20931     20936     20938
     20934     20931     20936     20939     20934     20931     20936     20940
     20935     20931     20936     20938     20935     20931     20936     20939
     20935     20931     20936     20940     20936     20940     20952     20944
     20938     20936     20940     20942     20938     20936     20940     20943
     20938     20936     20940     20952     20939     20936     20940     20942
     20939     20936     20940     20943     20939     20936     20940     20952
     20940     20952     20944     20946     20940     20952     20944     20948
     20940     20952     20944     20950     20942     20940     20952     20944
     20943     20940     20952     20944     20944     20950     20954     20956
     20944     20950     20954     20957     20944     20950     20954     20958
     20946     20944     20950     20954     20948     20944     20950     20954
     20950     20954     20958     20960     20950     20954     20958     20961
     20950     20954     20958     20975     20952     20944     20950     20954
     20954     20958     20961     20963     20954     20958     20975     20977
     20954     20958     20975     20978     20954     20958     20975     20979
     20956     20954     20958     20960     20956     20954     20958     20961
     20956     20954     20958     20975     20957     20954     20958     20960
     20957     20954     20958     20961     20957     20954     20958     20975
     20958     20961     20963     20965     20958     20961     20963     20967
     20958     20975     20979     20981     20960     20958     20961     20963
     20960     20958     20975     20977     20960     20958     20975     20978
     20960     20958     20975     20979     20961     20958     20975     20977
     20961     20958     20975     20978     20961     20958     20975     20979
     20961     20963     20967     20969     20961     20963     20967     20970
     20961     20963     20967     20993     20963     20961     20958     20975
     20963     20967     20993     20995     20963     20967     20993     20996
     20963     20967     20993     20997     20965     20963     20967     20969
     20965     20963     20967     20970     20965     20963     20967     20993
     20967     20993     20997     20999     20967     20993     20997     21000
     20967     20993     20997     21001     20969     20967     20993     20995
     20969     20967     20993     20996     20969     20967     20993     20997
     20970     20967     20993     20995     20970     20967     20993     20996
     20970     20967     20993     20997     20975     20979     20981     20983
     20975     20979     20981     20985     20977     20975     20979     20981
     20978     20975     20979     20981     20979     20981     20985     20987
     20979     20981     20985     20988     20979     20981     20985     21056
     20981     20985     21056     21058     20981     20985     21056     21059
     20981     20985     21056     21060     20983     20981     20985     20987
     20983     20981     20985     20988     20983     20981     20985     21056
     20985     21056     21060     21062     20985     21056     21060     21063
     20985     21056     21060     21064     20987     20985     21056     21058
     20987     20985     21056     21059     20987     20985     21056     21060
     20988     20985     21056     21058     20988     20985     21056     21059
     20988     20985     21056     21060     20993     20997     21001     21003
     20993     20997     21001     21004     20993     20997     21001     21005
     20995     20993     20997     20999     20995     20993     20997     21000
     20995     20993     20997     21001     20996     20993     20997     20999
     20996     20993     20997     21000     20996     20993     20997     21001
     20997     21001     21005     21007     20997     21001     21005     21008
     20997     21001     21005     21009     20999     20997     21001     21003
     20999     20997     21001     21004     20999     20997     21001     21005
     21000     20997     21001     21003     21000     20997     21001     21004
     21000     20997     21001     21005     21001     21005     21009     21011
     21001     21005     21009     21012     21001     21005     21009     21013
     21003     21001     21005     21007     21003     21001     21005     21008
     21003     21001     21005     21009     21004     21001     21005     21007
     21004     21001     21005     21008     21004     21001     21005     21009
     21005     21009     21013     21015     21005     21009     21013     21016
     21005     21009     21013     21017     21007     21005     21009     21011
     21007     21005     21009     21012     21007     21005     21009     21013
     21008     21005     21009     21011     21008     21005     21009     21012
     21008     21005     21009     21013     21009     21013     21017     21019
     21009     21013     21017     21020     21011     21009     21013     21015
     21011     21009     21013     21016     21011     21009     21013     21017
     21012     21009     21013     21015     21012     21009     21013     21016
     21012     21009     21013     21017     21013     21017     21020     21022
     21013     21017     21020     21023     21015     21013     21017     21019
     21015     21013     21017     21020     21016     21013     21017     21019
     21016     21013     21017     21020     21017     21020     21023     21025
     21017     21020     21023     21026     21017     21020     21023     21027
     21019     21017     21020     21022     21019     21017     21020     21023
     21020     21023     21027     21029     21020     21023     21027     21030
     21020     21023     21027     21031     21022     21020     21023     21025
     21022     21020     21023     21026     21022     21020     21023     21027
     21023     21027     21031     21033     21023     21027     21031     21034
     21023     21027     21031     21035     21025     21023     21027     21029
     21025     21023     21027     21030     21025     21023     21027     21031
     21026     21023     21027     21029     21026     21023     21027     21030
     21026     21023     21027     21031     21027     21031     21035     21037
     21027     21031     21035     21038     21027     21031     21035     21039
     21029     21027     21031     21033     21029     21027     21031     21034
     21029     21027     21031     21035     21030     21027     21031     21033
     21030     21027     21031     21034     21030     21027     21031     21035
     21031     21035     21039     21041     21031     21035     21039     21042
     21031     21035     21039     21043     21033     21031     21035     21037
     21033     21031     21035     21038     21033     21031     21035     21039
     21034     21031     21035     21037     21034     21031     21035     21038
     21034     21031     21035     21039     21035     21039     21043     21045
     21035     21039     21043     21046     21035     21039     21043     21047
     21037     21035     21039     21041     21037     21035     21039     21042
     21037     21035     21039     21043     21038     21035     21039     21041
     21038     21035     21039     21042     21038     21035     21039     21043
     21039     21043     21047     21049     21039     21043     21047     21050
     21039     21043     21047     21051     21041     21039     21043     21045
     21041     21039     21043     21046     21041     21039     21043     21047
     21042     21039     21043     21045     21042     21039     21043     21046
     21042     21039     21043     21047     21043     21047     21051     21053
     21043     21047     21051     21054     21043     21047     21051     21055
     21045     21043     21047     21049     21045     21043     21047     21050
     21045     21043     21047     21051     21046     21043     21047     21049
     21046     21043     21047     21050     21046     21043     21047     21051
     21049     21047     21051     21053     21049     21047     21051     21054
     21049     21047     21051     21055     21050     21047     21051     21053
     21050     21047     21051     21054     21050     21047     21051     21055
     21056     21060     21064     21066     21056     21060     21064     21067
     21056     21060     21064     21068     21058     21056     21060     21062
     21058     21056     21060     21063     21058     21056     21060     21064
     21059     21056     21060     21062     21059     21056     21060     21063
     21059     21056     21060     21064     21060     21064     21068     21070
     21060     21064     21068     21071     21060     21064     21068     21072
     21062     21060     21064     21066     21062     21060     21064     21067
     21062     21060     21064     21068     21063     21060     21064     21066
     21063     21060     21064     21067     21063     21060     21064     21068
     21064     21068     21072     21074     21064     21068     21072     21075
     21064     21068     21072     21076     21066     21064     21068     21070
     21066     21064     21068     21071     21066     21064     21068     21072
     21067     21064     21068     21070     21067     21064     21068     21071
     21067     21064     21068     21072     21068     21072     21076     21078
     21068     21072     21076     21079     21068     21072     21076     21080
     21070     21068     21072     21074     21070     21068     21072     21075
     21070     21068     21072     21076     21071     21068     21072     21074
     21071     21068     21072     21075     21071     21068     21072     21076
     21072     21076     21080     21082     21072     21076     21080     21083
     21072     21076     21080     21084     21074     21072     21076     21078
     21074     21072     21076     21079     21074     21072     21076     21080
     21075     21072     21076     21078     21075     21072     21076     21079
     21075     21072     21076     21080     21076     21080     21084     21086
     21076     21080     21084     21087     21076     21080     21084     21088
     21078     21076     21080     21082     21078     21076     21080     21083
     21078     21076     21080     21084     21079     21076     21080     21082
     21079     21076     21080     21083     21079     21076     21080     21084
     21080     21084     21088     21090     21080     21084     21088     21091
     21080     21084     21088     21092     21082     21080     21084     21086
     21082     21080     21084     21087     21082     21080     21084     21088
     21083     21080     21084     21086     21083     21080     21084     21087
     21083     21080     21084     21088     21084     21088     21092     21094
     21084     21088     21092     21095     21084     21088     21092     21096
     21086     21084     21088     21090     21086     21084     21088     21091
     21086     21084     21088     21092     21087     21084     21088     21090
     21087     21084     21088     21091     21087     21084     21088     21092
     21088     21092     21096     21098     21088     21092     21096     21099
     21088     21092     21096     21100     21090     21088     21092     21094
     21090     21088     21092     21095     21090     21088     21092     21096
     21091     21088     21092     21094     21091     21088     21092     21095
     21091     21088     21092     21096     21092     21096     21100     21102
     21092     21096     21100     21103     21092     21096     21100     21104
     21094     21092     21096     21098     21094     21092     21096     21099
     21094     21092     21096     21100     21095     21092     21096     21098
     21095     21092     21096     21099     21095     21092     21096     21100
     21096     21100     21104     21106     21096     21100     21104     21107
     21096     21100     21104     21108     21098     21096     21100     21102
     21098     21096     21100     21103     21098     21096     21100     21104
     21099     21096     21100     21102     21099     21096     21100     21103
     21099     21096     21100     21104     21100     21104     21108     21110
     21100     21104     21108     21111     21100     21104     21108     21112
     21102     21100     21104     21106     21102     21100     21104     21107
     21102     21100     21104     21108     21103     21100     21104     21106
     21103     21100     21104     21107     21103     21100     21104     21108
     21106     21104     21108     21110     21106     21104     21108     21111
     21106     21104     21108     21112     21107     21104     21108     21110
     21107     21104     21108     21111     21107     21104     21108     21112
     21113     21118     21122     21124     21113     21118     21122     21125
     21113     21118     21122     21134     21115     21113     21118     21120
     21115     21113     21118     21121     21115     21113     21118     21122
     21116     21113     21118     21120     21116     21113     21118     21121
     21116     21113     21118     21122     21117     21113     21118     21120
     21117     21113     21118     21121     21117     21113     21118     21122
     21118     21122     21134     21126     21120     21118     21122     21124
     21120     21118     21122     21125     21120     21118     21122     21134
     21121     21118     21122     21124     21121     21118     21122     21125
     21121     21118     21122     21134     21122     21134     21126     21128
     21122     21134     21126     21130     21122     21134     21126     21132
     21124     21122     21134     21126     21125     21122     21134     21126
     21126     21132     21136     21138     21126     21132     21136     21139
     21126     21132     21136     21140     21128     21126     21132     21136
     21130     21126     21132     21136     21132     21136     21140     21142
     21132     21136     21140     21143     21132     21136     21140     21157
     21134     21126     21132     21136     21136     21140     21143     21145
     21136     21140     21157     21159     21136     21140     21157     21160
     21136     21140     21157     21161     21138     21136     21140     21142
     21138     21136     21140     21143     21138     21136     21140     21157
     21139     21136     21140     21142     21139     21136     21140     21143
     21139     21136     21140     21157     21140     21143     21145     21147
     21140     21143     21145     21149     21140     21157     21161     21163
     21142     21140     21143     21145     21142     21140     21157     21159
     21142     21140     21157     21160     21142     21140     21157     21161
     21143     21140     21157     21159     21143     21140     21157     21160
     21143     21140     21157     21161     21143     21145     21149     21151
     21143     21145     21149     21152     21143     21145     21149     21175
     21145     21143     21140     21157     21145     21149     21175     21177
     21145     21149     21175     21178     21145     21149     21175     21179
     21147     21145     21149     21151     21147     21145     21149     21152
     21147     21145     21149     21175     21149     21175     21179     21181
     21149     21175     21179     21182     21149     21175     21179     21183
     21151     21149     21175     21177     21151     21149     21175     21178
     21151     21149     21175     21179     21152     21149     21175     21177
     21152     21149     21175     21178     21152     21149     21175     21179
     21157     21161     21163     21165     21157     21161     21163     21167
     21159     21157     21161     21163     21160     21157     21161     21163
     21161     21163     21167     21169     21161     21163     21167     21170
     21161     21163     21167     21238     21163     21167     21238     21240
     21163     21167     21238     21241     21163     21167     21238     21242
     21165     21163     21167     21169     21165     21163     21167     21170
     21165     21163     21167     21238     21167     21238     21242     21244
     21167     21238     21242     21245     21167     21238     21242     21246
     21169     21167     21238     21240     21169     21167     21238     21241
     21169     21167     21238     21242     21170     21167     21238     21240
     21170     21167     21238     21241     21170     21167     21238     21242
     21175     21179     21183     21185     21175     21179     21183     21186
     21175     21179     21183     21187     21177     21175     21179     21181
     21177     21175     21179     21182     21177     21175     21179     21183
     21178     21175     21179     21181     21178     21175     21179     21182
     21178     21175     21179     21183     21179     21183     21187     21189
     21179     21183     21187     21190     21179     21183     21187     21191
     21181     21179     21183     21185     21181     21179     21183     21186
     21181     21179     21183     21187     21182     21179     21183     21185
     21182     21179     21183     21186     21182     21179     21183     21187
     21183     21187     21191     21193     21183     21187     21191     21194
     21183     21187     21191     21195     21185     21183     21187     21189
     21185     21183     21187     21190     21185     21183     21187     21191
     21186     21183     21187     21189     21186     21183     21187     21190
     21186     21183     21187     21191     21187     21191     21195     21197
     21187     21191     21195     21198     21187     21191     21195     21199
     21189     21187     21191     21193     21189     21187     21191     21194
     21189     21187     21191     21195     21190     21187     21191     21193
     21190     21187     21191     21194     21190     21187     21191     21195
     21191     21195     21199     21201     21191     21195     21199     21202
     21193     21191     21195     21197     21193     21191     21195     21198
     21193     21191     21195     21199     21194     21191     21195     21197
     21194     21191     21195     21198     21194     21191     21195     21199
     21195     21199     21202     21204     21195     21199     21202     21205
     21197     21195     21199     21201     21197     21195     21199     21202
     21198     21195     21199     21201     21198     21195     21199     21202
     21199     21202     21205     21207     21199     21202     21205     21208
     21199     21202     21205     21209     21201     21199     21202     21204
     21201     21199     21202     21205     21202     21205     21209     21211
     21202     21205     21209     21212     21202     21205     21209     21213
     21204     21202     21205     21207     21204     21202     21205     21208
     21204     21202     21205     21209     21205     21209     21213     21215
     21205     21209     21213     21216     21205     21209     21213     21217
     21207     21205     21209     21211     21207     21205     21209     21212
     21207     21205     21209     21213     21208     21205     21209     21211
     21208     21205     21209     21212     21208     21205     21209     21213
     21209     21213     21217     21219     21209     21213     21217     21220
     21209     21213     21217     21221     21211     21209     21213     21215
     21211     21209     21213     21216     21211     21209     21213     21217
     21212     21209     21213     21215     21212     21209     21213     21216
     21212     21209     21213     21217     21213     21217     21221     21223
     21213     21217     21221     21224     21213     21217     21221     21225
     21215     21213     21217     21219     21215     21213     21217     21220
     21215     21213     21217     21221     21216     21213     21217     21219
     21216     21213     21217     21220     21216     21213     21217     21221
     21217     21221     21225     21227     21217     21221     21225     21228
     21217     21221     21225     21229     21219     21217     21221     21223
     21219     21217     21221     21224     21219     21217     21221     21225
     21220     21217     21221     21223     21220     21217     21221     21224
     21220     21217     21221     21225     21221     21225     21229     21231
     21221     21225     21229     21232     21221     21225     21229     21233
     21223     21221     21225     21227     21223     21221     21225     21228
     21223     21221     21225     21229     21224     21221     21225     21227
     21224     21221     21225     21228     21224     21221     21225     21229
     21225     21229     21233     21235     21225     21229     21233     21236
     21225     21229     21233     21237     21227     21225     21229     21231
     21227     21225     21229     21232     21227     21225     21229     21233
     21228     21225     21229     21231     21228     21225     21229     21232
     21228     21225     21229     21233     21231     21229     21233     21235
     21231     21229     21233     21236     21231     21229     21233     21237
     21232     21229     21233     21235     21232     21229     21233     21236
     21232     21229     21233     21237     21238     21242     21246     21248
     21238     21242     21246     21249     21238     21242     21246     21250
     21240     21238     21242     21244     21240     21238     21242     21245
     21240     21238     21242     21246     21241     21238     21242     21244
     21241     21238     21242     21245     21241     21238     21242     21246
     21242     21246     21250     21252     21242     21246     21250     21253
     21242     21246     21250     21254     21244     21242     21246     21248
     21244     21242     21246     21249     21244     21242     21246     21250
     21245     21242     21246     21248     21245     21242     21246     21249
     21245     21242     21246     21250     21246     21250     21254     21256
     21246     21250     21254     21257     21246     21250     21254     21258
     21248     21246     21250     21252     21248     21246     21250     21253
     21248     21246     21250     21254     21249     21246     21250     21252
     21249     21246     21250     21253     21249     21246     21250     21254
     21250     21254     21258     21260     21250     21254     21258     21261
     21250     21254     21258     21262     21252     21250     21254     21256
     21252     21250     21254     21257     21252     21250     21254     21258
     21253     21250     21254     21256     21253     21250     21254     21257
     21253     21250     21254     21258     21254     21258     21262     21264
     21254     21258     21262     21265     21254     21258     21262     21266
     21256     21254     21258     21260     21256     21254     21258     21261
     21256     21254     21258     21262     21257     21254     21258     21260
     21257     21254     21258     21261     21257     21254     21258     21262
     21258     21262     21266     21268     21258     21262     21266     21269
     21258     21262     21266     21270     21260     21258     21262     21264
     21260     21258     21262     21265     21260     21258     21262     21266
     21261     21258     21262     21264     21261     21258     21262     21265
     21261     21258     21262     21266     21262     21266     21270     21272
     21262     21266     21270     21273     21262     21266     21270     21274
     21264     21262     21266     21268     21264     21262     21266     21269
     21264     21262     21266     21270     21265     21262     21266     21268
     21265     21262     21266     21269     21265     21262     21266     21270
     21266     21270     21274     21276     21266     21270     21274     21277
     21266     21270     21274     21278     21268     21266     21270     21272
     21268     21266     21270     21273     21268     21266     21270     21274
     21269     21266     21270     21272     21269     21266     21270     21273
     21269     21266     21270     21274     21270     21274     21278     21280
     21270     21274     21278     21281     21270     21274     21278     21282
     21272     21270     21274     21276     21272     21270     21274     21277
     21272     21270     21274     21278     21273     21270     21274     21276
     21273     21270     21274     21277     21273     21270     21274     21278
     21274     21278     21282     21284     21274     21278     21282     21285
     21274     21278     21282     21286     21276     21274     21278     21280
     21276     21274     21278     21281     21276     21274     21278     21282
     21277     21274     21278     21280     21277     21274     21278     21281
     21277     21274     21278     21282     21278     21282     21286     21288
     21278     21282     21286     21289     21278     21282     21286     21290
     21280     21278     21282     21284     21280     21278     21282     21285
     21280     21278     21282     21286     21281     21278     21282     21284
     21281     21278     21282     21285     21281     21278     21282     21286
     21282     21286     21290     21292     21282     21286     21290     21293
     21282     21286     21290     21294     21284     21282     21286     21288
     21284     21282     21286     21289     21284     21282     21286     21290
     21285     21282     21286     21288     21285     21282     21286     21289
     21285     21282     21286     21290     21288     21286     21290     21292
     21288     21286     21290     21293     21288     21286     21290     21294
     21289     21286     21290     21292     21289     21286     21290     21293
     21289     21286     21290     21294     21295     21300     21304     21306
     21295     21300     21304     21307     21295     21300     21304     21316
     21297     21295     21300     21302     21297     21295     21300     21303
     21297     21295     21300     21304     21298     21295     21300     21302
     21298     21295     21300     21303     21298     21295     21300     21304
     21299     21295     21300     21302     21299     21295     21300     21303
     21299     21295     21300     21304     21300     21304     21316     21308
     21302     21300     21304     21306     21302     21300     21304     21307
     21302     21300     21304     21316     21303     21300     21304     21306
     21303     21300     21304     21307     21303     21300     21304     21316
     21304     21316     21308     21310     21304     21316     21308     21312
     21304     21316     21308     21314     21306     21304     21316     21308
     21307     21304     21316     21308     21308     21314     21318     21320
     21308     21314     21318     21321     21308     21314     21318     21322
     21310     21308     21314     21318     21312     21308     21314     21318
     21314     21318     21322     21324     21314     21318     21322     21325
     21314     21318     21322     21339     21316     21308     21314     21318
     21318     21322     21325     21327     21318     21322     21339     21341
     21318     21322     21339     21342     21318     21322     21339     21343
     21320     21318     21322     21324     21320     21318     21322     21325
     21320     21318     21322     21339     21321     21318     21322     21324
     21321     21318     21322     21325     21321     21318     21322     21339
     21322     21325     21327     21329     21322     21325     21327     21331
     21322     21339     21343     21345     21324     21322     21325     21327
     21324     21322     21339     21341     21324     21322     21339     21342
     21324     21322     21339     21343     21325     21322     21339     21341
     21325     21322     21339     21342     21325     21322     21339     21343
     21325     21327     21331     21333     21325     21327     21331     21334
     21325     21327     21331     21357     21327     21325     21322     21339
     21327     21331     21357     21359     21327     21331     21357     21360
     21327     21331     21357     21361     21329     21327     21331     21333
     21329     21327     21331     21334     21329     21327     21331     21357
     21331     21357     21361     21363     21331     21357     21361     21364
     21331     21357     21361     21365     21333     21331     21357     21359
     21333     21331     21357     21360     21333     21331     21357     21361
     21334     21331     21357     21359     21334     21331     21357     21360
     21334     21331     21357     21361     21339     21343     21345     21347
     21339     21343     21345     21349     21341     21339     21343     21345
     21342     21339     21343     21345     21343     21345     21349     21351
     21343     21345     21349     21352     21343     21345     21349     21420
     21345     21349     21420     21422     21345     21349     21420     21423
     21345     21349     21420     21424     21347     21345     21349     21351
     21347     21345     21349     21352     21347     21345     21349     21420
     21349     21420     21424     21426     21349     21420     21424     21427
     21349     21420     21424     21428     21351     21349     21420     21422
     21351     21349     21420     21423     21351     21349     21420     21424
     21352     21349     21420     21422     21352     21349     21420     21423
     21352     21349     21420     21424     21357     21361     21365     21367
     21357     21361     21365     21368     21357     21361     21365     21369
     21359     21357     21361     21363     21359     21357     21361     21364
     21359     21357     21361     21365     21360     21357     21361     21363
     21360     21357     21361     21364     21360     21357     21361     21365
     21361     21365     21369     21371     21361     21365     21369     21372
     21361     21365     21369     21373     21363     21361     21365     21367
     21363     21361     21365     21368     21363     21361     21365     21369
     21364     21361     21365     21367     21364     21361     21365     21368
     21364     21361     21365     21369     21365     21369     21373     21375
     21365     21369     21373     21376     21365     21369     21373     21377
     21367     21365     21369     21371     21367     21365     21369     21372
     21367     21365     21369     21373     21368     21365     21369     21371
     21368     21365     21369     21372     21368     21365     21369     21373
     21369     21373     21377     21379     21369     21373     21377     21380
     21369     21373     21377     21381     21371     21369     21373     21375
     21371     21369     21373     21376     21371     21369     21373     21377
     21372     21369     21373     21375     21372     21369     21373     21376
     21372     21369     21373     21377     21373     21377     21381     21383
     21373     21377     21381     21384     21375     21373     21377     21379
     21375     21373     21377     21380     21375     21373     21377     21381
     21376     21373     21377     21379     21376     21373     21377     21380
     21376     21373     21377     21381     21377     21381     21384     21386
     21377     21381     21384     21387     21379     21377     21381     21383
     21379     21377     21381     21384     21380     21377     21381     21383
     21380     21377     21381     21384     21381     21384     21387     21389
     21381     21384     21387     21390     21381     21384     21387     21391
     21383     21381     21384     21386     21383     21381     21384     21387
     21384     21387     21391     21393     21384     21387     21391     21394
     21384     21387     21391     21395     21386     21384     21387     21389
     21386     21384     21387     21390     21386     21384     21387     21391
     21387     21391     21395     21397     21387     21391     21395     21398
     21387     21391     21395     21399     21389     21387     21391     21393
     21389     21387     21391     21394     21389     21387     21391     21395
     21390     21387     21391     21393     21390     21387     21391     21394
     21390     21387     21391     21395     21391     21395     21399     21401
     21391     21395     21399     21402     21391     21395     21399     21403
     21393     21391     21395     21397     21393     21391     21395     21398
     21393     21391     21395     21399     21394     21391     21395     21397
     21394     21391     21395     21398     21394     21391     21395     21399
     21395     21399     21403     21405     21395     21399     21403     21406
     21395     21399     21403     21407     21397     21395     21399     21401
     21397     21395     21399     21402     21397     21395     21399     21403
     21398     21395     21399     21401     21398     21395     21399     21402
     21398     21395     21399     21403     21399     21403     21407     21409
     21399     21403     21407     21410     21399     21403     21407     21411
     21401     21399     21403     21405     21401     21399     21403     21406
     21401     21399     21403     21407     21402     21399     21403     21405
     21402     21399     21403     21406     21402     21399     21403     21407
     21403     21407     21411     21413     21403     21407     21411     21414
     21403     21407     21411     21415     21405     21403     21407     21409
     21405     21403     21407     21410     21405     21403     21407     21411
     21406     21403     21407     21409     21406     21403     21407     21410
     21406     21403     21407     21411     21407     21411     21415     21417
     21407     21411     21415     21418     21407     21411     21415     21419
     21409     21407     21411     21413     21409     21407     21411     21414
     21409     21407     21411     21415     21410     21407     21411     21413
     21410     21407     21411     21414     21410     21407     21411     21415
     21413     21411     21415     21417     21413     21411     21415     21418
     21413     21411     21415     21419     21414     21411     21415     21417
     21414     21411     21415     21418     21414     21411     21415     21419
     21420     21424     21428     21430     21420     21424     21428     21431
     21420     21424     21428     21432     21422     21420     21424     21426
     21422     21420     21424     21427     21422     21420     21424     21428
     21423     21420     21424     21426     21423     21420     21424     21427
     21423     21420     21424     21428     21424     21428     21432     21434
     21424     21428     21432     21435     21424     21428     21432     21436
     21426     21424     21428     21430     21426     21424     21428     21431
     21426     21424     21428     21432     21427     21424     21428     21430
     21427     21424     21428     21431     21427     21424     21428     21432
     21428     21432     21436     21438     21428     21432     21436     21439
     21428     21432     21436     21440     21430     21428     21432     21434
     21430     21428     21432     21435     21430     21428     21432     21436
     21431     21428     21432     21434     21431     21428     21432     21435
     21431     21428     21432     21436     21432     21436     21440     21442
     21432     21436     21440     21443     21432     21436     21440     21444
     21434     21432     21436     21438     21434     21432     21436     21439
     21434     21432     21436     21440     21435     21432     21436     21438
     21435     21432     21436     21439     21435     21432     21436     21440
     21436     21440     21444     21446     21436     21440     21444     21447
     21436     21440     21444     21448     21438     21436     21440     21442
     21438     21436     21440     21443     21438     21436     21440     21444
     21439     21436     21440     21442     21439     21436     21440     21443
     21439     21436     21440     21444     21440     21444     21448     21450
     21440     21444     21448     21451     21440     21444     21448     21452
     21442     21440     21444     21446     21442     21440     21444     21447
     21442     21440     21444     21448     21443     21440     21444     21446
     21443     21440     21444     21447     21443     21440     21444     21448
     21444     21448     21452     21454     21444     21448     21452     21455
     21444     21448     21452     21456     21446     21444     21448     21450
     21446     21444     21448     21451     21446     21444     21448     21452
     21447     21444     21448     21450     21447     21444     21448     21451
     21447     21444     21448     21452     21448     21452     21456     21458
     21448     21452     21456     21459     21448     21452     21456     21460
     21450     21448     21452     21454     21450     21448     21452     21455
     21450     21448     21452     21456     21451     21448     21452     21454
     21451     21448     21452     21455     21451     21448     21452     21456
     21452     21456     21460     21462     21452     21456     21460     21463
     21452     21456     21460     21464     21454     21452     21456     21458
     21454     21452     21456     21459     21454     21452     21456     21460
     21455     21452     21456     21458     21455     21452     21456     21459
     21455     21452     21456     21460     21456     21460     21464     21466
     21456     21460     21464     21467     21456     21460     21464     21468
     21458     21456     21460     21462     21458     21456     21460     21463
     21458     21456     21460     21464     21459     21456     21460     21462
     21459     21456     21460     21463     21459     21456     21460     21464
     21460     21464     21468     21470     21460     21464     21468     21471
     21460     21464     21468     21472     21462     21460     21464     21466
     21462     21460     21464     21467     21462     21460     21464     21468
     21463     21460     21464     21466     21463     21460     21464     21467
     21463     21460     21464     21468     21464     21468     21472     21474
     21464     21468     21472     21475     21464     21468     21472     21476
     21466     21464     21468     21470     21466     21464     21468     21471
     21466     21464     21468     21472     21467     21464     21468     21470
     21467     21464     21468     21471     21467     21464     21468     21472
     21470     21468     21472     21474     21470     21468     21472     21475
     21470     21468     21472     21476     21471     21468     21472     21474
     21471     21468     21472     21475     21471     21468     21472     21476
     21477     21482     21486     21488     21477     21482     21486     21489
     21477     21482     21486     21498     21479     21477     21482     21484
     21479     21477     21482     21485     21479     21477     21482     21486
     21480     21477     21482     21484     21480     21477     21482     21485
     21480     21477     21482     21486     21481     21477     21482     21484
     21481     21477     21482     21485     21481     21477     21482     21486
     21482     21486     21498     21490     21484     21482     21486     21488
     21484     21482     21486     21489     21484     21482     21486     21498
     21485     21482     21486     21488     21485     21482     21486     21489
     21485     21482     21486     21498     21486     21498     21490     21492
     21486     21498     21490     21494     21486     21498     21490     21496
     21488     21486     21498     21490     21489     21486     21498     21490
     21490     21496     21500     21502     21490     21496     21500     21503
     21490     21496     21500     21504     21492     21490     21496     21500
     21494     21490     21496     21500     21496     21500     21504     21506
     21496     21500     21504     21507     21496     21500     21504     21521
     21498     21490     21496     21500     21500     21504     21507     21509
     21500     21504     21521     21523     21500     21504     21521     21524
     21500     21504     21521     21525     21502     21500     21504     21506
     21502     21500     21504     21507     21502     21500     21504     21521
     21503     21500     21504     21506     21503     21500     21504     21507
     21503     21500     21504     21521     21504     21507     21509     21511
     21504     21507     21509     21513     21504     21521     21525     21527
     21506     21504     21507     21509     21506     21504     21521     21523
     21506     21504     21521     21524     21506     21504     21521     21525
     21507     21504     21521     21523     21507     21504     21521     21524
     21507     21504     21521     21525     21507     21509     21513     21515
     21507     21509     21513     21516     21507     21509     21513     21539
     21509     21507     21504     21521     21509     21513     21539     21541
     21509     21513     21539     21542     21509     21513     21539     21543
     21511     21509     21513     21515     21511     21509     21513     21516
     21511     21509     21513     21539     21513     21539     21543     21545
     21513     21539     21543     21546     21513     21539     21543     21547
     21515     21513     21539     21541     21515     21513     21539     21542
     21515     21513     21539     21543     21516     21513     21539     21541
     21516     21513     21539     21542     21516     21513     21539     21543
     21521     21525     21527     21529     21521     21525     21527     21531
     21523     21521     21525     21527     21524     21521     21525     21527
     21525     21527     21531     21533     21525     21527     21531     21534
     21525     21527     21531     21602     21527     21531     21602     21604
     21527     21531     21602     21605     21527     21531     21602     21606
     21529     21527     21531     21533     21529     21527     21531     21534
     21529     21527     21531     21602     21531     21602     21606     21608
     21531     21602     21606     21609     21531     21602     21606     21610
     21533     21531     21602     21604     21533     21531     21602     21605
     21533     21531     21602     21606     21534     21531     21602     21604
     21534     21531     21602     21605     21534     21531     21602     21606
     21539     21543     21547     21549     21539     21543     21547     21550
     21539     21543     21547     21551     21541     21539     21543     21545
     21541     21539     21543     21546     21541     21539     21543     21547
     21542     21539     21543     21545     21542     21539     21543     21546
     21542     21539     21543     21547     21543     21547     21551     21553
     21543     21547     21551     21554     21543     21547     21551     21555
     21545     21543     21547     21549     21545     21543     21547     21550
     21545     21543     21547     21551     21546     21543     21547     21549
     21546     21543     21547     21550     21546     21543     21547     21551
     21547     21551     21555     21557     21547     21551     21555     21558
     21547     21551     21555     21559     21549     21547     21551     21553
     21549     21547     21551     21554     21549     21547     21551     21555
     21550     21547     21551     21553     21550     21547     21551     21554
     21550     21547     21551     21555     21551     21555     21559     21561
     21551     21555     21559     21562     21551     21555     21559     21563
     21553     21551     21555     21557     21553     21551     21555     21558
     21553     21551     21555     21559     21554     21551     21555     21557
     21554     21551     21555     21558     21554     21551     21555     21559
     21555     21559     21563     21565     21555     21559     21563     21566
     21557     21555     21559     21561     21557     21555     21559     21562
     21557     21555     21559     21563     21558     21555     21559     21561
     21558     21555     21559     21562     21558     21555     21559     21563
     21559     21563     21566     21568     21559     21563     21566     21569
     21561     21559     21563     21565     21561     21559     21563     21566
     21562     21559     21563     21565     21562     21559     21563     21566
     21563     21566     21569     21571     21563     21566     21569     21572
     21563     21566     21569     21573     21565     21563     21566     21568
     21565     21563     21566     21569     21566     21569     21573     21575
     21566     21569     21573     21576     21566     21569     21573     21577
     21568     21566     21569     21571     21568     21566     21569     21572
     21568     21566     21569     21573     21569     21573     21577     21579
     21569     21573     21577     21580     21569     21573     21577     21581
     21571     21569     21573     21575     21571     21569     21573     21576
     21571     21569     21573     21577     21572     21569     21573     21575
     21572     21569     21573     21576     21572     21569     21573     21577
     21573     21577     21581     21583     21573     21577     21581     21584
     21573     21577     21581     21585     21575     21573     21577     21579
     21575     21573     21577     21580     21575     21573     21577     21581
     21576     21573     21577     21579     21576     21573     21577     21580
     21576     21573     21577     21581     21577     21581     21585     21587
     21577     21581     21585     21588     21577     21581     21585     21589
     21579     21577     21581     21583     21579     21577     21581     21584
     21579     21577     21581     21585     21580     21577     21581     21583
     21580     21577     21581     21584     21580     21577     21581     21585
     21581     21585     21589     21591     21581     21585     21589     21592
     21581     21585     21589     21593     21583     21581     21585     21587
     21583     21581     21585     21588     21583     21581     21585     21589
     21584     21581     21585     21587     21584     21581     21585     21588
     21584     21581     21585     21589     21585     21589     21593     21595
     21585     21589     21593     21596     21585     21589     21593     21597
     21587     21585     21589     21591     21587     21585     21589     21592
     21587     21585     21589     21593     21588     21585     21589     21591
     21588     21585     21589     21592     21588     21585     21589     21593
     21589     21593     21597     21599     21589     21593     21597     21600
     21589     21593     21597     21601     21591     21589     21593     21595
     21591     21589     21593     21596     21591     21589     21593     21597
     21592     21589     21593     21595     21592     21589     21593     21596
     21592     21589     21593     21597     21595     21593     21597     21599
     21595     21593     21597     21600     21595     21593     21597     21601
     21596     21593     21597     21599     21596     21593     21597     21600
     21596     21593     21597     21601     21602     21606     21610     21612
     21602     21606     21610     21613     21602     21606     21610     21614
     21604     21602     21606     21608     21604     21602     21606     21609
     21604     21602     21606     21610     21605     21602     21606     21608
     21605     21602     21606     21609     21605     21602     21606     21610
     21606     21610     21614     21616     21606     21610     21614     21617
     21606     21610     21614     21618     21608     21606     21610     21612
     21608     21606     21610     21613     21608     21606     21610     21614
     21609     21606     21610     21612     21609     21606     21610     21613
     21609     21606     21610     21614     21610     21614     21618     21620
     21610     21614     21618     21621     21610     21614     21618     21622
     21612     21610     21614     21616     21612     21610     21614     21617
     21612     21610     21614     21618     21613     21610     21614     21616
     21613     21610     21614     21617     21613     21610     21614     21618
     21614     21618     21622     21624     21614     21618     21622     21625
     21614     21618     21622     21626     21616     21614     21618     21620
     21616     21614     21618     21621     21616     21614     21618     21622
     21617     21614     21618     21620     21617     21614     21618     21621
     21617     21614     21618     21622     21618     21622     21626     21628
     21618     21622     21626     21629     21618     21622     21626     21630
     21620     21618     21622     21624     21620     21618     21622     21625
     21620     21618     21622     21626     21621     21618     21622     21624
     21621     21618     21622     21625     21621     21618     21622     21626
     21622     21626     21630     21632     21622     21626     21630     21633
     21622     21626     21630     21634     21624     21622     21626     21628
     21624     21622     21626     21629     21624     21622     21626     21630
     21625     21622     21626     21628     21625     21622     21626     21629
     21625     21622     21626     21630     21626     21630     21634     21636
     21626     21630     21634     21637     21626     21630     21634     21638
     21628     21626     21630     21632     21628     21626     21630     21633
     21628     21626     21630     21634     21629     21626     21630     21632
     21629     21626     21630     21633     21629     21626     21630     21634
     21630     21634     21638     21640     21630     21634     21638     21641
     21630     21634     21638     21642     21632     21630     21634     21636
     21632     21630     21634     21637     21632     21630     21634     21638
     21633     21630     21634     21636     21633     21630     21634     21637
     21633     21630     21634     21638     21634     21638     21642     21644
     21634     21638     21642     21645     21634     21638     21642     21646
     21636     21634     21638     21640     21636     21634     21638     21641
     21636     21634     21638     21642     21637     21634     21638     21640
     21637     21634     21638     21641     21637     21634     21638     21642
     21638     21642     21646     21648     21638     21642     21646     21649
     21638     21642     21646     21650     21640     21638     21642     21644
     21640     21638     21642     21645     21640     21638     21642     21646
     21641     21638     21642     21644     21641     21638     21642     21645
     21641     21638     21642     21646     21642     21646     21650     21652
     21642     21646     21650     21653     21642     21646     21650     21654
     21644     21642     21646     21648     21644     21642     21646     21649
     21644     21642     21646     21650     21645     21642     21646     21648
     21645     21642     21646     21649     21645     21642     21646     21650
     21646     21650     21654     21656     21646     21650     21654     21657
     21646     21650     21654     21658     21648     21646     21650     21652
     21648     21646     21650     21653     21648     21646     21650     21654
     21649     21646     21650     21652     21649     21646     21650     21653
     21649     21646     21650     21654     21652     21650     21654     21656
     21652     21650     21654     21657     21652     21650     21654     21658
     21653     21650     21654     21656     21653     21650     21654     21657
     21653     21650     21654     21658     21659     21664     21668     21670
     21659     21664     21668     21671     21659     21664     21668     21680
     21661     21659     21664     21666     21661     21659     21664     21667
     21661     21659     21664     21668     21662     21659     21664     21666
     21662     21659     21664     21667     21662     21659     21664     21668
     21663     21659     21664     21666     21663     21659     21664     21667
     21663     21659     21664     21668     21664     21668     21680     21672
     21666     21664     21668     21670     21666     21664     21668     21671
     21666     21664     21668     21680     21667     21664     21668     21670
     21667     21664     21668     21671     21667     21664     21668     21680
     21668     21680     21672     21674     21668     21680     21672     21676
     21668     21680     21672     21678     21670     21668     21680     21672
     21671     21668     21680     21672     21672     21678     21682     21684
     21672     21678     21682     21685     21672     21678     21682     21686
     21674     21672     21678     21682     21676     21672     21678     21682
     21678     21682     21686     21688     21678     21682     21686     21689
     21678     21682     21686     21703     21680     21672     21678     21682
     21682     21686     21689     21691     21682     21686     21703     21705
     21682     21686     21703     21706     21682     21686     21703     21707
     21684     21682     21686     21688     21684     21682     21686     21689
     21684     21682     21686     21703     21685     21682     21686     21688
     21685     21682     21686     21689     21685     21682     21686     21703
     21686     21689     21691     21693     21686     21689     21691     21695
     21686     21703     21707     21709     21688     21686     21689     21691
     21688     21686     21703     21705     21688     21686     21703     21706
     21688     21686     21703     21707     21689     21686     21703     21705
     21689     21686     21703     21706     21689     21686     21703     21707
     21689     21691     21695     21697     21689     21691     21695     21698
     21689     21691     21695     21721     21691     21689     21686     21703
     21691     21695     21721     21723     21691     21695     21721     21724
     21691     21695     21721     21725     21693     21691     21695     21697
     21693     21691     21695     21698     21693     21691     21695     21721
     21695     21721     21725     21727     21695     21721     21725     21728
     21695     21721     21725     21729     21697     21695     21721     21723
     21697     21695     21721     21724     21697     21695     21721     21725
     21698     21695     21721     21723     21698     21695     21721     21724
     21698     21695     21721     21725     21703     21707     21709     21711
     21703     21707     21709     21713     21705     21703     21707     21709
     21706     21703     21707     21709     21707     21709     21713     21715
     21707     21709     21713     21716     21707     21709     21713     21784
     21709     21713     21784     21786     21709     21713     21784     21787
     21709     21713     21784     21788     21711     21709     21713     21715
     21711     21709     21713     21716     21711     21709     21713     21784
     21713     21784     21788     21790     21713     21784     21788     21791
     21713     21784     21788     21792     21715     21713     21784     21786
     21715     21713     21784     21787     21715     21713     21784     21788
     21716     21713     21784     21786     21716     21713     21784     21787
     21716     21713     21784     21788     21721     21725     21729     21731
     21721     21725     21729     21732     21721     21725     21729     21733
     21723     21721     21725     21727     21723     21721     21725     21728
     21723     21721     21725     21729     21724     21721     21725     21727
     21724     21721     21725     21728     21724     21721     21725     21729
     21725     21729     21733     21735     21725     21729     21733     21736
     21725     21729     21733     21737     21727     21725     21729     21731
     21727     21725     21729     21732     21727     21725     21729     21733
     21728     21725     21729     21731     21728     21725     21729     21732
     21728     21725     21729     21733     21729     21733     21737     21739
     21729     21733     21737     21740     21729     21733     21737     21741
     21731     21729     21733     21735     21731     21729     21733     21736
     21731     21729     21733     21737     21732     21729     21733     21735
     21732     21729     21733     21736     21732     21729     21733     21737
     21733     21737     21741     21743     21733     21737     21741     21744
     21733     21737     21741     21745     21735     21733     21737     21739
     21735     21733     21737     21740     21735     21733     21737     21741
     21736     21733     21737     21739     21736     21733     21737     21740
     21736     21733     21737     21741     21737     21741     21745     21747
     21737     21741     21745     21748     21739     21737     21741     21743
     21739     21737     21741     21744     21739     21737     21741     21745
     21740     21737     21741     21743     21740     21737     21741     21744
     21740     21737     21741     21745     21741     21745     21748     21750
     21741     21745     21748     21751     21743     21741     21745     21747
     21743     21741     21745     21748     21744     21741     21745     21747
     21744     21741     21745     21748     21745     21748     21751     21753
     21745     21748     21751     21754     21745     21748     21751     21755
     21747     21745     21748     21750     21747     21745     21748     21751
     21748     21751     21755     21757     21748     21751     21755     21758
     21748     21751     21755     21759     21750     21748     21751     21753
     21750     21748     21751     21754     21750     21748     21751     21755
     21751     21755     21759     21761     21751     21755     21759     21762
     21751     21755     21759     21763     21753     21751     21755     21757
     21753     21751     21755     21758     21753     21751     21755     21759
     21754     21751     21755     21757     21754     21751     21755     21758
     21754     21751     21755     21759     21755     21759     21763     21765
     21755     21759     21763     21766     21755     21759     21763     21767
     21757     21755     21759     21761     21757     21755     21759     21762
     21757     21755     21759     21763     21758     21755     21759     21761
     21758     21755     21759     21762     21758     21755     21759     21763
     21759     21763     21767     21769     21759     21763     21767     21770
     21759     21763     21767     21771     21761     21759     21763     21765
     21761     21759     21763     21766     21761     21759     21763     21767
     21762     21759     21763     21765     21762     21759     21763     21766
     21762     21759     21763     21767     21763     21767     21771     21773
     21763     21767     21771     21774     21763     21767     21771     21775
     21765     21763     21767     21769     21765     21763     21767     21770
     21765     21763     21767     21771     21766     21763     21767     21769
     21766     21763     21767     21770     21766     21763     21767     21771
     21767     21771     21775     21777     21767     21771     21775     21778
     21767     21771     21775     21779     21769     21767     21771     21773
     21769     21767     21771     21774     21769     21767     21771     21775
     21770     21767     21771     21773     21770     21767     21771     21774
     21770     21767     21771     21775     21771     21775     21779     21781
     21771     21775     21779     21782     21771     21775     21779     21783
     21773     21771     21775     21777     21773     21771     21775     21778
     21773     21771     21775     21779     21774     21771     21775     21777
     21774     21771     21775     21778     21774     21771     21775     21779
     21777     21775     21779     21781     21777     21775     21779     21782
     21777     21775     21779     21783     21778     21775     21779     21781
     21778     21775     21779     21782     21778     21775     21779     21783
     21784     21788     21792     21794     21784     21788     21792     21795
     21784     21788     21792     21796     21786     21784     21788     21790
     21786     21784     21788     21791     21786     21784     21788     21792
     21787     21784     21788     21790     21787     21784     21788     21791
     21787     21784     21788     21792     21788     21792     21796     21798
     21788     21792     21796     21799     21788     21792     21796     21800
     21790     21788     21792     21794     21790     21788     21792     21795
     21790     21788     21792     21796     21791     21788     21792     21794
     21791     21788     21792     21795     21791     21788     21792     21796
     21792     21796     21800     21802     21792     21796     21800     21803
     21792     21796     21800     21804     21794     21792     21796     21798
     21794     21792     21796     21799     21794     21792     21796     21800
     21795     21792     21796     21798     21795     21792     21796     21799
     21795     21792     21796     21800     21796     21800     21804     21806
     21796     21800     21804     21807     21796     21800     21804     21808
     21798     21796     21800     21802     21798     21796     21800     21803
     21798     21796     21800     21804     21799     21796     21800     21802
     21799     21796     21800     21803     21799     21796     21800     21804
     21800     21804     21808     21810     21800     21804     21808     21811
     21800     21804     21808     21812     21802     21800     21804     21806
     21802     21800     21804     21807     21802     21800     21804     21808
     21803     21800     21804     21806     21803     21800     21804     21807
     21803     21800     21804     21808     21804     21808     21812     21814
     21804     21808     21812     21815     21804     21808     21812     21816
     21806     21804     21808     21810     21806     21804     21808     21811
     21806     21804     21808     21812     21807     21804     21808     21810
     21807     21804     21808     21811     21807     21804     21808     21812
     21808     21812     21816     21818     21808     21812     21816     21819
     21808     21812     21816     21820     21810     21808     21812     21814
     21810     21808     21812     21815     21810     21808     21812     21816
     21811     21808     21812     21814     21811     21808     21812     21815
     21811     21808     21812     21816     21812     21816     21820     21822
     21812     21816     21820     21823     21812     21816     21820     21824
     21814     21812     21816     21818     21814     21812     21816     21819
     21814     21812     21816     21820     21815     21812     21816     21818
     21815     21812     21816     21819     21815     21812     21816     21820
     21816     21820     21824     21826     21816     21820     21824     21827
     21816     21820     21824     21828     21818     21816     21820     21822
     21818     21816     21820     21823     21818     21816     21820     21824
     21819     21816     21820     21822     21819     21816     21820     21823
     21819     21816     21820     21824     21820     21824     21828     21830
     21820     21824     21828     21831     21820     21824     21828     21832
     21822     21820     21824     21826     21822     21820     21824     21827
     21822     21820     21824     21828     21823     21820     21824     21826
     21823     21820     21824     21827     21823     21820     21824     21828
     21824     21828     21832     21834     21824     21828     21832     21835
     21824     21828     21832     21836     21826     21824     21828     21830
     21826     21824     21828     21831     21826     21824     21828     21832
     21827     21824     21828     21830     21827     21824     21828     21831
     21827     21824     21828     21832     21828     21832     21836     21838
     21828     21832     21836     21839     21828     21832     21836     21840
     21830     21828     21832     21834     21830     21828     21832     21835
     21830     21828     21832     21836     21831     21828     21832     21834
     21831     21828     21832     21835     21831     21828     21832     21836
     21834     21832     21836     21838     21834     21832     21836     21839
     21834     21832     21836     21840     21835     21832     21836     21838
     21835     21832     21836     21839     21835     21832     21836     21840
     21841     21846     21850     21852     21841     21846     21850     21853
     21841     21846     21850     21862     21843     21841     21846     21848
     21843     21841     21846     21849     21843     21841     21846     21850
     21844     21841     21846     21848     21844     21841     21846     21849
     21844     21841     21846     21850     21845     21841     21846     21848
     21845     21841     21846     21849     21845     21841     21846     21850
     21846     21850     21862     21854     21848     21846     21850     21852
     21848     21846     21850     21853     21848     21846     21850     21862
     21849     21846     21850     21852     21849     21846     21850     21853
     21849     21846     21850     21862     21850     21862     21854     21856
     21850     21862     21854     21858     21850     21862     21854     21860
     21852     21850     21862     21854     21853     21850     21862     21854
     21854     21860     21864     21866     21854     21860     21864     21867
     21854     21860     21864     21868     21856     21854     21860     21864
     21858     21854     21860     21864     21860     21864     21868     21870
     21860     21864     21868     21871     21860     21864     21868     21885
     21862     21854     21860     21864     21864     21868     21871     21873
     21864     21868     21885     21887     21864     21868     21885     21888
     21864     21868     21885     21889     21866     21864     21868     21870
     21866     21864     21868     21871     21866     21864     21868     21885
     21867     21864     21868     21870     21867     21864     21868     21871
     21867     21864     21868     21885     21868     21871     21873     21875
     21868     21871     21873     21877     21868     21885     21889     21891
     21870     21868     21871     21873     21870     21868     21885     21887
     21870     21868     21885     21888     21870     21868     21885     21889
     21871     21868     21885     21887     21871     21868     21885     21888
     21871     21868     21885     21889     21871     21873     21877     21879
     21871     21873     21877     21880     21871     21873     21877     21903
     21873     21871     21868     21885     21873     21877     21903     21905
     21873     21877     21903     21906     21873     21877     21903     21907
     21875     21873     21877     21879     21875     21873     21877     21880
     21875     21873     21877     21903     21877     21903     21907     21909
     21877     21903     21907     21910     21877     21903     21907     21911
     21879     21877     21903     21905     21879     21877     21903     21906
     21879     21877     21903     21907     21880     21877     21903     21905
     21880     21877     21903     21906     21880     21877     21903     21907
     21885     21889     21891     21893     21885     21889     21891     21895
     21887     21885     21889     21891     21888     21885     21889     21891
     21889     21891     21895     21897     21889     21891     21895     21898
     21889     21891     21895     21966     21891     21895     21966     21968
     21891     21895     21966     21969     21891     21895     21966     21970
     21893     21891     21895     21897     21893     21891     21895     21898
     21893     21891     21895     21966     21895     21966     21970     21972
     21895     21966     21970     21973     21895     21966     21970     21974
     21897     21895     21966     21968     21897     21895     21966     21969
     21897     21895     21966     21970     21898     21895     21966     21968
     21898     21895     21966     21969     21898     21895     21966     21970
     21903     21907     21911     21913     21903     21907     21911     21914
     21903     21907     21911     21915     21905     21903     21907     21909
     21905     21903     21907     21910     21905     21903     21907     21911
     21906     21903     21907     21909     21906     21903     21907     21910
     21906     21903     21907     21911     21907     21911     21915     21917
     21907     21911     21915     21918     21907     21911     21915     21919
     21909     21907     21911     21913     21909     21907     21911     21914
     21909     21907     21911     21915     21910     21907     21911     21913
     21910     21907     21911     21914     21910     21907     21911     21915
     21911     21915     21919     21921     21911     21915     21919     21922
     21911     21915     21919     21923     21913     21911     21915     21917
     21913     21911     21915     21918     21913     21911     21915     21919
     21914     21911     21915     21917     21914     21911     21915     21918
     21914     21911     21915     21919     21915     21919     21923     21925
     21915     21919     21923     21926     21915     21919     21923     21927
     21917     21915     21919     21921     21917     21915     21919     21922
     21917     21915     21919     21923     21918     21915     21919     21921
     21918     21915     21919     21922     21918     21915     21919     21923
     21919     21923     21927     21929     21919     21923     21927     21930
     21921     21919     21923     21925     21921     21919     21923     21926
     21921     21919     21923     21927     21922     21919     21923     21925
     21922     21919     21923     21926     21922     21919     21923     21927
     21923     21927     21930     21932     21923     21927     21930     21933
     21925     21923     21927     21929     21925     21923     21927     21930
     21926     21923     21927     21929     21926     21923     21927     21930
     21927     21930     21933     21935     21927     21930     21933     21936
     21927     21930     21933     21937     21929     21927     21930     21932
     21929     21927     21930     21933     21930     21933     21937     21939
     21930     21933     21937     21940     21930     21933     21937     21941
     21932     21930     21933     21935     21932     21930     21933     21936
     21932     21930     21933     21937     21933     21937     21941     21943
     21933     21937     21941     21944     21933     21937     21941     21945
     21935     21933     21937     21939     21935     21933     21937     21940
     21935     21933     21937     21941     21936     21933     21937     21939
     21936     21933     21937     21940     21936     21933     21937     21941
     21937     21941     21945     21947     21937     21941     21945     21948
     21937     21941     21945     21949     21939     21937     21941     21943
     21939     21937     21941     21944     21939     21937     21941     21945
     21940     21937     21941     21943     21940     21937     21941     21944
     21940     21937     21941     21945     21941     21945     21949     21951
     21941     21945     21949     21952     21941     21945     21949     21953
     21943     21941     21945     21947     21943     21941     21945     21948
     21943     21941     21945     21949     21944     21941     21945     21947
     21944     21941     21945     21948     21944     21941     21945     21949
     21945     21949     21953     21955     21945     21949     21953     21956
     21945     21949     21953     21957     21947     21945     21949     21951
     21947     21945     21949     21952     21947     21945     21949     21953
     21948     21945     21949     21951     21948     21945     21949     21952
     21948     21945     21949     21953     21949     21953     21957     21959
     21949     21953     21957     21960     21949     21953     21957     21961
     21951     21949     21953     21955     21951     21949     21953     21956
     21951     21949     21953     21957     21952     21949     21953     21955
     21952     21949     21953     21956     21952     21949     21953     21957
     21953     21957     21961     21963     21953     21957     21961     21964
     21953     21957     21961     21965     21955     21953     21957     21959
     21955     21953     21957     21960     21955     21953     21957     21961
     21956     21953     21957     21959     21956     21953     21957     21960
     21956     21953     21957     21961     21959     21957     21961     21963
     21959     21957     21961     21964     21959     21957     21961     21965
     21960     21957     21961     21963     21960     21957     21961     21964
     21960     21957     21961     21965     21966     21970     21974     21976
     21966     21970     21974     21977     21966     21970     21974     21978
     21968     21966     21970     21972     21968     21966     21970     21973
     21968     21966     21970     21974     21969     21966     21970     21972
     21969     21966     21970     21973     21969     21966     21970     21974
     21970     21974     21978     21980     21970     21974     21978     21981
     21970     21974     21978     21982     21972     21970     21974     21976
     21972     21970     21974     21977     21972     21970     21974     21978
     21973     21970     21974     21976     21973     21970     21974     21977
     21973     21970     21974     21978     21974     21978     21982     21984
     21974     21978     21982     21985     21974     21978     21982     21986
     21976     21974     21978     21980     21976     21974     21978     21981
     21976     21974     21978     21982     21977     21974     21978     21980
     21977     21974     21978     21981     21977     21974     21978     21982
     21978     21982     21986     21988     21978     21982     21986     21989
     21978     21982     21986     21990     21980     21978     21982     21984
     21980     21978     21982     21985     21980     21978     21982     21986
     21981     21978     21982     21984     21981     21978     21982     21985
     21981     21978     21982     21986     21982     21986     21990     21992
     21982     21986     21990     21993     21982     21986     21990     21994
     21984     21982     21986     21988     21984     21982     21986     21989
     21984     21982     21986     21990     21985     21982     21986     21988
     21985     21982     21986     21989     21985     21982     21986     21990
     21986     21990     21994     21996     21986     21990     21994     21997
     21986     21990     21994     21998     21988     21986     21990     21992
     21988     21986     21990     21993     21988     21986     21990     21994
     21989     21986     21990     21992     21989     21986     21990     21993
     21989     21986     21990     21994     21990     21994     21998     22000
     21990     21994     21998     22001     21990     21994     21998     22002
     21992     21990     21994     21996     21992     21990     21994     21997
     21992     21990     21994     21998     21993     21990     21994     21996
     21993     21990     21994     21997     21993     21990     21994     21998
     21994     21998     22002     22004     21994     21998     22002     22005
     21994     21998     22002     22006     21996     21994     21998     22000
     21996     21994     21998     22001     21996     21994     21998     22002
     21997     21994     21998     22000     21997     21994     21998     22001
     21997     21994     21998     22002     21998     22002     22006     22008
     21998     22002     22006     22009     21998     22002     22006     22010
     22000     21998     22002     22004     22000     21998     22002     22005
     22000     21998     22002     22006     22001     21998     22002     22004
     22001     21998     22002     22005     22001     21998     22002     22006
     22002     22006     22010     22012     22002     22006     22010     22013
     22002     22006     22010     22014     22004     22002     22006     22008
     22004     22002     22006     22009     22004     22002     22006     22010
     22005     22002     22006     22008     22005     22002     22006     22009
     22005     22002     22006     22010     22006     22010     22014     22016
     22006     22010     22014     22017     22006     22010     22014     22018
     22008     22006     22010     22012     22008     22006     22010     22013
     22008     22006     22010     22014     22009     22006     22010     22012
     22009     22006     22010     22013     22009     22006     22010     22014
     22010     22014     22018     22020     22010     22014     22018     22021
     22010     22014     22018     22022     22012     22010     22014     22016
     22012     22010     22014     22017     22012     22010     22014     22018
     22013     22010     22014     22016     22013     22010     22014     22017
     22013     22010     22014     22018     22016     22014     22018     22020
     22016     22014     22018     22021     22016     22014     22018     22022
     22017     22014     22018     22020     22017     22014     22018     22021
     22017     22014     22018     22022     22023     22028     22032     22034
     22023     22028     22032     22035     22023     22028     22032     22044
     22025     22023     22028     22030     22025     22023     22028     22031
     22025     22023     22028     22032     22026     22023     22028     22030
     22026     22023     22028     22031     22026     22023     22028     22032
     22027     22023     22028     22030     22027     22023     22028     22031
     22027     22023     22028     22032     22028     22032     22044     22036
     22030     22028     22032     22034     22030     22028     22032     22035
     22030     22028     22032     22044     22031     22028     22032     22034
     22031     22028     22032     22035     22031     22028     22032     22044
     22032     22044     22036     22038     22032     22044     22036     22040
     22032     22044     22036     22042     22034     22032     22044     22036
     22035     22032     22044     22036     22036     22042     22046     22048
     22036     22042     22046     22049     22036     22042     22046     22050
     22038     22036     22042     22046     22040     22036     22042     22046
     22042     22046     22050     22052     22042     22046     22050     22053
     22042     22046     22050     22067     22044     22036     22042     22046
     22046     22050     22053     22055     22046     22050     22067     22069
     22046     22050     22067     22070     22046     22050     22067     22071
     22048     22046     22050     22052     22048     22046     22050     22053
     22048     22046     22050     22067     22049     22046     22050     22052
     22049     22046     22050     22053     22049     22046     22050     22067
     22050     22053     22055     22057     22050     22053     22055     22059
     22050     22067     22071     22073     22052     22050     22053     22055
     22052     22050     22067     22069     22052     22050     22067     22070
     22052     22050     22067     22071     22053     22050     22067     22069
     22053     22050     22067     22070     22053     22050     22067     22071
     22053     22055     22059     22061     22053     22055     22059     22062
     22053     22055     22059     22085     22055     22053     22050     22067
     22055     22059     22085     22087     22055     22059     22085     22088
     22055     22059     22085     22089     22057     22055     22059     22061
     22057     22055     22059     22062     22057     22055     22059     22085
     22059     22085     22089     22091     22059     22085     22089     22092
     22059     22085     22089     22093     22061     22059     22085     22087
     22061     22059     22085     22088     22061     22059     22085     22089
     22062     22059     22085     22087     22062     22059     22085     22088
     22062     22059     22085     22089     22067     22071     22073     22075
     22067     22071     22073     22077     22069     22067     22071     22073
     22070     22067     22071     22073     22071     22073     22077     22079
     22071     22073     22077     22080     22071     22073     22077     22148
     22073     22077     22148     22150     22073     22077     22148     22151
     22073     22077     22148     22152     22075     22073     22077     22079
     22075     22073     22077     22080     22075     22073     22077     22148
     22077     22148     22152     22154     22077     22148     22152     22155
     22077     22148     22152     22156     22079     22077     22148     22150
     22079     22077     22148     22151     22079     22077     22148     22152
     22080     22077     22148     22150     22080     22077     22148     22151
     22080     22077     22148     22152     22085     22089     22093     22095
     22085     22089     22093     22096     22085     22089     22093     22097
     22087     22085     22089     22091     22087     22085     22089     22092
     22087     22085     22089     22093     22088     22085     22089     22091
     22088     22085     22089     22092     22088     22085     22089     22093
     22089     22093     22097     22099     22089     22093     22097     22100
     22089     22093     22097     22101     22091     22089     22093     22095
     22091     22089     22093     22096     22091     22089     22093     22097
     22092     22089     22093     22095     22092     22089     22093     22096
     22092     22089     22093     22097     22093     22097     22101     22103
     22093     22097     22101     22104     22093     22097     22101     22105
     22095     22093     22097     22099     22095     22093     22097     22100
     22095     22093     22097     22101     22096     22093     22097     22099
     22096     22093     22097     22100     22096     22093     22097     22101
     22097     22101     22105     22107     22097     22101     22105     22108
     22097     22101     22105     22109     22099     22097     22101     22103
     22099     22097     22101     22104     22099     22097     22101     22105
     22100     22097     22101     22103     22100     22097     22101     22104
     22100     22097     22101     22105     22101     22105     22109     22111
     22101     22105     22109     22112     22103     22101     22105     22107
     22103     22101     22105     22108     22103     22101     22105     22109
     22104     22101     22105     22107     22104     22101     22105     22108
     22104     22101     22105     22109     22105     22109     22112     22114
     22105     22109     22112     22115     22107     22105     22109     22111
     22107     22105     22109     22112     22108     22105     22109     22111
     22108     22105     22109     22112     22109     22112     22115     22117
     22109     22112     22115     22118     22109     22112     22115     22119
     22111     22109     22112     22114     22111     22109     22112     22115
     22112     22115     22119     22121     22112     22115     22119     22122
     22112     22115     22119     22123     22114     22112     22115     22117
     22114     22112     22115     22118     22114     22112     22115     22119
     22115     22119     22123     22125     22115     22119     22123     22126
     22115     22119     22123     22127     22117     22115     22119     22121
     22117     22115     22119     22122     22117     22115     22119     22123
     22118     22115     22119     22121     22118     22115     22119     22122
     22118     22115     22119     22123     22119     22123     22127     22129
     22119     22123     22127     22130     22119     22123     22127     22131
     22121     22119     22123     22125     22121     22119     22123     22126
     22121     22119     22123     22127     22122     22119     22123     22125
     22122     22119     22123     22126     22122     22119     22123     22127
     22123     22127     22131     22133     22123     22127     22131     22134
     22123     22127     22131     22135     22125     22123     22127     22129
     22125     22123     22127     22130     22125     22123     22127     22131
     22126     22123     22127     22129     22126     22123     22127     22130
     22126     22123     22127     22131     22127     22131     22135     22137
     22127     22131     22135     22138     22127     22131     22135     22139
     22129     22127     22131     22133     22129     22127     22131     22134
     22129     22127     22131     22135     22130     22127     22131     22133
     22130     22127     22131     22134     22130     22127     22131     22135
     22131     22135     22139     22141     22131     22135     22139     22142
     22131     22135     22139     22143     22133     22131     22135     22137
     22133     22131     22135     22138     22133     22131     22135     22139
     22134     22131     22135     22137     22134     22131     22135     22138
     22134     22131     22135     22139     22135     22139     22143     22145
     22135     22139     22143     22146     22135     22139     22143     22147
     22137     22135     22139     22141     22137     22135     22139     22142
     22137     22135     22139     22143     22138     22135     22139     22141
     22138     22135     22139     22142     22138     22135     22139     22143
     22141     22139     22143     22145     22141     22139     22143     22146
     22141     22139     22143     22147     22142     22139     22143     22145
     22142     22139     22143     22146     22142     22139     22143     22147
     22148     22152     22156     22158     22148     22152     22156     22159
     22148     22152     22156     22160     22150     22148     22152     22154
     22150     22148     22152     22155     22150     22148     22152     22156
     22151     22148     22152     22154     22151     22148     22152     22155
     22151     22148     22152     22156     22152     22156     22160     22162
     22152     22156     22160     22163     22152     22156     22160     22164
     22154     22152     22156     22158     22154     22152     22156     22159
     22154     22152     22156     22160     22155     22152     22156     22158
     22155     22152     22156     22159     22155     22152     22156     22160
     22156     22160     22164     22166     22156     22160     22164     22167
     22156     22160     22164     22168     22158     22156     22160     22162
     22158     22156     22160     22163     22158     22156     22160     22164
     22159     22156     22160     22162     22159     22156     22160     22163
     22159     22156     22160     22164     22160     22164     22168     22170
     22160     22164     22168     22171     22160     22164     22168     22172
     22162     22160     22164     22166     22162     22160     22164     22167
     22162     22160     22164     22168     22163     22160     22164     22166
     22163     22160     22164     22167     22163     22160     22164     22168
     22164     22168     22172     22174     22164     22168     22172     22175
     22164     22168     22172     22176     22166     22164     22168     22170
     22166     22164     22168     22171     22166     22164     22168     22172
     22167     22164     22168     22170     22167     22164     22168     22171
     22167     22164     22168     22172     22168     22172     22176     22178
     22168     22172     22176     22179     22168     22172     22176     22180
     22170     22168     22172     22174     22170     22168     22172     22175
     22170     22168     22172     22176     22171     22168     22172     22174
     22171     22168     22172     22175     22171     22168     22172     22176
     22172     22176     22180     22182     22172     22176     22180     22183
     22172     22176     22180     22184     22174     22172     22176     22178
     22174     22172     22176     22179     22174     22172     22176     22180
     22175     22172     22176     22178     22175     22172     22176     22179
     22175     22172     22176     22180     22176     22180     22184     22186
     22176     22180     22184     22187     22176     22180     22184     22188
     22178     22176     22180     22182     22178     22176     22180     22183
     22178     22176     22180     22184     22179     22176     22180     22182
     22179     22176     22180     22183     22179     22176     22180     22184
     22180     22184     22188     22190     22180     22184     22188     22191
     22180     22184     22188     22192     22182     22180     22184     22186
     22182     22180     22184     22187     22182     22180     22184     22188
     22183     22180     22184     22186     22183     22180     22184     22187
     22183     22180     22184     22188     22184     22188     22192     22194
     22184     22188     22192     22195     22184     22188     22192     22196
     22186     22184     22188     22190     22186     22184     22188     22191
     22186     22184     22188     22192     22187     22184     22188     22190
     22187     22184     22188     22191     22187     22184     22188     22192
     22188     22192     22196     22198     22188     22192     22196     22199
     22188     22192     22196     22200     22190     22188     22192     22194
     22190     22188     22192     22195     22190     22188     22192     22196
     22191     22188     22192     22194     22191     22188     22192     22195
     22191     22188     22192     22196     22192     22196     22200     22202
     22192     22196     22200     22203     22192     22196     22200     22204
     22194     22192     22196     22198     22194     22192     22196     22199
     22194     22192     22196     22200     22195     22192     22196     22198
     22195     22192     22196     22199     22195     22192     22196     22200
     22198     22196     22200     22202     22198     22196     22200     22203
     22198     22196     22200     22204     22199     22196     22200     22202
     22199     22196     22200     22203     22199     22196     22200     22204
     22205     22210     22214     22216     22205     22210     22214     22217
     22205     22210     22214     22226     22207     22205     22210     22212
     22207     22205     22210     22213     22207     22205     22210     22214
     22208     22205     22210     22212     22208     22205     22210     22213
     22208     22205     22210     22214     22209     22205     22210     22212
     22209     22205     22210     22213     22209     22205     22210     22214
     22210     22214     22226     22218     22212     22210     22214     22216
     22212     22210     22214     22217     22212     22210     22214     22226
     22213     22210     22214     22216     22213     22210     22214     22217
     22213     22210     22214     22226     22214     22226     22218     22220
     22214     22226     22218     22222     22214     22226     22218     22224
     22216     22214     22226     22218     22217     22214     22226     22218
     22218     22224     22228     22230     22218     22224     22228     22231
     22218     22224     22228     22232     22220     22218     22224     22228
     22222     22218     22224     22228     22224     22228     22232     22234
     22224     22228     22232     22235     22224     22228     22232     22249
     22226     22218     22224     22228     22228     22232     22235     22237
     22228     22232     22249     22251     22228     22232     22249     22252
     22228     22232     22249     22253     22230     22228     22232     22234
     22230     22228     22232     22235     22230     22228     22232     22249
     22231     22228     22232     22234     22231     22228     22232     22235
     22231     22228     22232     22249     22232     22235     22237     22239
     22232     22235     22237     22241     22232     22249     22253     22255
     22234     22232     22235     22237     22234     22232     22249     22251
     22234     22232     22249     22252     22234     22232     22249     22253
     22235     22232     22249     22251     22235     22232     22249     22252
     22235     22232     22249     22253     22235     22237     22241     22243
     22235     22237     22241     22244     22235     22237     22241     22267
     22237     22235     22232     22249     22237     22241     22267     22269
     22237     22241     22267     22270     22237     22241     22267     22271
     22239     22237     22241     22243     22239     22237     22241     22244
     22239     22237     22241     22267     22241     22267     22271     22273
     22241     22267     22271     22274     22241     22267     22271     22275
     22243     22241     22267     22269     22243     22241     22267     22270
     22243     22241     22267     22271     22244     22241     22267     22269
     22244     22241     22267     22270     22244     22241     22267     22271
     22249     22253     22255     22257     22249     22253     22255     22259
     22251     22249     22253     22255     22252     22249     22253     22255
     22253     22255     22259     22261     22253     22255     22259     22262
     22253     22255     22259     22330     22255     22259     22330     22332
     22255     22259     22330     22333     22255     22259     22330     22334
     22257     22255     22259     22261     22257     22255     22259     22262
     22257     22255     22259     22330     22259     22330     22334     22336
     22259     22330     22334     22337     22259     22330     22334     22338
     22261     22259     22330     22332     22261     22259     22330     22333
     22261     22259     22330     22334     22262     22259     22330     22332
     22262     22259     22330     22333     22262     22259     22330     22334
     22267     22271     22275     22277     22267     22271     22275     22278
     22267     22271     22275     22279     22269     22267     22271     22273
     22269     22267     22271     22274     22269     22267     22271     22275
     22270     22267     22271     22273     22270     22267     22271     22274
     22270     22267     22271     22275     22271     22275     22279     22281
     22271     22275     22279     22282     22271     22275     22279     22283
     22273     22271     22275     22277     22273     22271     22275     22278
     22273     22271     22275     22279     22274     22271     22275     22277
     22274     22271     22275     22278     22274     22271     22275     22279
     22275     22279     22283     22285     22275     22279     22283     22286
     22275     22279     22283     22287     22277     22275     22279     22281
     22277     22275     22279     22282     22277     22275     22279     22283
     22278     22275     22279     22281     22278     22275     22279     22282
     22278     22275     22279     22283     22279     22283     22287     22289
     22279     22283     22287     22290     22279     22283     22287     22291
     22281     22279     22283     22285     22281     22279     22283     22286
     22281     22279     22283     22287     22282     22279     22283     22285
     22282     22279     22283     22286     22282     22279     22283     22287
     22283     22287     22291     22293     22283     22287     22291     22294
     22285     22283     22287     22289     22285     22283     22287     22290
     22285     22283     22287     22291     22286     22283     22287     22289
     22286     22283     22287     22290     22286     22283     22287     22291
     22287     22291     22294     22296     22287     22291     22294     22297
     22289     22287     22291     22293     22289     22287     22291     22294
     22290     22287     22291     22293     22290     22287     22291     22294
     22291     22294     22297     22299     22291     22294     22297     22300
     22291     22294     22297     22301     22293     22291     22294     22296
     22293     22291     22294     22297     22294     22297     22301     22303
     22294     22297     22301     22304     22294     22297     22301     22305
     22296     22294     22297     22299     22296     22294     22297     22300
     22296     22294     22297     22301     22297     22301     22305     22307
     22297     22301     22305     22308     22297     22301     22305     22309
     22299     22297     22301     22303     22299     22297     22301     22304
     22299     22297     22301     22305     22300     22297     22301     22303
     22300     22297     22301     22304     22300     22297     22301     22305
     22301     22305     22309     22311     22301     22305     22309     22312
     22301     22305     22309     22313     22303     22301     22305     22307
     22303     22301     22305     22308     22303     22301     22305     22309
     22304     22301     22305     22307     22304     22301     22305     22308
     22304     22301     22305     22309     22305     22309     22313     22315
     22305     22309     22313     22316     22305     22309     22313     22317
     22307     22305     22309     22311     22307     22305     22309     22312
     22307     22305     22309     22313     22308     22305     22309     22311
     22308     22305     22309     22312     22308     22305     22309     22313
     22309     22313     22317     22319     22309     22313     22317     22320
     22309     22313     22317     22321     22311     22309     22313     22315
     22311     22309     22313     22316     22311     22309     22313     22317
     22312     22309     22313     22315     22312     22309     22313     22316
     22312     22309     22313     22317     22313     22317     22321     22323
     22313     22317     22321     22324     22313     22317     22321     22325
     22315     22313     22317     22319     22315     22313     22317     22320
     22315     22313     22317     22321     22316     22313     22317     22319
     22316     22313     22317     22320     22316     22313     22317     22321
     22317     22321     22325     22327     22317     22321     22325     22328
     22317     22321     22325     22329     22319     22317     22321     22323
     22319     22317     22321     22324     22319     22317     22321     22325
     22320     22317     22321     22323     22320     22317     22321     22324
     22320     22317     22321     22325     22323     22321     22325     22327
     22323     22321     22325     22328     22323     22321     22325     22329
     22324     22321     22325     22327     22324     22321     22325     22328
     22324     22321     22325     22329     22330     22334     22338     22340
     22330     22334     22338     22341     22330     22334     22338     22342
     22332     22330     22334     22336     22332     22330     22334     22337
     22332     22330     22334     22338     22333     22330     22334     22336
     22333     22330     22334     22337     22333     22330     22334     22338
     22334     22338     22342     22344     22334     22338     22342     22345
     22334     22338     22342     22346     22336     22334     22338     22340
     22336     22334     22338     22341     22336     22334     22338     22342
     22337     22334     22338     22340     22337     22334     22338     22341
     22337     22334     22338     22342     22338     22342     22346     22348
     22338     22342     22346     22349     22338     22342     22346     22350
     22340     22338     22342     22344     22340     22338     22342     22345
     22340     22338     22342     22346     22341     22338     22342     22344
     22341     22338     22342     22345     22341     22338     22342     22346
     22342     22346     22350     22352     22342     22346     22350     22353
     22342     22346     22350     22354     22344     22342     22346     22348
     22344     22342     22346     22349     22344     22342     22346     22350
     22345     22342     22346     22348     22345     22342     22346     22349
     22345     22342     22346     22350     22346     22350     22354     22356
     22346     22350     22354     22357     22346     22350     22354     22358
     22348     22346     22350     22352     22348     22346     22350     22353
     22348     22346     22350     22354     22349     22346     22350     22352
     22349     22346     22350     22353     22349     22346     22350     22354
     22350     22354     22358     22360     22350     22354     22358     22361
     22350     22354     22358     22362     22352     22350     22354     22356
     22352     22350     22354     22357     22352     22350     22354     22358
     22353     22350     22354     22356     22353     22350     22354     22357
     22353     22350     22354     22358     22354     22358     22362     22364
     22354     22358     22362     22365     22354     22358     22362     22366
     22356     22354     22358     22360     22356     22354     22358     22361
     22356     22354     22358     22362     22357     22354     22358     22360
     22357     22354     22358     22361     22357     22354     22358     22362
     22358     22362     22366     22368     22358     22362     22366     22369
     22358     22362     22366     22370     22360     22358     22362     22364
     22360     22358     22362     22365     22360     22358     22362     22366
     22361     22358     22362     22364     22361     22358     22362     22365
     22361     22358     22362     22366     22362     22366     22370     22372
     22362     22366     22370     22373     22362     22366     22370     22374
     22364     22362     22366     22368     22364     22362     22366     22369
     22364     22362     22366     22370     22365     22362     22366     22368
     22365     22362     22366     22369     22365     22362     22366     22370
     22366     22370     22374     22376     22366     22370     22374     22377
     22366     22370     22374     22378     22368     22366     22370     22372
     22368     22366     22370     22373     22368     22366     22370     22374
     22369     22366     22370     22372     22369     22366     22370     22373
     22369     22366     22370     22374     22370     22374     22378     22380
     22370     22374     22378     22381     22370     22374     22378     22382
     22372     22370     22374     22376     22372     22370     22374     22377
     22372     22370     22374     22378     22373     22370     22374     22376
     22373     22370     22374     22377     22373     22370     22374     22378
     22374     22378     22382     22384     22374     22378     22382     22385
     22374     22378     22382     22386     22376     22374     22378     22380
     22376     22374     22378     22381     22376     22374     22378     22382
     22377     22374     22378     22380     22377     22374     22378     22381
     22377     22374     22378     22382     22380     22378     22382     22384
     22380     22378     22382     22385     22380     22378     22382     22386
     22381     22378     22382     22384     22381     22378     22382     22385
     22381     22378     22382     22386     22387     22392     22396     22398
     22387     22392     22396     22399     22387     22392     22396     22408
     22389     22387     22392     22394     22389     22387     22392     22395
     22389     22387     22392     22396     22390     22387     22392     22394
     22390     22387     22392     22395     22390     22387     22392     22396
     22391     22387     22392     22394     22391     22387     22392     22395
     22391     22387     22392     22396     22392     22396     22408     22400
     22394     22392     22396     22398     22394     22392     22396     22399
     22394     22392     22396     22408     22395     22392     22396     22398
     22395     22392     22396     22399     22395     22392     22396     22408
     22396     22408     22400     22402     22396     22408     22400     22404
     22396     22408     22400     22406     22398     22396     22408     22400
     22399     22396     22408     22400     22400     22406     22410     22412
     22400     22406     22410     22413     22400     22406     22410     22414
     22402     22400     22406     22410     22404     22400     22406     22410
     22406     22410     22414     22416     22406     22410     22414     22417
     22406     22410     22414     22431     22408     22400     22406     22410
     22410     22414     22417     22419     22410     22414     22431     22433
     22410     22414     22431     22434     22410     22414     22431     22435
     22412     22410     22414     22416     22412     22410     22414     22417
     22412     22410     22414     22431     22413     22410     22414     22416
     22413     22410     22414     22417     22413     22410     22414     22431
     22414     22417     22419     22421     22414     22417     22419     22423
     22414     22431     22435     22437     22416     22414     22417     22419
     22416     22414     22431     22433     22416     22414     22431     22434
     22416     22414     22431     22435     22417     22414     22431     22433
     22417     22414     22431     22434     22417     22414     22431     22435
     22417     22419     22423     22425     22417     22419     22423     22426
     22417     22419     22423     22449     22419     22417     22414     22431
     22419     22423     22449     22451     22419     22423     22449     22452
     22419     22423     22449     22453     22421     22419     22423     22425
     22421     22419     22423     22426     22421     22419     22423     22449
     22423     22449     22453     22455     22423     22449     22453     22456
     22423     22449     22453     22457     22425     22423     22449     22451
     22425     22423     22449     22452     22425     22423     22449     22453
     22426     22423     22449     22451     22426     22423     22449     22452
     22426     22423     22449     22453     22431     22435     22437     22439
     22431     22435     22437     22441     22433     22431     22435     22437
     22434     22431     22435     22437     22435     22437     22441     22443
     22435     22437     22441     22444     22435     22437     22441     22512
     22437     22441     22512     22514     22437     22441     22512     22515
     22437     22441     22512     22516     22439     22437     22441     22443
     22439     22437     22441     22444     22439     22437     22441     22512
     22441     22512     22516     22518     22441     22512     22516     22519
     22441     22512     22516     22520     22443     22441     22512     22514
     22443     22441     22512     22515     22443     22441     22512     22516
     22444     22441     22512     22514     22444     22441     22512     22515
     22444     22441     22512     22516     22449     22453     22457     22459
     22449     22453     22457     22460     22449     22453     22457     22461
     22451     22449     22453     22455     22451     22449     22453     22456
     22451     22449     22453     22457     22452     22449     22453     22455
     22452     22449     22453     22456     22452     22449     22453     22457
     22453     22457     22461     22463     22453     22457     22461     22464
     22453     22457     22461     22465     22455     22453     22457     22459
     22455     22453     22457     22460     22455     22453     22457     22461
     22456     22453     22457     22459     22456     22453     22457     22460
     22456     22453     22457     22461     22457     22461     22465     22467
     22457     22461     22465     22468     22457     22461     22465     22469
     22459     22457     22461     22463     22459     22457     22461     22464
     22459     22457     22461     22465     22460     22457     22461     22463
     22460     22457     22461     22464     22460     22457     22461     22465
     22461     22465     22469     22471     22461     22465     22469     22472
     22461     22465     22469     22473     22463     22461     22465     22467
     22463     22461     22465     22468     22463     22461     22465     22469
     22464     22461     22465     22467     22464     22461     22465     22468
     22464     22461     22465     22469     22465     22469     22473     22475
     22465     22469     22473     22476     22467     22465     22469     22471
     22467     22465     22469     22472     22467     22465     22469     22473
     22468     22465     22469     22471     22468     22465     22469     22472
     22468     22465     22469     22473     22469     22473     22476     22478
     22469     22473     22476     22479     22471     22469     22473     22475
     22471     22469     22473     22476     22472     22469     22473     22475
     22472     22469     22473     22476     22473     22476     22479     22481
     22473     22476     22479     22482     22473     22476     22479     22483
     22475     22473     22476     22478     22475     22473     22476     22479
     22476     22479     22483     22485     22476     22479     22483     22486
     22476     22479     22483     22487     22478     22476     22479     22481
     22478     22476     22479     22482     22478     22476     22479     22483
     22479     22483     22487     22489     22479     22483     22487     22490
     22479     22483     22487     22491     22481     22479     22483     22485
     22481     22479     22483     22486     22481     22479     22483     22487
     22482     22479     22483     22485     22482     22479     22483     22486
     22482     22479     22483     22487     22483     22487     22491     22493
     22483     22487     22491     22494     22483     22487     22491     22495
     22485     22483     22487     22489     22485     22483     22487     22490
     22485     22483     22487     22491     22486     22483     22487     22489
     22486     22483     22487     22490     22486     22483     22487     22491
     22487     22491     22495     22497     22487     22491     22495     22498
     22487     22491     22495     22499     22489     22487     22491     22493
     22489     22487     22491     22494     22489     22487     22491     22495
     22490     22487     22491     22493     22490     22487     22491     22494
     22490     22487     22491     22495     22491     22495     22499     22501
     22491     22495     22499     22502     22491     22495     22499     22503
     22493     22491     22495     22497     22493     22491     22495     22498
     22493     22491     22495     22499     22494     22491     22495     22497
     22494     22491     22495     22498     22494     22491     22495     22499
     22495     22499     22503     22505     22495     22499     22503     22506
     22495     22499     22503     22507     22497     22495     22499     22501
     22497     22495     22499     22502     22497     22495     22499     22503
     22498     22495     22499     22501     22498     22495     22499     22502
     22498     22495     22499     22503     22499     22503     22507     22509
     22499     22503     22507     22510     22499     22503     22507     22511
     22501     22499     22503     22505     22501     22499     22503     22506
     22501     22499     22503     22507     22502     22499     22503     22505
     22502     22499     22503     22506     22502     22499     22503     22507
     22505     22503     22507     22509     22505     22503     22507     22510
     22505     22503     22507     22511     22506     22503     22507     22509
     22506     22503     22507     22510     22506     22503     22507     22511
     22512     22516     22520     22522     22512     22516     22520     22523
     22512     22516     22520     22524     22514     22512     22516     22518
     22514     22512     22516     22519     22514     22512     22516     22520
     22515     22512     22516     22518     22515     22512     22516     22519
     22515     22512     22516     22520     22516     22520     22524     22526
     22516     22520     22524     22527     22516     22520     22524     22528
     22518     22516     22520     22522     22518     22516     22520     22523
     22518     22516     22520     22524     22519     22516     22520     22522
     22519     22516     22520     22523     22519     22516     22520     22524
     22520     22524     22528     22530     22520     22524     22528     22531
     22520     22524     22528     22532     22522     22520     22524     22526
     22522     22520     22524     22527     22522     22520     22524     22528
     22523     22520     22524     22526     22523     22520     22524     22527
     22523     22520     22524     22528     22524     22528     22532     22534
     22524     22528     22532     22535     22524     22528     22532     22536
     22526     22524     22528     22530     22526     22524     22528     22531
     22526     22524     22528     22532     22527     22524     22528     22530
     22527     22524     22528     22531     22527     22524     22528     22532
     22528     22532     22536     22538     22528     22532     22536     22539
     22528     22532     22536     22540     22530     22528     22532     22534
     22530     22528     22532     22535     22530     22528     22532     22536
     22531     22528     22532     22534     22531     22528     22532     22535
     22531     22528     22532     22536     22532     22536     22540     22542
     22532     22536     22540     22543     22532     22536     22540     22544
     22534     22532     22536     22538     22534     22532     22536     22539
     22534     22532     22536     22540     22535     22532     22536     22538
     22535     22532     22536     22539     22535     22532     22536     22540
     22536     22540     22544     22546     22536     22540     22544     22547
     22536     22540     22544     22548     22538     22536     22540     22542
     22538     22536     22540     22543     22538     22536     22540     22544
     22539     22536     22540     22542     22539     22536     22540     22543
     22539     22536     22540     22544     22540     22544     22548     22550
     22540     22544     22548     22551     22540     22544     22548     22552
     22542     22540     22544     22546     22542     22540     22544     22547
     22542     22540     22544     22548     22543     22540     22544     22546
     22543     22540     22544     22547     22543     22540     22544     22548
     22544     22548     22552     22554     22544     22548     22552     22555
     22544     22548     22552     22556     22546     22544     22548     22550
     22546     22544     22548     22551     22546     22544     22548     22552
     22547     22544     22548     22550     22547     22544     22548     22551
     22547     22544     22548     22552     22548     22552     22556     22558
     22548     22552     22556     22559     22548     22552     22556     22560
     22550     22548     22552     22554     22550     22548     22552     22555
     22550     22548     22552     22556     22551     22548     22552     22554
     22551     22548     22552     22555     22551     22548     22552     22556
     22552     22556     22560     22562     22552     22556     22560     22563
     22552     22556     22560     22564     22554     22552     22556     22558
     22554     22552     22556     22559     22554     22552     22556     22560
     22555     22552     22556     22558     22555     22552     22556     22559
     22555     22552     22556     22560     22556     22560     22564     22566
     22556     22560     22564     22567     22556     22560     22564     22568
     22558     22556     22560     22562     22558     22556     22560     22563
     22558     22556     22560     22564     22559     22556     22560     22562
     22559     22556     22560     22563     22559     22556     22560     22564
     22562     22560     22564     22566     22562     22560     22564     22567
     22562     22560     22564     22568     22563     22560     22564     22566
     22563     22560     22564     22567     22563     22560     22564     22568
     22569     22574     22578     22580     22569     22574     22578     22581
     22569     22574     22578     22590     22571     22569     22574     22576
     22571     22569     22574     22577     22571     22569     22574     22578
     22572     22569     22574     22576     22572     22569     22574     22577
     22572     22569     22574     22578     22573     22569     22574     22576
     22573     22569     22574     22577     22573     22569     22574     22578
     22574     22578     22590     22582     22576     22574     22578     22580
     22576     22574     22578     22581     22576     22574     22578     22590
     22577     22574     22578     22580     22577     22574     22578     22581
     22577     22574     22578     22590     22578     22590     22582     22584
     22578     22590     22582     22586     22578     22590     22582     22588
     22580     22578     22590     22582     22581     22578     22590     22582
     22582     22588     22592     22594     22582     22588     22592     22595
     22582     22588     22592     22596     22584     22582     22588     22592
     22586     22582     22588     22592     22588     22592     22596     22598
     22588     22592     22596     22599     22588     22592     22596     22613
     22590     22582     22588     22592     22592     22596     22599     22601
     22592     22596     22613     22615     22592     22596     22613     22616
     22592     22596     22613     22617     22594     22592     22596     22598
     22594     22592     22596     22599     22594     22592     22596     22613
     22595     22592     22596     22598     22595     22592     22596     22599
     22595     22592     22596     22613     22596     22599     22601     22603
     22596     22599     22601     22605     22596     22613     22617     22619
     22598     22596     22599     22601     22598     22596     22613     22615
     22598     22596     22613     22616     22598     22596     22613     22617
     22599     22596     22613     22615     22599     22596     22613     22616
     22599     22596     22613     22617     22599     22601     22605     22607
     22599     22601     22605     22608     22599     22601     22605     22631
     22601     22599     22596     22613     22601     22605     22631     22633
     22601     22605     22631     22634     22601     22605     22631     22635
     22603     22601     22605     22607     22603     22601     22605     22608
     22603     22601     22605     22631     22605     22631     22635     22637
     22605     22631     22635     22638     22605     22631     22635     22639
     22607     22605     22631     22633     22607     22605     22631     22634
     22607     22605     22631     22635     22608     22605     22631     22633
     22608     22605     22631     22634     22608     22605     22631     22635
     22613     22617     22619     22621     22613     22617     22619     22623
     22615     22613     22617     22619     22616     22613     22617     22619
     22617     22619     22623     22625     22617     22619     22623     22626
     22617     22619     22623     22694     22619     22623     22694     22696
     22619     22623     22694     22697     22619     22623     22694     22698
     22621     22619     22623     22625     22621     22619     22623     22626
     22621     22619     22623     22694     22623     22694     22698     22700
     22623     22694     22698     22701     22623     22694     22698     22702
     22625     22623     22694     22696     22625     22623     22694     22697
     22625     22623     22694     22698     22626     22623     22694     22696
     22626     22623     22694     22697     22626     22623     22694     22698
     22631     22635     22639     22641     22631     22635     22639     22642
     22631     22635     22639     22643     22633     22631     22635     22637
     22633     22631     22635     22638     22633     22631     22635     22639
     22634     22631     22635     22637     22634     22631     22635     22638
     22634     22631     22635     22639     22635     22639     22643     22645
     22635     22639     22643     22646     22635     22639     22643     22647
     22637     22635     22639     22641     22637     22635     22639     22642
     22637     22635     22639     22643     22638     22635     22639     22641
     22638     22635     22639     22642     22638     22635     22639     22643
     22639     22643     22647     22649     22639     22643     22647     22650
     22639     22643     22647     22651     22641     22639     22643     22645
     22641     22639     22643     22646     22641     22639     22643     22647
     22642     22639     22643     22645     22642     22639     22643     22646
     22642     22639     22643     22647     22643     22647     22651     22653
     22643     22647     22651     22654     22643     22647     22651     22655
     22645     22643     22647     22649     22645     22643     22647     22650
     22645     22643     22647     22651     22646     22643     22647     22649
     22646     22643     22647     22650     22646     22643     22647     22651
     22647     22651     22655     22657     22647     22651     22655     22658
     22649     22647     22651     22653     22649     22647     22651     22654
     22649     22647     22651     22655     22650     22647     22651     22653
     22650     22647     22651     22654     22650     22647     22651     22655
     22651     22655     22658     22660     22651     22655     22658     22661
     22653     22651     22655     22657     22653     22651     22655     22658
     22654     22651     22655     22657     22654     22651     22655     22658
     22655     22658     22661     22663     22655     22658     22661     22664
     22655     22658     22661     22665     22657     22655     22658     22660
     22657     22655     22658     22661     22658     22661     22665     22667
     22658     22661     22665     22668     22658     22661     22665     22669
     22660     22658     22661     22663     22660     22658     22661     22664
     22660     22658     22661     22665     22661     22665     22669     22671
     22661     22665     22669     22672     22661     22665     22669     22673
     22663     22661     22665     22667     22663     22661     22665     22668
     22663     22661     22665     22669     22664     22661     22665     22667
     22664     22661     22665     22668     22664     22661     22665     22669
     22665     22669     22673     22675     22665     22669     22673     22676
     22665     22669     22673     22677     22667     22665     22669     22671
     22667     22665     22669     22672     22667     22665     22669     22673
     22668     22665     22669     22671     22668     22665     22669     22672
     22668     22665     22669     22673     22669     22673     22677     22679
     22669     22673     22677     22680     22669     22673     22677     22681
     22671     22669     22673     22675     22671     22669     22673     22676
     22671     22669     22673     22677     22672     22669     22673     22675
     22672     22669     22673     22676     22672     22669     22673     22677
     22673     22677     22681     22683     22673     22677     22681     22684
     22673     22677     22681     22685     22675     22673     22677     22679
     22675     22673     22677     22680     22675     22673     22677     22681
     22676     22673     22677     22679     22676     22673     22677     22680
     22676     22673     22677     22681     22677     22681     22685     22687
     22677     22681     22685     22688     22677     22681     22685     22689
     22679     22677     22681     22683     22679     22677     22681     22684
     22679     22677     22681     22685     22680     22677     22681     22683
     22680     22677     22681     22684     22680     22677     22681     22685
     22681     22685     22689     22691     22681     22685     22689     22692
     22681     22685     22689     22693     22683     22681     22685     22687
     22683     22681     22685     22688     22683     22681     22685     22689
     22684     22681     22685     22687     22684     22681     22685     22688
     22684     22681     22685     22689     22687     22685     22689     22691
     22687     22685     22689     22692     22687     22685     22689     22693
     22688     22685     22689     22691     22688     22685     22689     22692
     22688     22685     22689     22693     22694     22698     22702     22704
     22694     22698     22702     22705     22694     22698     22702     22706
     22696     22694     22698     22700     22696     22694     22698     22701
     22696     22694     22698     22702     22697     22694     22698     22700
     22697     22694     22698     22701     22697     22694     22698     22702
     22698     22702     22706     22708     22698     22702     22706     22709
     22698     22702     22706     22710     22700     22698     22702     22704
     22700     22698     22702     22705     22700     22698     22702     22706
     22701     22698     22702     22704     22701     22698     22702     22705
     22701     22698     22702     22706     22702     22706     22710     22712
     22702     22706     22710     22713     22702     22706     22710     22714
     22704     22702     22706     22708     22704     22702     22706     22709
     22704     22702     22706     22710     22705     22702     22706     22708
     22705     22702     22706     22709     22705     22702     22706     22710
     22706     22710     22714     22716     22706     22710     22714     22717
     22706     22710     22714     22718     22708     22706     22710     22712
     22708     22706     22710     22713     22708     22706     22710     22714
     22709     22706     22710     22712     22709     22706     22710     22713
     22709     22706     22710     22714     22710     22714     22718     22720
     22710     22714     22718     22721     22710     22714     22718     22722
     22712     22710     22714     22716     22712     22710     22714     22717
     22712     22710     22714     22718     22713     22710     22714     22716
     22713     22710     22714     22717     22713     22710     22714     22718
     22714     22718     22722     22724     22714     22718     22722     22725
     22714     22718     22722     22726     22716     22714     22718     22720
     22716     22714     22718     22721     22716     22714     22718     22722
     22717     22714     22718     22720     22717     22714     22718     22721
     22717     22714     22718     22722     22718     22722     22726     22728
     22718     22722     22726     22729     22718     22722     22726     22730
     22720     22718     22722     22724     22720     22718     22722     22725
     22720     22718     22722     22726     22721     22718     22722     22724
     22721     22718     22722     22725     22721     22718     22722     22726
     22722     22726     22730     22732     22722     22726     22730     22733
     22722     22726     22730     22734     22724     22722     22726     22728
     22724     22722     22726     22729     22724     22722     22726     22730
     22725     22722     22726     22728     22725     22722     22726     22729
     22725     22722     22726     22730     22726     22730     22734     22736
     22726     22730     22734     22737     22726     22730     22734     22738
     22728     22726     22730     22732     22728     22726     22730     22733
     22728     22726     22730     22734     22729     22726     22730     22732
     22729     22726     22730     22733     22729     22726     22730     22734
     22730     22734     22738     22740     22730     22734     22738     22741
     22730     22734     22738     22742     22732     22730     22734     22736
     22732     22730     22734     22737     22732     22730     22734     22738
     22733     22730     22734     22736     22733     22730     22734     22737
     22733     22730     22734     22738     22734     22738     22742     22744
     22734     22738     22742     22745     22734     22738     22742     22746
     22736     22734     22738     22740     22736     22734     22738     22741
     22736     22734     22738     22742     22737     22734     22738     22740
     22737     22734     22738     22741     22737     22734     22738     22742
     22738     22742     22746     22748     22738     22742     22746     22749
     22738     22742     22746     22750     22740     22738     22742     22744
     22740     22738     22742     22745     22740     22738     22742     22746
     22741     22738     22742     22744     22741     22738     22742     22745
     22741     22738     22742     22746     22744     22742     22746     22748
     22744     22742     22746     22749     22744     22742     22746     22750
     22745     22742     22746     22748     22745     22742     22746     22749
     22745     22742     22746     22750     22751     22756     22760     22762
     22751     22756     22760     22763     22751     22756     22760     22772
     22753     22751     22756     22758     22753     22751     22756     22759
     22753     22751     22756     22760     22754     22751     22756     22758
     22754     22751     22756     22759     22754     22751     22756     22760
     22755     22751     22756     22758     22755     22751     22756     22759
     22755     22751     22756     22760     22756     22760     22772     22764
     22758     22756     22760     22762     22758     22756     22760     22763
     22758     22756     22760     22772     22759     22756     22760     22762
     22759     22756     22760     22763     22759     22756     22760     22772
     22760     22772     22764     22766     22760     22772     22764     22768
     22760     22772     22764     22770     22762     22760     22772     22764
     22763     22760     22772     22764     22764     22770     22774     22776
     22764     22770     22774     22777     22764     22770     22774     22778
     22766     22764     22770     22774     22768     22764     22770     22774
     22770     22774     22778     22780     22770     22774     22778     22781
     22770     22774     22778     22795     22772     22764     22770     22774
     22774     22778     22781     22783     22774     22778     22795     22797
     22774     22778     22795     22798     22774     22778     22795     22799
     22776     22774     22778     22780     22776     22774     22778     22781
     22776     22774     22778     22795     22777     22774     22778     22780
     22777     22774     22778     22781     22777     22774     22778     22795
     22778     22781     22783     22785     22778     22781     22783     22787
     22778     22795     22799     22801     22780     22778     22781     22783
     22780     22778     22795     22797     22780     22778     22795     22798
     22780     22778     22795     22799     22781     22778     22795     22797
     22781     22778     22795     22798     22781     22778     22795     22799
     22781     22783     22787     22789     22781     22783     22787     22790
     22781     22783     22787     22813     22783     22781     22778     22795
     22783     22787     22813     22815     22783     22787     22813     22816
     22783     22787     22813     22817     22785     22783     22787     22789
     22785     22783     22787     22790     22785     22783     22787     22813
     22787     22813     22817     22819     22787     22813     22817     22820
     22787     22813     22817     22821     22789     22787     22813     22815
     22789     22787     22813     22816     22789     22787     22813     22817
     22790     22787     22813     22815     22790     22787     22813     22816
     22790     22787     22813     22817     22795     22799     22801     22803
     22795     22799     22801     22805     22797     22795     22799     22801
     22798     22795     22799     22801     22799     22801     22805     22807
     22799     22801     22805     22808     22799     22801     22805     22876
     22801     22805     22876     22878     22801     22805     22876     22879
     22801     22805     22876     22880     22803     22801     22805     22807
     22803     22801     22805     22808     22803     22801     22805     22876
     22805     22876     22880     22882     22805     22876     22880     22883
     22805     22876     22880     22884     22807     22805     22876     22878
     22807     22805     22876     22879     22807     22805     22876     22880
     22808     22805     22876     22878     22808     22805     22876     22879
     22808     22805     22876     22880     22813     22817     22821     22823
     22813     22817     22821     22824     22813     22817     22821     22825
     22815     22813     22817     22819     22815     22813     22817     22820
     22815     22813     22817     22821     22816     22813     22817     22819
     22816     22813     22817     22820     22816     22813     22817     22821
     22817     22821     22825     22827     22817     22821     22825     22828
     22817     22821     22825     22829     22819     22817     22821     22823
     22819     22817     22821     22824     22819     22817     22821     22825
     22820     22817     22821     22823     22820     22817     22821     22824
     22820     22817     22821     22825     22821     22825     22829     22831
     22821     22825     22829     22832     22821     22825     22829     22833
     22823     22821     22825     22827     22823     22821     22825     22828
     22823     22821     22825     22829     22824     22821     22825     22827
     22824     22821     22825     22828     22824     22821     22825     22829
     22825     22829     22833     22835     22825     22829     22833     22836
     22825     22829     22833     22837     22827     22825     22829     22831
     22827     22825     22829     22832     22827     22825     22829     22833
     22828     22825     22829     22831     22828     22825     22829     22832
     22828     22825     22829     22833     22829     22833     22837     22839
     22829     22833     22837     22840     22831     22829     22833     22835
     22831     22829     22833     22836     22831     22829     22833     22837
     22832     22829     22833     22835     22832     22829     22833     22836
     22832     22829     22833     22837     22833     22837     22840     22842
     22833     22837     22840     22843     22835     22833     22837     22839
     22835     22833     22837     22840     22836     22833     22837     22839
     22836     22833     22837     22840     22837     22840     22843     22845
     22837     22840     22843     22846     22837     22840     22843     22847
     22839     22837     22840     22842     22839     22837     22840     22843
     22840     22843     22847     22849     22840     22843     22847     22850
     22840     22843     22847     22851     22842     22840     22843     22845
     22842     22840     22843     22846     22842     22840     22843     22847
     22843     22847     22851     22853     22843     22847     22851     22854
     22843     22847     22851     22855     22845     22843     22847     22849
     22845     22843     22847     22850     22845     22843     22847     22851
     22846     22843     22847     22849     22846     22843     22847     22850
     22846     22843     22847     22851     22847     22851     22855     22857
     22847     22851     22855     22858     22847     22851     22855     22859
     22849     22847     22851     22853     22849     22847     22851     22854
     22849     22847     22851     22855     22850     22847     22851     22853
     22850     22847     22851     22854     22850     22847     22851     22855
     22851     22855     22859     22861     22851     22855     22859     22862
     22851     22855     22859     22863     22853     22851     22855     22857
     22853     22851     22855     22858     22853     22851     22855     22859
     22854     22851     22855     22857     22854     22851     22855     22858
     22854     22851     22855     22859     22855     22859     22863     22865
     22855     22859     22863     22866     22855     22859     22863     22867
     22857     22855     22859     22861     22857     22855     22859     22862
     22857     22855     22859     22863     22858     22855     22859     22861
     22858     22855     22859     22862     22858     22855     22859     22863
     22859     22863     22867     22869     22859     22863     22867     22870
     22859     22863     22867     22871     22861     22859     22863     22865
     22861     22859     22863     22866     22861     22859     22863     22867
     22862     22859     22863     22865     22862     22859     22863     22866
     22862     22859     22863     22867     22863     22867     22871     22873
     22863     22867     22871     22874     22863     22867     22871     22875
     22865     22863     22867     22869     22865     22863     22867     22870
     22865     22863     22867     22871     22866     22863     22867     22869
     22866     22863     22867     22870     22866     22863     22867     22871
     22869     22867     22871     22873     22869     22867     22871     22874
     22869     22867     22871     22875     22870     22867     22871     22873
     22870     22867     22871     22874     22870     22867     22871     22875
     22876     22880     22884     22886     22876     22880     22884     22887
     22876     22880     22884     22888     22878     22876     22880     22882
     22878     22876     22880     22883     22878     22876     22880     22884
     22879     22876     22880     22882     22879     22876     22880     22883
     22879     22876     22880     22884     22880     22884     22888     22890
     22880     22884     22888     22891     22880     22884     22888     22892
     22882     22880     22884     22886     22882     22880     22884     22887
     22882     22880     22884     22888     22883     22880     22884     22886
     22883     22880     22884     22887     22883     22880     22884     22888
     22884     22888     22892     22894     22884     22888     22892     22895
     22884     22888     22892     22896     22886     22884     22888     22890
     22886     22884     22888     22891     22886     22884     22888     22892
     22887     22884     22888     22890     22887     22884     22888     22891
     22887     22884     22888     22892     22888     22892     22896     22898
     22888     22892     22896     22899     22888     22892     22896     22900
     22890     22888     22892     22894     22890     22888     22892     22895
     22890     22888     22892     22896     22891     22888     22892     22894
     22891     22888     22892     22895     22891     22888     22892     22896
     22892     22896     22900     22902     22892     22896     22900     22903
     22892     22896     22900     22904     22894     22892     22896     22898
     22894     22892     22896     22899     22894     22892     22896     22900
     22895     22892     22896     22898     22895     22892     22896     22899
     22895     22892     22896     22900     22896     22900     22904     22906
     22896     22900     22904     22907     22896     22900     22904     22908
     22898     22896     22900     22902     22898     22896     22900     22903
     22898     22896     22900     22904     22899     22896     22900     22902
     22899     22896     22900     22903     22899     22896     22900     22904
     22900     22904     22908     22910     22900     22904     22908     22911
     22900     22904     22908     22912     22902     22900     22904     22906
     22902     22900     22904     22907     22902     22900     22904     22908
     22903     22900     22904     22906     22903     22900     22904     22907
     22903     22900     22904     22908     22904     22908     22912     22914
     22904     22908     22912     22915     22904     22908     22912     22916
     22906     22904     22908     22910     22906     22904     22908     22911
     22906     22904     22908     22912     22907     22904     22908     22910
     22907     22904     22908     22911     22907     22904     22908     22912
     22908     22912     22916     22918     22908     22912     22916     22919
     22908     22912     22916     22920     22910     22908     22912     22914
     22910     22908     22912     22915     22910     22908     22912     22916
     22911     22908     22912     22914     22911     22908     22912     22915
     22911     22908     22912     22916     22912     22916     22920     22922
     22912     22916     22920     22923     22912     22916     22920     22924
     22914     22912     22916     22918     22914     22912     22916     22919
     22914     22912     22916     22920     22915     22912     22916     22918
     22915     22912     22916     22919     22915     22912     22916     22920
     22916     22920     22924     22926     22916     22920     22924     22927
     22916     22920     22924     22928     22918     22916     22920     22922
     22918     22916     22920     22923     22918     22916     22920     22924
     22919     22916     22920     22922     22919     22916     22920     22923
     22919     22916     22920     22924     22920     22924     22928     22930
     22920     22924     22928     22931     22920     22924     22928     22932
     22922     22920     22924     22926     22922     22920     22924     22927
     22922     22920     22924     22928     22923     22920     22924     22926
     22923     22920     22924     22927     22923     22920     22924     22928
     22926     22924     22928     22930     22926     22924     22928     22931
     22926     22924     22928     22932     22927     22924     22928     22930
     22927     22924     22928     22931     22927     22924     22928     22932
     22933     22938     22942     22944     22933     22938     22942     22945
     22933     22938     22942     22954     22935     22933     22938     22940
     22935     22933     22938     22941     22935     22933     22938     22942
     22936     22933     22938     22940     22936     22933     22938     22941
     22936     22933     22938     22942     22937     22933     22938     22940
     22937     22933     22938     22941     22937     22933     22938     22942
     22938     22942     22954     22946     22940     22938     22942     22944
     22940     22938     22942     22945     22940     22938     22942     22954
     22941     22938     22942     22944     22941     22938     22942     22945
     22941     22938     22942     22954     22942     22954     22946     22948
     22942     22954     22946     22950     22942     22954     22946     22952
     22944     22942     22954     22946     22945     22942     22954     22946
     22946     22952     22956     22958     22946     22952     22956     22959
     22946     22952     22956     22960     22948     22946     22952     22956
     22950     22946     22952     22956     22952     22956     22960     22962
     22952     22956     22960     22963     22952     22956     22960     22977
     22954     22946     22952     22956     22956     22960     22963     22965
     22956     22960     22977     22979     22956     22960     22977     22980
     22956     22960     22977     22981     22958     22956     22960     22962
     22958     22956     22960     22963     22958     22956     22960     22977
     22959     22956     22960     22962     22959     22956     22960     22963
     22959     22956     22960     22977     22960     22963     22965     22967
     22960     22963     22965     22969     22960     22977     22981     22983
     22962     22960     22963     22965     22962     22960     22977     22979
     22962     22960     22977     22980     22962     22960     22977     22981
     22963     22960     22977     22979     22963     22960     22977     22980
     22963     22960     22977     22981     22963     22965     22969     22971
     22963     22965     22969     22972     22963     22965     22969     22995
     22965     22963     22960     22977     22965     22969     22995     22997
     22965     22969     22995     22998     22965     22969     22995     22999
     22967     22965     22969     22971     22967     22965     22969     22972
     22967     22965     22969     22995     22969     22995     22999     23001
     22969     22995     22999     23002     22969     22995     22999     23003
     22971     22969     22995     22997     22971     22969     22995     22998
     22971     22969     22995     22999     22972     22969     22995     22997
     22972     22969     22995     22998     22972     22969     22995     22999
     22977     22981     22983     22985     22977     22981     22983     22987
     22979     22977     22981     22983     22980     22977     22981     22983
     22981     22983     22987     22989     22981     22983     22987     22990
     22981     22983     22987     23058     22983     22987     23058     23060
     22983     22987     23058     23061     22983     22987     23058     23062
     22985     22983     22987     22989     22985     22983     22987     22990
     22985     22983     22987     23058     22987     23058     23062     23064
     22987     23058     23062     23065     22987     23058     23062     23066
     22989     22987     23058     23060     22989     22987     23058     23061
     22989     22987     23058     23062     22990     22987     23058     23060
     22990     22987     23058     23061     22990     22987     23058     23062
     22995     22999     23003     23005     22995     22999     23003     23006
     22995     22999     23003     23007     22997     22995     22999     23001
     22997     22995     22999     23002     22997     22995     22999     23003
     22998     22995     22999     23001     22998     22995     22999     23002
     22998     22995     22999     23003     22999     23003     23007     23009
     22999     23003     23007     23010     22999     23003     23007     23011
     23001     22999     23003     23005     23001     22999     23003     23006
     23001     22999     23003     23007     23002     22999     23003     23005
     23002     22999     23003     23006     23002     22999     23003     23007
     23003     23007     23011     23013     23003     23007     23011     23014
     23003     23007     23011     23015     23005     23003     23007     23009
     23005     23003     23007     23010     23005     23003     23007     23011
     23006     23003     23007     23009     23006     23003     23007     23010
     23006     23003     23007     23011     23007     23011     23015     23017
     23007     23011     23015     23018     23007     23011     23015     23019
     23009     23007     23011     23013     23009     23007     23011     23014
     23009     23007     23011     23015     23010     23007     23011     23013
     23010     23007     23011     23014     23010     23007     23011     23015
     23011     23015     23019     23021     23011     23015     23019     23022
     23013     23011     23015     23017     23013     23011     23015     23018
     23013     23011     23015     23019     23014     23011     23015     23017
     23014     23011     23015     23018     23014     23011     23015     23019
     23015     23019     23022     23024     23015     23019     23022     23025
     23017     23015     23019     23021     23017     23015     23019     23022
     23018     23015     23019     23021     23018     23015     23019     23022
     23019     23022     23025     23027     23019     23022     23025     23028
     23019     23022     23025     23029     23021     23019     23022     23024
     23021     23019     23022     23025     23022     23025     23029     23031
     23022     23025     23029     23032     23022     23025     23029     23033
     23024     23022     23025     23027     23024     23022     23025     23028
     23024     23022     23025     23029     23025     23029     23033     23035
     23025     23029     23033     23036     23025     23029     23033     23037
     23027     23025     23029     23031     23027     23025     23029     23032
     23027     23025     23029     23033     23028     23025     23029     23031
     23028     23025     23029     23032     23028     23025     23029     23033
     23029     23033     23037     23039     23029     23033     23037     23040
     23029     23033     23037     23041     23031     23029     23033     23035
     23031     23029     23033     23036     23031     23029     23033     23037
     23032     23029     23033     23035     23032     23029     23033     23036
     23032     23029     23033     23037     23033     23037     23041     23043
     23033     23037     23041     23044     23033     23037     23041     23045
     23035     23033     23037     23039     23035     23033     23037     23040
     23035     23033     23037     23041     23036     23033     23037     23039
     23036     23033     23037     23040     23036     23033     23037     23041
     23037     23041     23045     23047     23037     23041     23045     23048
     23037     23041     23045     23049     23039     23037     23041     23043
     23039     23037     23041     23044     23039     23037     23041     23045
     23040     23037     23041     23043     23040     23037     23041     23044
     23040     23037     23041     23045     23041     23045     23049     23051
     23041     23045     23049     23052     23041     23045     23049     23053
     23043     23041     23045     23047     23043     23041     23045     23048
     23043     23041     23045     23049     23044     23041     23045     23047
     23044     23041     23045     23048     23044     23041     23045     23049
     23045     23049     23053     23055     23045     23049     23053     23056
     23045     23049     23053     23057     23047     23045     23049     23051
     23047     23045     23049     23052     23047     23045     23049     23053
     23048     23045     23049     23051     23048     23045     23049     23052
     23048     23045     23049     23053     23051     23049     23053     23055
     23051     23049     23053     23056     23051     23049     23053     23057
     23052     23049     23053     23055     23052     23049     23053     23056
     23052     23049     23053     23057     23058     23062     23066     23068
     23058     23062     23066     23069     23058     23062     23066     23070
     23060     23058     23062     23064     23060     23058     23062     23065
     23060     23058     23062     23066     23061     23058     23062     23064
     23061     23058     23062     23065     23061     23058     23062     23066
     23062     23066     23070     23072     23062     23066     23070     23073
     23062     23066     23070     23074     23064     23062     23066     23068
     23064     23062     23066     23069     23064     23062     23066     23070
     23065     23062     23066     23068     23065     23062     23066     23069
     23065     23062     23066     23070     23066     23070     23074     23076
     23066     23070     23074     23077     23066     23070     23074     23078
     23068     23066     23070     23072     23068     23066     23070     23073
     23068     23066     23070     23074     23069     23066     23070     23072
     23069     23066     23070     23073     23069     23066     23070     23074
     23070     23074     23078     23080     23070     23074     23078     23081
     23070     23074     23078     23082     23072     23070     23074     23076
     23072     23070     23074     23077     23072     23070     23074     23078
     23073     23070     23074     23076     23073     23070     23074     23077
     23073     23070     23074     23078     23074     23078     23082     23084
     23074     23078     23082     23085     23074     23078     23082     23086
     23076     23074     23078     23080     23076     23074     23078     23081
     23076     23074     23078     23082     23077     23074     23078     23080
     23077     23074     23078     23081     23077     23074     23078     23082
     23078     23082     23086     23088     23078     23082     23086     23089
     23078     23082     23086     23090     23080     23078     23082     23084
     23080     23078     23082     23085     23080     23078     23082     23086
     23081     23078     23082     23084     23081     23078     23082     23085
     23081     23078     23082     23086     23082     23086     23090     23092
     23082     23086     23090     23093     23082     23086     23090     23094
     23084     23082     23086     23088     23084     23082     23086     23089
     23084     23082     23086     23090     23085     23082     23086     23088
     23085     23082     23086     23089     23085     23082     23086     23090
     23086     23090     23094     23096     23086     23090     23094     23097
     23086     23090     23094     23098     23088     23086     23090     23092
     23088     23086     23090     23093     23088     23086     23090     23094
     23089     23086     23090     23092     23089     23086     23090     23093
     23089     23086     23090     23094     23090     23094     23098     23100
     23090     23094     23098     23101     23090     23094     23098     23102
     23092     23090     23094     23096     23092     23090     23094     23097
     23092     23090     23094     23098     23093     23090     23094     23096
     23093     23090     23094     23097     23093     23090     23094     23098
     23094     23098     23102     23104     23094     23098     23102     23105
     23094     23098     23102     23106     23096     23094     23098     23100
     23096     23094     23098     23101     23096     23094     23098     23102
     23097     23094     23098     23100     23097     23094     23098     23101
     23097     23094     23098     23102     23098     23102     23106     23108
     23098     23102     23106     23109     23098     23102     23106     23110
     23100     23098     23102     23104     23100     23098     23102     23105
     23100     23098     23102     23106     23101     23098     23102     23104
     23101     23098     23102     23105     23101     23098     23102     23106
     23102     23106     23110     23112     23102     23106     23110     23113
     23102     23106     23110     23114     23104     23102     23106     23108
     23104     23102     23106     23109     23104     23102     23106     23110
     23105     23102     23106     23108     23105     23102     23106     23109
     23105     23102     23106     23110     23108     23106     23110     23112
     23108     23106     23110     23113     23108     23106     23110     23114
     23109     23106     23110     23112     23109     23106     23110     23113
     23109     23106     23110     23114     23115     23120     23124     23126
     23115     23120     23124     23127     23115     23120     23124     23136
     23117     23115     23120     23122     23117     23115     23120     23123
     23117     23115     23120     23124     23118     23115     23120     23122
     23118     23115     23120     23123     23118     23115     23120     23124
     23119     23115     23120     23122     23119     23115     23120     23123
     23119     23115     23120     23124     23120     23124     23136     23128
     23122     23120     23124     23126     23122     23120     23124     23127
     23122     23120     23124     23136     23123     23120     23124     23126
     23123     23120     23124     23127     23123     23120     23124     23136
     23124     23136     23128     23130     23124     23136     23128     23132
     23124     23136     23128     23134     23126     23124     23136     23128
     23127     23124     23136     23128     23128     23134     23138     23140
     23128     23134     23138     23141     23128     23134     23138     23142
     23130     23128     23134     23138     23132     23128     23134     23138
     23134     23138     23142     23144     23134     23138     23142     23145
     23134     23138     23142     23159     23136     23128     23134     23138
     23138     23142     23145     23147     23138     23142     23159     23161
     23138     23142     23159     23162     23138     23142     23159     23163
     23140     23138     23142     23144     23140     23138     23142     23145
     23140     23138     23142     23159     23141     23138     23142     23144
     23141     23138     23142     23145     23141     23138     23142     23159
     23142     23145     23147     23149     23142     23145     23147     23151
     23142     23159     23163     23165     23144     23142     23145     23147
     23144     23142     23159     23161     23144     23142     23159     23162
     23144     23142     23159     23163     23145     23142     23159     23161
     23145     23142     23159     23162     23145     23142     23159     23163
     23145     23147     23151     23153     23145     23147     23151     23154
     23145     23147     23151     23177     23147     23145     23142     23159
     23147     23151     23177     23179     23147     23151     23177     23180
     23147     23151     23177     23181     23149     23147     23151     23153
     23149     23147     23151     23154     23149     23147     23151     23177
     23151     23177     23181     23183     23151     23177     23181     23184
     23151     23177     23181     23185     23153     23151     23177     23179
     23153     23151     23177     23180     23153     23151     23177     23181
     23154     23151     23177     23179     23154     23151     23177     23180
     23154     23151     23177     23181     23159     23163     23165     23167
     23159     23163     23165     23169     23161     23159     23163     23165
     23162     23159     23163     23165     23163     23165     23169     23171
     23163     23165     23169     23172     23163     23165     23169     23240
     23165     23169     23240     23242     23165     23169     23240     23243
     23165     23169     23240     23244     23167     23165     23169     23171
     23167     23165     23169     23172     23167     23165     23169     23240
     23169     23240     23244     23246     23169     23240     23244     23247
     23169     23240     23244     23248     23171     23169     23240     23242
     23171     23169     23240     23243     23171     23169     23240     23244
     23172     23169     23240     23242     23172     23169     23240     23243
     23172     23169     23240     23244     23177     23181     23185     23187
     23177     23181     23185     23188     23177     23181     23185     23189
     23179     23177     23181     23183     23179     23177     23181     23184
     23179     23177     23181     23185     23180     23177     23181     23183
     23180     23177     23181     23184     23180     23177     23181     23185
     23181     23185     23189     23191     23181     23185     23189     23192
     23181     23185     23189     23193     23183     23181     23185     23187
     23183     23181     23185     23188     23183     23181     23185     23189
     23184     23181     23185     23187     23184     23181     23185     23188
     23184     23181     23185     23189     23185     23189     23193     23195
     23185     23189     23193     23196     23185     23189     23193     23197
     23187     23185     23189     23191     23187     23185     23189     23192
     23187     23185     23189     23193     23188     23185     23189     23191
     23188     23185     23189     23192     23188     23185     23189     23193
     23189     23193     23197     23199     23189     23193     23197     23200
     23189     23193     23197     23201     23191     23189     23193     23195
     23191     23189     23193     23196     23191     23189     23193     23197
     23192     23189     23193     23195     23192     23189     23193     23196
     23192     23189     23193     23197     23193     23197     23201     23203
     23193     23197     23201     23204     23195     23193     23197     23199
     23195     23193     23197     23200     23195     23193     23197     23201
     23196     23193     23197     23199     23196     23193     23197     23200
     23196     23193     23197     23201     23197     23201     23204     23206
     23197     23201     23204     23207     23199     23197     23201     23203
     23199     23197     23201     23204     23200     23197     23201     23203
     23200     23197     23201     23204     23201     23204     23207     23209
     23201     23204     23207     23210     23201     23204     23207     23211
     23203     23201     23204     23206     23203     23201     23204     23207
     23204     23207     23211     23213     23204     23207     23211     23214
     23204     23207     23211     23215     23206     23204     23207     23209
     23206     23204     23207     23210     23206     23204     23207     23211
     23207     23211     23215     23217     23207     23211     23215     23218
     23207     23211     23215     23219     23209     23207     23211     23213
     23209     23207     23211     23214     23209     23207     23211     23215
     23210     23207     23211     23213     23210     23207     23211     23214
     23210     23207     23211     23215     23211     23215     23219     23221
     23211     23215     23219     23222     23211     23215     23219     23223
     23213     23211     23215     23217     23213     23211     23215     23218
     23213     23211     23215     23219     23214     23211     23215     23217
     23214     23211     23215     23218     23214     23211     23215     23219
     23215     23219     23223     23225     23215     23219     23223     23226
     23215     23219     23223     23227     23217     23215     23219     23221
     23217     23215     23219     23222     23217     23215     23219     23223
     23218     23215     23219     23221     23218     23215     23219     23222
     23218     23215     23219     23223     23219     23223     23227     23229
     23219     23223     23227     23230     23219     23223     23227     23231
     23221     23219     23223     23225     23221     23219     23223     23226
     23221     23219     23223     23227     23222     23219     23223     23225
     23222     23219     23223     23226     23222     23219     23223     23227
     23223     23227     23231     23233     23223     23227     23231     23234
     23223     23227     23231     23235     23225     23223     23227     23229
     23225     23223     23227     23230     23225     23223     23227     23231
     23226     23223     23227     23229     23226     23223     23227     23230
     23226     23223     23227     23231     23227     23231     23235     23237
     23227     23231     23235     23238     23227     23231     23235     23239
     23229     23227     23231     23233     23229     23227     23231     23234
     23229     23227     23231     23235     23230     23227     23231     23233
     23230     23227     23231     23234     23230     23227     23231     23235
     23233     23231     23235     23237     23233     23231     23235     23238
     23233     23231     23235     23239     23234     23231     23235     23237
     23234     23231     23235     23238     23234     23231     23235     23239
     23240     23244     23248     23250     23240     23244     23248     23251
     23240     23244     23248     23252     23242     23240     23244     23246
     23242     23240     23244     23247     23242     23240     23244     23248
     23243     23240     23244     23246     23243     23240     23244     23247
     23243     23240     23244     23248     23244     23248     23252     23254
     23244     23248     23252     23255     23244     23248     23252     23256
     23246     23244     23248     23250     23246     23244     23248     23251
     23246     23244     23248     23252     23247     23244     23248     23250
     23247     23244     23248     23251     23247     23244     23248     23252
     23248     23252     23256     23258     23248     23252     23256     23259
     23248     23252     23256     23260     23250     23248     23252     23254
     23250     23248     23252     23255     23250     23248     23252     23256
     23251     23248     23252     23254     23251     23248     23252     23255
     23251     23248     23252     23256     23252     23256     23260     23262
     23252     23256     23260     23263     23252     23256     23260     23264
     23254     23252     23256     23258     23254     23252     23256     23259
     23254     23252     23256     23260     23255     23252     23256     23258
     23255     23252     23256     23259     23255     23252     23256     23260
     23256     23260     23264     23266     23256     23260     23264     23267
     23256     23260     23264     23268     23258     23256     23260     23262
     23258     23256     23260     23263     23258     23256     23260     23264
     23259     23256     23260     23262     23259     23256     23260     23263
     23259     23256     23260     23264     23260     23264     23268     23270
     23260     23264     23268     23271     23260     23264     23268     23272
     23262     23260     23264     23266     23262     23260     23264     23267
     23262     23260     23264     23268     23263     23260     23264     23266
     23263     23260     23264     23267     23263     23260     23264     23268
     23264     23268     23272     23274     23264     23268     23272     23275
     23264     23268     23272     23276     23266     23264     23268     23270
     23266     23264     23268     23271     23266     23264     23268     23272
     23267     23264     23268     23270     23267     23264     23268     23271
     23267     23264     23268     23272     23268     23272     23276     23278
     23268     23272     23276     23279     23268     23272     23276     23280
     23270     23268     23272     23274     23270     23268     23272     23275
     23270     23268     23272     23276     23271     23268     23272     23274
     23271     23268     23272     23275     23271     23268     23272     23276
     23272     23276     23280     23282     23272     23276     23280     23283
     23272     23276     23280     23284     23274     23272     23276     23278
     23274     23272     23276     23279     23274     23272     23276     23280
     23275     23272     23276     23278     23275     23272     23276     23279
     23275     23272     23276     23280     23276     23280     23284     23286
     23276     23280     23284     23287     23276     23280     23284     23288
     23278     23276     23280     23282     23278     23276     23280     23283
     23278     23276     23280     23284     23279     23276     23280     23282
     23279     23276     23280     23283     23279     23276     23280     23284
     23280     23284     23288     23290     23280     23284     23288     23291
     23280     23284     23288     23292     23282     23280     23284     23286
     23282     23280     23284     23287     23282     23280     23284     23288
     23283     23280     23284     23286     23283     23280     23284     23287
     23283     23280     23284     23288     23284     23288     23292     23294
     23284     23288     23292     23295     23284     23288     23292     23296
     23286     23284     23288     23290     23286     23284     23288     23291
     23286     23284     23288     23292     23287     23284     23288     23290
     23287     23284     23288     23291     23287     23284     23288     23292
     23290     23288     23292     23294     23290     23288     23292     23295
     23290     23288     23292     23296     23291     23288     23292     23294
     23291     23288     23292     23295     23291     23288     23292     23296
     23297     23302     23306     23308     23297     23302     23306     23309
     23297     23302     23306     23318     23299     23297     23302     23304
     23299     23297     23302     23305     23299     23297     23302     23306
     23300     23297     23302     23304     23300     23297     23302     23305
     23300     23297     23302     23306     23301     23297     23302     23304
     23301     23297     23302     23305     23301     23297     23302     23306
     23302     23306     23318     23310     23304     23302     23306     23308
     23304     23302     23306     23309     23304     23302     23306     23318
     23305     23302     23306     23308     23305     23302     23306     23309
     23305     23302     23306     23318     23306     23318     23310     23312
     23306     23318     23310     23314     23306     23318     23310     23316
     23308     23306     23318     23310     23309     23306     23318     23310
     23310     23316     23320     23322     23310     23316     23320     23323
     23310     23316     23320     23324     23312     23310     23316     23320
     23314     23310     23316     23320     23316     23320     23324     23326
     23316     23320     23324     23327     23316     23320     23324     23341
     23318     23310     23316     23320     23320     23324     23327     23329
     23320     23324     23341     23343     23320     23324     23341     23344
     23320     23324     23341     23345     23322     23320     23324     23326
     23322     23320     23324     23327     23322     23320     23324     23341
     23323     23320     23324     23326     23323     23320     23324     23327
     23323     23320     23324     23341     23324     23327     23329     23331
     23324     23327     23329     23333     23324     23341     23345     23347
     23326     23324     23327     23329     23326     23324     23341     23343
     23326     23324     23341     23344     23326     23324     23341     23345
     23327     23324     23341     23343     23327     23324     23341     23344
     23327     23324     23341     23345     23327     23329     23333     23335
     23327     23329     23333     23336     23327     23329     23333     23359
     23329     23327     23324     23341     23329     23333     23359     23361
     23329     23333     23359     23362     23329     23333     23359     23363
     23331     23329     23333     23335     23331     23329     23333     23336
     23331     23329     23333     23359     23333     23359     23363     23365
     23333     23359     23363     23366     23333     23359     23363     23367
     23335     23333     23359     23361     23335     23333     23359     23362
     23335     23333     23359     23363     23336     23333     23359     23361
     23336     23333     23359     23362     23336     23333     23359     23363
     23341     23345     23347     23349     23341     23345     23347     23351
     23343     23341     23345     23347     23344     23341     23345     23347
     23345     23347     23351     23353     23345     23347     23351     23354
     23345     23347     23351     23422     23347     23351     23422     23424
     23347     23351     23422     23425     23347     23351     23422     23426
     23349     23347     23351     23353     23349     23347     23351     23354
     23349     23347     23351     23422     23351     23422     23426     23428
     23351     23422     23426     23429     23351     23422     23426     23430
     23353     23351     23422     23424     23353     23351     23422     23425
     23353     23351     23422     23426     23354     23351     23422     23424
     23354     23351     23422     23425     23354     23351     23422     23426
     23359     23363     23367     23369     23359     23363     23367     23370
     23359     23363     23367     23371     23361     23359     23363     23365
     23361     23359     23363     23366     23361     23359     23363     23367
     23362     23359     23363     23365     23362     23359     23363     23366
     23362     23359     23363     23367     23363     23367     23371     23373
     23363     23367     23371     23374     23363     23367     23371     23375
     23365     23363     23367     23369     23365     23363     23367     23370
     23365     23363     23367     23371     23366     23363     23367     23369
     23366     23363     23367     23370     23366     23363     23367     23371
     23367     23371     23375     23377     23367     23371     23375     23378
     23367     23371     23375     23379     23369     23367     23371     23373
     23369     23367     23371     23374     23369     23367     23371     23375
     23370     23367     23371     23373     23370     23367     23371     23374
     23370     23367     23371     23375     23371     23375     23379     23381
     23371     23375     23379     23382     23371     23375     23379     23383
     23373     23371     23375     23377     23373     23371     23375     23378
     23373     23371     23375     23379     23374     23371     23375     23377
     23374     23371     23375     23378     23374     23371     23375     23379
     23375     23379     23383     23385     23375     23379     23383     23386
     23377     23375     23379     23381     23377     23375     23379     23382
     23377     23375     23379     23383     23378     23375     23379     23381
     23378     23375     23379     23382     23378     23375     23379     23383
     23379     23383     23386     23388     23379     23383     23386     23389
     23381     23379     23383     23385     23381     23379     23383     23386
     23382     23379     23383     23385     23382     23379     23383     23386
     23383     23386     23389     23391     23383     23386     23389     23392
     23383     23386     23389     23393     23385     23383     23386     23388
     23385     23383     23386     23389     23386     23389     23393     23395
     23386     23389     23393     23396     23386     23389     23393     23397
     23388     23386     23389     23391     23388     23386     23389     23392
     23388     23386     23389     23393     23389     23393     23397     23399
     23389     23393     23397     23400     23389     23393     23397     23401
     23391     23389     23393     23395     23391     23389     23393     23396
     23391     23389     23393     23397     23392     23389     23393     23395
     23392     23389     23393     23396     23392     23389     23393     23397
     23393     23397     23401     23403     23393     23397     23401     23404
     23393     23397     23401     23405     23395     23393     23397     23399
     23395     23393     23397     23400     23395     23393     23397     23401
     23396     23393     23397     23399     23396     23393     23397     23400
     23396     23393     23397     23401     23397     23401     23405     23407
     23397     23401     23405     23408     23397     23401     23405     23409
     23399     23397     23401     23403     23399     23397     23401     23404
     23399     23397     23401     23405     23400     23397     23401     23403
     23400     23397     23401     23404     23400     23397     23401     23405
     23401     23405     23409     23411     23401     23405     23409     23412
     23401     23405     23409     23413     23403     23401     23405     23407
     23403     23401     23405     23408     23403     23401     23405     23409
     23404     23401     23405     23407     23404     23401     23405     23408
     23404     23401     23405     23409     23405     23409     23413     23415
     23405     23409     23413     23416     23405     23409     23413     23417
     23407     23405     23409     23411     23407     23405     23409     23412
     23407     23405     23409     23413     23408     23405     23409     23411
     23408     23405     23409     23412     23408     23405     23409     23413
     23409     23413     23417     23419     23409     23413     23417     23420
     23409     23413     23417     23421     23411     23409     23413     23415
     23411     23409     23413     23416     23411     23409     23413     23417
     23412     23409     23413     23415     23412     23409     23413     23416
     23412     23409     23413     23417     23415     23413     23417     23419
     23415     23413     23417     23420     23415     23413     23417     23421
     23416     23413     23417     23419     23416     23413     23417     23420
     23416     23413     23417     23421     23422     23426     23430     23432
     23422     23426     23430     23433     23422     23426     23430     23434
     23424     23422     23426     23428     23424     23422     23426     23429
     23424     23422     23426     23430     23425     23422     23426     23428
     23425     23422     23426     23429     23425     23422     23426     23430
     23426     23430     23434     23436     23426     23430     23434     23437
     23426     23430     23434     23438     23428     23426     23430     23432
     23428     23426     23430     23433     23428     23426     23430     23434
     23429     23426     23430     23432     23429     23426     23430     23433
     23429     23426     23430     23434     23430     23434     23438     23440
     23430     23434     23438     23441     23430     23434     23438     23442
     23432     23430     23434     23436     23432     23430     23434     23437
     23432     23430     23434     23438     23433     23430     23434     23436
     23433     23430     23434     23437     23433     23430     23434     23438
     23434     23438     23442     23444     23434     23438     23442     23445
     23434     23438     23442     23446     23436     23434     23438     23440
     23436     23434     23438     23441     23436     23434     23438     23442
     23437     23434     23438     23440     23437     23434     23438     23441
     23437     23434     23438     23442     23438     23442     23446     23448
     23438     23442     23446     23449     23438     23442     23446     23450
     23440     23438     23442     23444     23440     23438     23442     23445
     23440     23438     23442     23446     23441     23438     23442     23444
     23441     23438     23442     23445     23441     23438     23442     23446
     23442     23446     23450     23452     23442     23446     23450     23453
     23442     23446     23450     23454     23444     23442     23446     23448
     23444     23442     23446     23449     23444     23442     23446     23450
     23445     23442     23446     23448     23445     23442     23446     23449
     23445     23442     23446     23450     23446     23450     23454     23456
     23446     23450     23454     23457     23446     23450     23454     23458
     23448     23446     23450     23452     23448     23446     23450     23453
     23448     23446     23450     23454     23449     23446     23450     23452
     23449     23446     23450     23453     23449     23446     23450     23454
     23450     23454     23458     23460     23450     23454     23458     23461
     23450     23454     23458     23462     23452     23450     23454     23456
     23452     23450     23454     23457     23452     23450     23454     23458
     23453     23450     23454     23456     23453     23450     23454     23457
     23453     23450     23454     23458     23454     23458     23462     23464
     23454     23458     23462     23465     23454     23458     23462     23466
     23456     23454     23458     23460     23456     23454     23458     23461
     23456     23454     23458     23462     23457     23454     23458     23460
     23457     23454     23458     23461     23457     23454     23458     23462
     23458     23462     23466     23468     23458     23462     23466     23469
     23458     23462     23466     23470     23460     23458     23462     23464
     23460     23458     23462     23465     23460     23458     23462     23466
     23461     23458     23462     23464     23461     23458     23462     23465
     23461     23458     23462     23466     23462     23466     23470     23472
     23462     23466     23470     23473     23462     23466     23470     23474
     23464     23462     23466     23468     23464     23462     23466     23469
     23464     23462     23466     23470     23465     23462     23466     23468
     23465     23462     23466     23469     23465     23462     23466     23470
     23466     23470     23474     23476     23466     23470     23474     23477
     23466     23470     23474     23478     23468     23466     23470     23472
     23468     23466     23470     23473     23468     23466     23470     23474
     23469     23466     23470     23472     23469     23466     23470     23473
     23469     23466     23470     23474     23472     23470     23474     23476
     23472     23470     23474     23477     23472     23470     23474     23478
     23473     23470     23474     23476     23473     23470     23474     23477
     23473     23470     23474     23478     23479     23484     23488     23490
     23479     23484     23488     23491     23479     23484     23488     23500
     23481     23479     23484     23486     23481     23479     23484     23487
     23481     23479     23484     23488     23482     23479     23484     23486
     23482     23479     23484     23487     23482     23479     23484     23488
     23483     23479     23484     23486     23483     23479     23484     23487
     23483     23479     23484     23488     23484     23488     23500     23492
     23486     23484     23488     23490     23486     23484     23488     23491
     23486     23484     23488     23500     23487     23484     23488     23490
     23487     23484     23488     23491     23487     23484     23488     23500
     23488     23500     23492     23494     23488     23500     23492     23496
     23488     23500     23492     23498     23490     23488     23500     23492
     23491     23488     23500     23492     23492     23498     23502     23504
     23492     23498     23502     23505     23492     23498     23502     23506
     23494     23492     23498     23502     23496     23492     23498     23502
     23498     23502     23506     23508     23498     23502     23506     23509
     23498     23502     23506     23523     23500     23492     23498     23502
     23502     23506     23509     23511     23502     23506     23523     23525
     23502     23506     23523     23526     23502     23506     23523     23527
     23504     23502     23506     23508     23504     23502     23506     23509
     23504     23502     23506     23523     23505     23502     23506     23508
     23505     23502     23506     23509     23505     23502     23506     23523
     23506     23509     23511     23513     23506     23509     23511     23515
     23506     23523     23527     23529     23508     23506     23509     23511
     23508     23506     23523     23525     23508     23506     23523     23526
     23508     23506     23523     23527     23509     23506     23523     23525
     23509     23506     23523     23526     23509     23506     23523     23527
     23509     23511     23515     23517     23509     23511     23515     23518
     23509     23511     23515     23541     23511     23509     23506     23523
     23511     23515     23541     23543     23511     23515     23541     23544
     23511     23515     23541     23545     23513     23511     23515     23517
     23513     23511     23515     23518     23513     23511     23515     23541
     23515     23541     23545     23547     23515     23541     23545     23548
     23515     23541     23545     23549     23517     23515     23541     23543
     23517     23515     23541     23544     23517     23515     23541     23545
     23518     23515     23541     23543     23518     23515     23541     23544
     23518     23515     23541     23545     23523     23527     23529     23531
     23523     23527     23529     23533     23525     23523     23527     23529
     23526     23523     23527     23529     23527     23529     23533     23535
     23527     23529     23533     23536     23527     23529     23533     23604
     23529     23533     23604     23606     23529     23533     23604     23607
     23529     23533     23604     23608     23531     23529     23533     23535
     23531     23529     23533     23536     23531     23529     23533     23604
     23533     23604     23608     23610     23533     23604     23608     23611
     23533     23604     23608     23612     23535     23533     23604     23606
     23535     23533     23604     23607     23535     23533     23604     23608
     23536     23533     23604     23606     23536     23533     23604     23607
     23536     23533     23604     23608     23541     23545     23549     23551
     23541     23545     23549     23552     23541     23545     23549     23553
     23543     23541     23545     23547     23543     23541     23545     23548
     23543     23541     23545     23549     23544     23541     23545     23547
     23544     23541     23545     23548     23544     23541     23545     23549
     23545     23549     23553     23555     23545     23549     23553     23556
     23545     23549     23553     23557     23547     23545     23549     23551
     23547     23545     23549     23552     23547     23545     23549     23553
     23548     23545     23549     23551     23548     23545     23549     23552
     23548     23545     23549     23553     23549     23553     23557     23559
     23549     23553     23557     23560     23549     23553     23557     23561
     23551     23549     23553     23555     23551     23549     23553     23556
     23551     23549     23553     23557     23552     23549     23553     23555
     23552     23549     23553     23556     23552     23549     23553     23557
     23553     23557     23561     23563     23553     23557     23561     23564
     23553     23557     23561     23565     23555     23553     23557     23559
     23555     23553     23557     23560     23555     23553     23557     23561
     23556     23553     23557     23559     23556     23553     23557     23560
     23556     23553     23557     23561     23557     23561     23565     23567
     23557     23561     23565     23568     23559     23557     23561     23563
     23559     23557     23561     23564     23559     23557     23561     23565
     23560     23557     23561     23563     23560     23557     23561     23564
     23560     23557     23561     23565     23561     23565     23568     23570
     23561     23565     23568     23571     23563     23561     23565     23567
     23563     23561     23565     23568     23564     23561     23565     23567
     23564     23561     23565     23568     23565     23568     23571     23573
     23565     23568     23571     23574     23565     23568     23571     23575
     23567     23565     23568     23570     23567     23565     23568     23571
     23568     23571     23575     23577     23568     23571     23575     23578
     23568     23571     23575     23579     23570     23568     23571     23573
     23570     23568     23571     23574     23570     23568     23571     23575
     23571     23575     23579     23581     23571     23575     23579     23582
     23571     23575     23579     23583     23573     23571     23575     23577
     23573     23571     23575     23578     23573     23571     23575     23579
     23574     23571     23575     23577     23574     23571     23575     23578
     23574     23571     23575     23579     23575     23579     23583     23585
     23575     23579     23583     23586     23575     23579     23583     23587
     23577     23575     23579     23581     23577     23575     23579     23582
     23577     23575     23579     23583     23578     23575     23579     23581
     23578     23575     23579     23582     23578     23575     23579     23583
     23579     23583     23587     23589     23579     23583     23587     23590
     23579     23583     23587     23591     23581     23579     23583     23585
     23581     23579     23583     23586     23581     23579     23583     23587
     23582     23579     23583     23585     23582     23579     23583     23586
     23582     23579     23583     23587     23583     23587     23591     23593
     23583     23587     23591     23594     23583     23587     23591     23595
     23585     23583     23587     23589     23585     23583     23587     23590
     23585     23583     23587     23591     23586     23583     23587     23589
     23586     23583     23587     23590     23586     23583     23587     23591
     23587     23591     23595     23597     23587     23591     23595     23598
     23587     23591     23595     23599     23589     23587     23591     23593
     23589     23587     23591     23594     23589     23587     23591     23595
     23590     23587     23591     23593     23590     23587     23591     23594
     23590     23587     23591     23595     23591     23595     23599     23601
     23591     23595     23599     23602     23591     23595     23599     23603
     23593     23591     23595     23597     23593     23591     23595     23598
     23593     23591     23595     23599     23594     23591     23595     23597
     23594     23591     23595     23598     23594     23591     23595     23599
     23597     23595     23599     23601     23597     23595     23599     23602
     23597     23595     23599     23603     23598     23595     23599     23601
     23598     23595     23599     23602     23598     23595     23599     23603
     23604     23608     23612     23614     23604     23608     23612     23615
     23604     23608     23612     23616     23606     23604     23608     23610
     23606     23604     23608     23611     23606     23604     23608     23612
     23607     23604     23608     23610     23607     23604     23608     23611
     23607     23604     23608     23612     23608     23612     23616     23618
     23608     23612     23616     23619     23608     23612     23616     23620
     23610     23608     23612     23614     23610     23608     23612     23615
     23610     23608     23612     23616     23611     23608     23612     23614
     23611     23608     23612     23615     23611     23608     23612     23616
     23612     23616     23620     23622     23612     23616     23620     23623
     23612     23616     23620     23624     23614     23612     23616     23618
     23614     23612     23616     23619     23614     23612     23616     23620
     23615     23612     23616     23618     23615     23612     23616     23619
     23615     23612     23616     23620     23616     23620     23624     23626
     23616     23620     23624     23627     23616     23620     23624     23628
     23618     23616     23620     23622     23618     23616     23620     23623
     23618     23616     23620     23624     23619     23616     23620     23622
     23619     23616     23620     23623     23619     23616     23620     23624
     23620     23624     23628     23630     23620     23624     23628     23631
     23620     23624     23628     23632     23622     23620     23624     23626
     23622     23620     23624     23627     23622     23620     23624     23628
     23623     23620     23624     23626     23623     23620     23624     23627
     23623     23620     23624     23628     23624     23628     23632     23634
     23624     23628     23632     23635     23624     23628     23632     23636
     23626     23624     23628     23630     23626     23624     23628     23631
     23626     23624     23628     23632     23627     23624     23628     23630
     23627     23624     23628     23631     23627     23624     23628     23632
     23628     23632     23636     23638     23628     23632     23636     23639
     23628     23632     23636     23640     23630     23628     23632     23634
     23630     23628     23632     23635     23630     23628     23632     23636
     23631     23628     23632     23634     23631     23628     23632     23635
     23631     23628     23632     23636     23632     23636     23640     23642
     23632     23636     23640     23643     23632     23636     23640     23644
     23634     23632     23636     23638     23634     23632     23636     23639
     23634     23632     23636     23640     23635     23632     23636     23638
     23635     23632     23636     23639     23635     23632     23636     23640
     23636     23640     23644     23646     23636     23640     23644     23647
     23636     23640     23644     23648     23638     23636     23640     23642
     23638     23636     23640     23643     23638     23636     23640     23644
     23639     23636     23640     23642     23639     23636     23640     23643
     23639     23636     23640     23644     23640     23644     23648     23650
     23640     23644     23648     23651     23640     23644     23648     23652
     23642     23640     23644     23646     23642     23640     23644     23647
     23642     23640     23644     23648     23643     23640     23644     23646
     23643     23640     23644     23647     23643     23640     23644     23648
     23644     23648     23652     23654     23644     23648     23652     23655
     23644     23648     23652     23656     23646     23644     23648     23650
     23646     23644     23648     23651     23646     23644     23648     23652
     23647     23644     23648     23650     23647     23644     23648     23651
     23647     23644     23648     23652     23648     23652     23656     23658
     23648     23652     23656     23659     23648     23652     23656     23660
     23650     23648     23652     23654     23650     23648     23652     23655
     23650     23648     23652     23656     23651     23648     23652     23654
     23651     23648     23652     23655     23651     23648     23652     23656
     23654     23652     23656     23658     23654     23652     23656     23659
     23654     23652     23656     23660     23655     23652     23656     23658
     23655     23652     23656     23659     23655     23652     23656     23660
     23661     23666     23670     23672     23661     23666     23670     23673
     23661     23666     23670     23682     23663     23661     23666     23668
     23663     23661     23666     23669     23663     23661     23666     23670
     23664     23661     23666     23668     23664     23661     23666     23669
     23664     23661     23666     23670     23665     23661     23666     23668
     23665     23661     23666     23669     23665     23661     23666     23670
     23666     23670     23682     23674     23668     23666     23670     23672
     23668     23666     23670     23673     23668     23666     23670     23682
     23669     23666     23670     23672     23669     23666     23670     23673
     23669     23666     23670     23682     23670     23682     23674     23676
     23670     23682     23674     23678     23670     23682     23674     23680
     23672     23670     23682     23674     23673     23670     23682     23674
     23674     23680     23684     23686     23674     23680     23684     23687
     23674     23680     23684     23688     23676     23674     23680     23684
     23678     23674     23680     23684     23680     23684     23688     23690
     23680     23684     23688     23691     23680     23684     23688     23705
     23682     23674     23680     23684     23684     23688     23691     23693
     23684     23688     23705     23707     23684     23688     23705     23708
     23684     23688     23705     23709     23686     23684     23688     23690
     23686     23684     23688     23691     23686     23684     23688     23705
     23687     23684     23688     23690     23687     23684     23688     23691
     23687     23684     23688     23705     23688     23691     23693     23695
     23688     23691     23693     23697     23688     23705     23709     23711
     23690     23688     23691     23693     23690     23688     23705     23707
     23690     23688     23705     23708     23690     23688     23705     23709
     23691     23688     23705     23707     23691     23688     23705     23708
     23691     23688     23705     23709     23691     23693     23697     23699
     23691     23693     23697     23700     23691     23693     23697     23723
     23693     23691     23688     23705     23693     23697     23723     23725
     23693     23697     23723     23726     23693     23697     23723     23727
     23695     23693     23697     23699     23695     23693     23697     23700
     23695     23693     23697     23723     23697     23723     23727     23729
     23697     23723     23727     23730     23697     23723     23727     23731
     23699     23697     23723     23725     23699     23697     23723     23726
     23699     23697     23723     23727     23700     23697     23723     23725
     23700     23697     23723     23726     23700     23697     23723     23727
     23705     23709     23711     23713     23705     23709     23711     23715
     23707     23705     23709     23711     23708     23705     23709     23711
     23709     23711     23715     23717     23709     23711     23715     23718
     23709     23711     23715     23786     23711     23715     23786     23788
     23711     23715     23786     23789     23711     23715     23786     23790
     23713     23711     23715     23717     23713     23711     23715     23718
     23713     23711     23715     23786     23715     23786     23790     23792
     23715     23786     23790     23793     23715     23786     23790     23794
     23717     23715     23786     23788     23717     23715     23786     23789
     23717     23715     23786     23790     23718     23715     23786     23788
     23718     23715     23786     23789     23718     23715     23786     23790
     23723     23727     23731     23733     23723     23727     23731     23734
     23723     23727     23731     23735     23725     23723     23727     23729
     23725     23723     23727     23730     23725     23723     23727     23731
     23726     23723     23727     23729     23726     23723     23727     23730
     23726     23723     23727     23731     23727     23731     23735     23737
     23727     23731     23735     23738     23727     23731     23735     23739
     23729     23727     23731     23733     23729     23727     23731     23734
     23729     23727     23731     23735     23730     23727     23731     23733
     23730     23727     23731     23734     23730     23727     23731     23735
     23731     23735     23739     23741     23731     23735     23739     23742
     23731     23735     23739     23743     23733     23731     23735     23737
     23733     23731     23735     23738     23733     23731     23735     23739
     23734     23731     23735     23737     23734     23731     23735     23738
     23734     23731     23735     23739     23735     23739     23743     23745
     23735     23739     23743     23746     23735     23739     23743     23747
     23737     23735     23739     23741     23737     23735     23739     23742
     23737     23735     23739     23743     23738     23735     23739     23741
     23738     23735     23739     23742     23738     23735     23739     23743
     23739     23743     23747     23749     23739     23743     23747     23750
     23741     23739     23743     23745     23741     23739     23743     23746
     23741     23739     23743     23747     23742     23739     23743     23745
     23742     23739     23743     23746     23742     23739     23743     23747
     23743     23747     23750     23752     23743     23747     23750     23753
     23745     23743     23747     23749     23745     23743     23747     23750
     23746     23743     23747     23749     23746     23743     23747     23750
     23747     23750     23753     23755     23747     23750     23753     23756
     23747     23750     23753     23757     23749     23747     23750     23752
     23749     23747     23750     23753     23750     23753     23757     23759
     23750     23753     23757     23760     23750     23753     23757     23761
     23752     23750     23753     23755     23752     23750     23753     23756
     23752     23750     23753     23757     23753     23757     23761     23763
     23753     23757     23761     23764     23753     23757     23761     23765
     23755     23753     23757     23759     23755     23753     23757     23760
     23755     23753     23757     23761     23756     23753     23757     23759
     23756     23753     23757     23760     23756     23753     23757     23761
     23757     23761     23765     23767     23757     23761     23765     23768
     23757     23761     23765     23769     23759     23757     23761     23763
     23759     23757     23761     23764     23759     23757     23761     23765
     23760     23757     23761     23763     23760     23757     23761     23764
     23760     23757     23761     23765     23761     23765     23769     23771
     23761     23765     23769     23772     23761     23765     23769     23773
     23763     23761     23765     23767     23763     23761     23765     23768
     23763     23761     23765     23769     23764     23761     23765     23767
     23764     23761     23765     23768     23764     23761     23765     23769
     23765     23769     23773     23775     23765     23769     23773     23776
     23765     23769     23773     23777     23767     23765     23769     23771
     23767     23765     23769     23772     23767     23765     23769     23773
     23768     23765     23769     23771     23768     23765     23769     23772
     23768     23765     23769     23773     23769     23773     23777     23779
     23769     23773     23777     23780     23769     23773     23777     23781
     23771     23769     23773     23775     23771     23769     23773     23776
     23771     23769     23773     23777     23772     23769     23773     23775
     23772     23769     23773     23776     23772     23769     23773     23777
     23773     23777     23781     23783     23773     23777     23781     23784
     23773     23777     23781     23785     23775     23773     23777     23779
     23775     23773     23777     23780     23775     23773     23777     23781
     23776     23773     23777     23779     23776     23773     23777     23780
     23776     23773     23777     23781     23779     23777     23781     23783
     23779     23777     23781     23784     23779     23777     23781     23785
     23780     23777     23781     23783     23780     23777     23781     23784
     23780     23777     23781     23785     23786     23790     23794     23796
     23786     23790     23794     23797     23786     23790     23794     23798
     23788     23786     23790     23792     23788     23786     23790     23793
     23788     23786     23790     23794     23789     23786     23790     23792
     23789     23786     23790     23793     23789     23786     23790     23794
     23790     23794     23798     23800     23790     23794     23798     23801
     23790     23794     23798     23802     23792     23790     23794     23796
     23792     23790     23794     23797     23792     23790     23794     23798
     23793     23790     23794     23796     23793     23790     23794     23797
     23793     23790     23794     23798     23794     23798     23802     23804
     23794     23798     23802     23805     23794     23798     23802     23806
     23796     23794     23798     23800     23796     23794     23798     23801
     23796     23794     23798     23802     23797     23794     23798     23800
     23797     23794     23798     23801     23797     23794     23798     23802
     23798     23802     23806     23808     23798     23802     23806     23809
     23798     23802     23806     23810     23800     23798     23802     23804
     23800     23798     23802     23805     23800     23798     23802     23806
     23801     23798     23802     23804     23801     23798     23802     23805
     23801     23798     23802     23806     23802     23806     23810     23812
     23802     23806     23810     23813     23802     23806     23810     23814
     23804     23802     23806     23808     23804     23802     23806     23809
     23804     23802     23806     23810     23805     23802     23806     23808
     23805     23802     23806     23809     23805     23802     23806     23810
     23806     23810     23814     23816     23806     23810     23814     23817
     23806     23810     23814     23818     23808     23806     23810     23812
     23808     23806     23810     23813     23808     23806     23810     23814
     23809     23806     23810     23812     23809     23806     23810     23813
     23809     23806     23810     23814     23810     23814     23818     23820
     23810     23814     23818     23821     23810     23814     23818     23822
     23812     23810     23814     23816     23812     23810     23814     23817
     23812     23810     23814     23818     23813     23810     23814     23816
     23813     23810     23814     23817     23813     23810     23814     23818
     23814     23818     23822     23824     23814     23818     23822     23825
     23814     23818     23822     23826     23816     23814     23818     23820
     23816     23814     23818     23821     23816     23814     23818     23822
     23817     23814     23818     23820     23817     23814     23818     23821
     23817     23814     23818     23822     23818     23822     23826     23828
     23818     23822     23826     23829     23818     23822     23826     23830
     23820     23818     23822     23824     23820     23818     23822     23825
     23820     23818     23822     23826     23821     23818     23822     23824
     23821     23818     23822     23825     23821     23818     23822     23826
     23822     23826     23830     23832     23822     23826     23830     23833
     23822     23826     23830     23834     23824     23822     23826     23828
     23824     23822     23826     23829     23824     23822     23826     23830
     23825     23822     23826     23828     23825     23822     23826     23829
     23825     23822     23826     23830     23826     23830     23834     23836
     23826     23830     23834     23837     23826     23830     23834     23838
     23828     23826     23830     23832     23828     23826     23830     23833
     23828     23826     23830     23834     23829     23826     23830     23832
     23829     23826     23830     23833     23829     23826     23830     23834
     23830     23834     23838     23840     23830     23834     23838     23841
     23830     23834     23838     23842     23832     23830     23834     23836
     23832     23830     23834     23837     23832     23830     23834     23838
     23833     23830     23834     23836     23833     23830     23834     23837
     23833     23830     23834     23838     23836     23834     23838     23840
     23836     23834     23838     23841     23836     23834     23838     23842
     23837     23834     23838     23840     23837     23834     23838     23841
     23837     23834     23838     23842     23843     23848     23852     23854
     23843     23848     23852     23855     23843     23848     23852     23864
     23845     23843     23848     23850     23845     23843     23848     23851
     23845     23843     23848     23852     23846     23843     23848     23850
     23846     23843     23848     23851     23846     23843     23848     23852
     23847     23843     23848     23850     23847     23843     23848     23851
     23847     23843     23848     23852     23848     23852     23864     23856
     23850     23848     23852     23854     23850     23848     23852     23855
     23850     23848     23852     23864     23851     23848     23852     23854
     23851     23848     23852     23855     23851     23848     23852     23864
     23852     23864     23856     23858     23852     23864     23856     23860
     23852     23864     23856     23862     23854     23852     23864     23856
     23855     23852     23864     23856     23856     23862     23866     23868
     23856     23862     23866     23869     23856     23862     23866     23870
     23858     23856     23862     23866     23860     23856     23862     23866
     23862     23866     23870     23872     23862     23866     23870     23873
     23862     23866     23870     23887     23864     23856     23862     23866
     23866     23870     23873     23875     23866     23870     23887     23889
     23866     23870     23887     23890     23866     23870     23887     23891
     23868     23866     23870     23872     23868     23866     23870     23873
     23868     23866     23870     23887     23869     23866     23870     23872
     23869     23866     23870     23873     23869     23866     23870     23887
     23870     23873     23875     23877     23870     23873     23875     23879
     23870     23887     23891     23893     23872     23870     23873     23875
     23872     23870     23887     23889     23872     23870     23887     23890
     23872     23870     23887     23891     23873     23870     23887     23889
     23873     23870     23887     23890     23873     23870     23887     23891
     23873     23875     23879     23881     23873     23875     23879     23882
     23873     23875     23879     23905     23875     23873     23870     23887
     23875     23879     23905     23907     23875     23879     23905     23908
     23875     23879     23905     23909     23877     23875     23879     23881
     23877     23875     23879     23882     23877     23875     23879     23905
     23879     23905     23909     23911     23879     23905     23909     23912
     23879     23905     23909     23913     23881     23879     23905     23907
     23881     23879     23905     23908     23881     23879     23905     23909
     23882     23879     23905     23907     23882     23879     23905     23908
     23882     23879     23905     23909     23887     23891     23893     23895
     23887     23891     23893     23897     23889     23887     23891     23893
     23890     23887     23891     23893     23891     23893     23897     23899
     23891     23893     23897     23900     23891     23893     23897     23968
     23893     23897     23968     23970     23893     23897     23968     23971
     23893     23897     23968     23972     23895     23893     23897     23899
     23895     23893     23897     23900     23895     23893     23897     23968
     23897     23968     23972     23974     23897     23968     23972     23975
     23897     23968     23972     23976     23899     23897     23968     23970
     23899     23897     23968     23971     23899     23897     23968     23972
     23900     23897     23968     23970     23900     23897     23968     23971
     23900     23897     23968     23972     23905     23909     23913     23915
     23905     23909     23913     23916     23905     23909     23913     23917
     23907     23905     23909     23911     23907     23905     23909     23912
     23907     23905     23909     23913     23908     23905     23909     23911
     23908     23905     23909     23912     23908     23905     23909     23913
     23909     23913     23917     23919     23909     23913     23917     23920
     23909     23913     23917     23921     23911     23909     23913     23915
     23911     23909     23913     23916     23911     23909     23913     23917
     23912     23909     23913     23915     23912     23909     23913     23916
     23912     23909     23913     23917     23913     23917     23921     23923
     23913     23917     23921     23924     23913     23917     23921     23925
     23915     23913     23917     23919     23915     23913     23917     23920
     23915     23913     23917     23921     23916     23913     23917     23919
     23916     23913     23917     23920     23916     23913     23917     23921
     23917     23921     23925     23927     23917     23921     23925     23928
     23917     23921     23925     23929     23919     23917     23921     23923
     23919     23917     23921     23924     23919     23917     23921     23925
     23920     23917     23921     23923     23920     23917     23921     23924
     23920     23917     23921     23925     23921     23925     23929     23931
     23921     23925     23929     23932     23923     23921     23925     23927
     23923     23921     23925     23928     23923     23921     23925     23929
     23924     23921     23925     23927     23924     23921     23925     23928
     23924     23921     23925     23929     23925     23929     23932     23934
     23925     23929     23932     23935     23927     23925     23929     23931
     23927     23925     23929     23932     23928     23925     23929     23931
     23928     23925     23929     23932     23929     23932     23935     23937
     23929     23932     23935     23938     23929     23932     23935     23939
     23931     23929     23932     23934     23931     23929     23932     23935
     23932     23935     23939     23941     23932     23935     23939     23942
     23932     23935     23939     23943     23934     23932     23935     23937
     23934     23932     23935     23938     23934     23932     23935     23939
     23935     23939     23943     23945     23935     23939     23943     23946
     23935     23939     23943     23947     23937     23935     23939     23941
     23937     23935     23939     23942     23937     23935     23939     23943
     23938     23935     23939     23941     23938     23935     23939     23942
     23938     23935     23939     23943     23939     23943     23947     23949
     23939     23943     23947     23950     23939     23943     23947     23951
     23941     23939     23943     23945     23941     23939     23943     23946
     23941     23939     23943     23947     23942     23939     23943     23945
     23942     23939     23943     23946     23942     23939     23943     23947
     23943     23947     23951     23953     23943     23947     23951     23954
     23943     23947     23951     23955     23945     23943     23947     23949
     23945     23943     23947     23950     23945     23943     23947     23951
     23946     23943     23947     23949     23946     23943     23947     23950
     23946     23943     23947     23951     23947     23951     23955     23957
     23947     23951     23955     23958     23947     23951     23955     23959
     23949     23947     23951     23953     23949     23947     23951     23954
     23949     23947     23951     23955     23950     23947     23951     23953
     23950     23947     23951     23954     23950     23947     23951     23955
     23951     23955     23959     23961     23951     23955     23959     23962
     23951     23955     23959     23963     23953     23951     23955     23957
     23953     23951     23955     23958     23953     23951     23955     23959
     23954     23951     23955     23957     23954     23951     23955     23958
     23954     23951     23955     23959     23955     23959     23963     23965
     23955     23959     23963     23966     23955     23959     23963     23967
     23957     23955     23959     23961     23957     23955     23959     23962
     23957     23955     23959     23963     23958     23955     23959     23961
     23958     23955     23959     23962     23958     23955     23959     23963
     23961     23959     23963     23965     23961     23959     23963     23966
     23961     23959     23963     23967     23962     23959     23963     23965
     23962     23959     23963     23966     23962     23959     23963     23967
     23968     23972     23976     23978     23968     23972     23976     23979
     23968     23972     23976     23980     23970     23968     23972     23974
     23970     23968     23972     23975     23970     23968     23972     23976
     23971     23968     23972     23974     23971     23968     23972     23975
     23971     23968     23972     23976     23972     23976     23980     23982
     23972     23976     23980     23983     23972     23976     23980     23984
     23974     23972     23976     23978     23974     23972     23976     23979
     23974     23972     23976     23980     23975     23972     23976     23978
     23975     23972     23976     23979     23975     23972     23976     23980
     23976     23980     23984     23986     23976     23980     23984     23987
     23976     23980     23984     23988     23978     23976     23980     23982
     23978     23976     23980     23983     23978     23976     23980     23984
     23979     23976     23980     23982     23979     23976     23980     23983
     23979     23976     23980     23984     23980     23984     23988     23990
     23980     23984     23988     23991     23980     23984     23988     23992
     23982     23980     23984     23986     23982     23980     23984     23987
     23982     23980     23984     23988     23983     23980     23984     23986
     23983     23980     23984     23987     23983     23980     23984     23988
     23984     23988     23992     23994     23984     23988     23992     23995
     23984     23988     23992     23996     23986     23984     23988     23990
     23986     23984     23988     23991     23986     23984     23988     23992
     23987     23984     23988     23990     23987     23984     23988     23991
     23987     23984     23988     23992     23988     23992     23996     23998
     23988     23992     23996     23999     23988     23992     23996     24000
     23990     23988     23992     23994     23990     23988     23992     23995
     23990     23988     23992     23996     23991     23988     23992     23994
     23991     23988     23992     23995     23991     23988     23992     23996
     23992     23996     24000     24002     23992     23996     24000     24003
     23992     23996     24000     24004     23994     23992     23996     23998
     23994     23992     23996     23999     23994     23992     23996     24000
     23995     23992     23996     23998     23995     23992     23996     23999
     23995     23992     23996     24000     23996     24000     24004     24006
     23996     24000     24004     24007     23996     24000     24004     24008
     23998     23996     24000     24002     23998     23996     24000     24003
     23998     23996     24000     24004     23999     23996     24000     24002
     23999     23996     24000     24003     23999     23996     24000     24004
     24000     24004     24008     24010     24000     24004     24008     24011
     24000     24004     24008     24012     24002     24000     24004     24006
     24002     24000     24004     24007     24002     24000     24004     24008
     24003     24000     24004     24006     24003     24000     24004     24007
     24003     24000     24004     24008     24004     24008     24012     24014
     24004     24008     24012     24015     24004     24008     24012     24016
     24006     24004     24008     24010     24006     24004     24008     24011
     24006     24004     24008     24012     24007     24004     24008     24010
     24007     24004     24008     24011     24007     24004     24008     24012
     24008     24012     24016     24018     24008     24012     24016     24019
     24008     24012     24016     24020     24010     24008     24012     24014
     24010     24008     24012     24015     24010     24008     24012     24016
     24011     24008     24012     24014     24011     24008     24012     24015
     24011     24008     24012     24016     24012     24016     24020     24022
     24012     24016     24020     24023     24012     24016     24020     24024
     24014     24012     24016     24018     24014     24012     24016     24019
     24014     24012     24016     24020     24015     24012     24016     24018
     24015     24012     24016     24019     24015     24012     24016     24020
     24018     24016     24020     24022     24018     24016     24020     24023
     24018     24016     24020     24024     24019     24016     24020     24022
     24019     24016     24020     24023     24019     24016     24020     24024
     24025     24030     24034     24036     24025     24030     24034     24037
     24025     24030     24034     24046     24027     24025     24030     24032
     24027     24025     24030     24033     24027     24025     24030     24034
     24028     24025     24030     24032     24028     24025     24030     24033
     24028     24025     24030     24034     24029     24025     24030     24032
     24029     24025     24030     24033     24029     24025     24030     24034
     24030     24034     24046     24038     24032     24030     24034     24036
     24032     24030     24034     24037     24032     24030     24034     24046
     24033     24030     24034     24036     24033     24030     24034     24037
     24033     24030     24034     24046     24034     24046     24038     24040
     24034     24046     24038     24042     24034     24046     24038     24044
     24036     24034     24046     24038     24037     24034     24046     24038
     24038     24044     24048     24050     24038     24044     24048     24051
     24038     24044     24048     24052     24040     24038     24044     24048
     24042     24038     24044     24048     24044     24048     24052     24054
     24044     24048     24052     24055     24044     24048     24052     24069
     24046     24038     24044     24048     24048     24052     24055     24057
     24048     24052     24069     24071     24048     24052     24069     24072
     24048     24052     24069     24073     24050     24048     24052     24054
     24050     24048     24052     24055     24050     24048     24052     24069
     24051     24048     24052     24054     24051     24048     24052     24055
     24051     24048     24052     24069     24052     24055     24057     24059
     24052     24055     24057     24061     24052     24069     24073     24075
     24054     24052     24055     24057     24054     24052     24069     24071
     24054     24052     24069     24072     24054     24052     24069     24073
     24055     24052     24069     24071     24055     24052     24069     24072
     24055     24052     24069     24073     24055     24057     24061     24063
     24055     24057     24061     24064     24055     24057     24061     24087
     24057     24055     24052     24069     24057     24061     24087     24089
     24057     24061     24087     24090     24057     24061     24087     24091
     24059     24057     24061     24063     24059     24057     24061     24064
     24059     24057     24061     24087     24061     24087     24091     24093
     24061     24087     24091     24094     24061     24087     24091     24095
     24063     24061     24087     24089     24063     24061     24087     24090
     24063     24061     24087     24091     24064     24061     24087     24089
     24064     24061     24087     24090     24064     24061     24087     24091
     24069     24073     24075     24077     24069     24073     24075     24079
     24071     24069     24073     24075     24072     24069     24073     24075
     24073     24075     24079     24081     24073     24075     24079     24082
     24073     24075     24079     24150     24075     24079     24150     24152
     24075     24079     24150     24153     24075     24079     24150     24154
     24077     24075     24079     24081     24077     24075     24079     24082
     24077     24075     24079     24150     24079     24150     24154     24156
     24079     24150     24154     24157     24079     24150     24154     24158
     24081     24079     24150     24152     24081     24079     24150     24153
     24081     24079     24150     24154     24082     24079     24150     24152
     24082     24079     24150     24153     24082     24079     24150     24154
     24087     24091     24095     24097     24087     24091     24095     24098
     24087     24091     24095     24099     24089     24087     24091     24093
     24089     24087     24091     24094     24089     24087     24091     24095
     24090     24087     24091     24093     24090     24087     24091     24094
     24090     24087     24091     24095     24091     24095     24099     24101
     24091     24095     24099     24102     24091     24095     24099     24103
     24093     24091     24095     24097     24093     24091     24095     24098
     24093     24091     24095     24099     24094     24091     24095     24097
     24094     24091     24095     24098     24094     24091     24095     24099
     24095     24099     24103     24105     24095     24099     24103     24106
     24095     24099     24103     24107     24097     24095     24099     24101
     24097     24095     24099     24102     24097     24095     24099     24103
     24098     24095     24099     24101     24098     24095     24099     24102
     24098     24095     24099     24103     24099     24103     24107     24109
     24099     24103     24107     24110     24099     24103     24107     24111
     24101     24099     24103     24105     24101     24099     24103     24106
     24101     24099     24103     24107     24102     24099     24103     24105
     24102     24099     24103     24106     24102     24099     24103     24107
     24103     24107     24111     24113     24103     24107     24111     24114
     24105     24103     24107     24109     24105     24103     24107     24110
     24105     24103     24107     24111     24106     24103     24107     24109
     24106     24103     24107     24110     24106     24103     24107     24111
     24107     24111     24114     24116     24107     24111     24114     24117
     24109     24107     24111     24113     24109     24107     24111     24114
     24110     24107     24111     24113     24110     24107     24111     24114
     24111     24114     24117     24119     24111     24114     24117     24120
     24111     24114     24117     24121     24113     24111     24114     24116
     24113     24111     24114     24117     24114     24117     24121     24123
     24114     24117     24121     24124     24114     24117     24121     24125
     24116     24114     24117     24119     24116     24114     24117     24120
     24116     24114     24117     24121     24117     24121     24125     24127
     24117     24121     24125     24128     24117     24121     24125     24129
     24119     24117     24121     24123     24119     24117     24121     24124
     24119     24117     24121     24125     24120     24117     24121     24123
     24120     24117     24121     24124     24120     24117     24121     24125
     24121     24125     24129     24131     24121     24125     24129     24132
     24121     24125     24129     24133     24123     24121     24125     24127
     24123     24121     24125     24128     24123     24121     24125     24129
     24124     24121     24125     24127     24124     24121     24125     24128
     24124     24121     24125     24129     24125     24129     24133     24135
     24125     24129     24133     24136     24125     24129     24133     24137
     24127     24125     24129     24131     24127     24125     24129     24132
     24127     24125     24129     24133     24128     24125     24129     24131
     24128     24125     24129     24132     24128     24125     24129     24133
     24129     24133     24137     24139     24129     24133     24137     24140
     24129     24133     24137     24141     24131     24129     24133     24135
     24131     24129     24133     24136     24131     24129     24133     24137
     24132     24129     24133     24135     24132     24129     24133     24136
     24132     24129     24133     24137     24133     24137     24141     24143
     24133     24137     24141     24144     24133     24137     24141     24145
     24135     24133     24137     24139     24135     24133     24137     24140
     24135     24133     24137     24141     24136     24133     24137     24139
     24136     24133     24137     24140     24136     24133     24137     24141
     24137     24141     24145     24147     24137     24141     24145     24148
     24137     24141     24145     24149     24139     24137     24141     24143
     24139     24137     24141     24144     24139     24137     24141     24145
     24140     24137     24141     24143     24140     24137     24141     24144
     24140     24137     24141     24145     24143     24141     24145     24147
     24143     24141     24145     24148     24143     24141     24145     24149
     24144     24141     24145     24147     24144     24141     24145     24148
     24144     24141     24145     24149     24150     24154     24158     24160
     24150     24154     24158     24161     24150     24154     24158     24162
     24152     24150     24154     24156     24152     24150     24154     24157
     24152     24150     24154     24158     24153     24150     24154     24156
     24153     24150     24154     24157     24153     24150     24154     24158
     24154     24158     24162     24164     24154     24158     24162     24165
     24154     24158     24162     24166     24156     24154     24158     24160
     24156     24154     24158     24161     24156     24154     24158     24162
     24157     24154     24158     24160     24157     24154     24158     24161
     24157     24154     24158     24162     24158     24162     24166     24168
     24158     24162     24166     24169     24158     24162     24166     24170
     24160     24158     24162     24164     24160     24158     24162     24165
     24160     24158     24162     24166     24161     24158     24162     24164
     24161     24158     24162     24165     24161     24158     24162     24166
     24162     24166     24170     24172     24162     24166     24170     24173
     24162     24166     24170     24174     24164     24162     24166     24168
     24164     24162     24166     24169     24164     24162     24166     24170
     24165     24162     24166     24168     24165     24162     24166     24169
     24165     24162     24166     24170     24166     24170     24174     24176
     24166     24170     24174     24177     24166     24170     24174     24178
     24168     24166     24170     24172     24168     24166     24170     24173
     24168     24166     24170     24174     24169     24166     24170     24172
     24169     24166     24170     24173     24169     24166     24170     24174
     24170     24174     24178     24180     24170     24174     24178     24181
     24170     24174     24178     24182     24172     24170     24174     24176
     24172     24170     24174     24177     24172     24170     24174     24178
     24173     24170     24174     24176     24173     24170     24174     24177
     24173     24170     24174     24178     24174     24178     24182     24184
     24174     24178     24182     24185     24174     24178     24182     24186
     24176     24174     24178     24180     24176     24174     24178     24181
     24176     24174     24178     24182     24177     24174     24178     24180
     24177     24174     24178     24181     24177     24174     24178     24182
     24178     24182     24186     24188     24178     24182     24186     24189
     24178     24182     24186     24190     24180     24178     24182     24184
     24180     24178     24182     24185     24180     24178     24182     24186
     24181     24178     24182     24184     24181     24178     24182     24185
     24181     24178     24182     24186     24182     24186     24190     24192
     24182     24186     24190     24193     24182     24186     24190     24194
     24184     24182     24186     24188     24184     24182     24186     24189
     24184     24182     24186     24190     24185     24182     24186     24188
     24185     24182     24186     24189     24185     24182     24186     24190
     24186     24190     24194     24196     24186     24190     24194     24197
     24186     24190     24194     24198     24188     24186     24190     24192
     24188     24186     24190     24193     24188     24186     24190     24194
     24189     24186     24190     24192     24189     24186     24190     24193
     24189     24186     24190     24194     24190     24194     24198     24200
     24190     24194     24198     24201     24190     24194     24198     24202
     24192     24190     24194     24196     24192     24190     24194     24197
     24192     24190     24194     24198     24193     24190     24194     24196
     24193     24190     24194     24197     24193     24190     24194     24198
     24194     24198     24202     24204     24194     24198     24202     24205
     24194     24198     24202     24206     24196     24194     24198     24200
     24196     24194     24198     24201     24196     24194     24198     24202
     24197     24194     24198     24200     24197     24194     24198     24201
     24197     24194     24198     24202     24200     24198     24202     24204
     24200     24198     24202     24205     24200     24198     24202     24206
     24201     24198     24202     24204     24201     24198     24202     24205
     24201     24198     24202     24206     24207     24212     24216     24218
     24207     24212     24216     24219     24207     24212     24216     24228
     24209     24207     24212     24214     24209     24207     24212     24215
     24209     24207     24212     24216     24210     24207     24212     24214
     24210     24207     24212     24215     24210     24207     24212     24216
     24211     24207     24212     24214     24211     24207     24212     24215
     24211     24207     24212     24216     24212     24216     24228     24220
     24214     24212     24216     24218     24214     24212     24216     24219
     24214     24212     24216     24228     24215     24212     24216     24218
     24215     24212     24216     24219     24215     24212     24216     24228
     24216     24228     24220     24222     24216     24228     24220     24224
     24216     24228     24220     24226     24218     24216     24228     24220
     24219     24216     24228     24220     24220     24226     24230     24232
     24220     24226     24230     24233     24220     24226     24230     24234
     24222     24220     24226     24230     24224     24220     24226     24230
     24226     24230     24234     24236     24226     24230     24234     24237
     24226     24230     24234     24251     24228     24220     24226     24230
     24230     24234     24237     24239     24230     24234     24251     24253
     24230     24234     24251     24254     24230     24234     24251     24255
     24232     24230     24234     24236     24232     24230     24234     24237
     24232     24230     24234     24251     24233     24230     24234     24236
     24233     24230     24234     24237     24233     24230     24234     24251
     24234     24237     24239     24241     24234     24237     24239     24243
     24234     24251     24255     24257     24236     24234     24237     24239
     24236     24234     24251     24253     24236     24234     24251     24254
     24236     24234     24251     24255     24237     24234     24251     24253
     24237     24234     24251     24254     24237     24234     24251     24255
     24237     24239     24243     24245     24237     24239     24243     24246
     24237     24239     24243     24269     24239     24237     24234     24251
     24239     24243     24269     24271     24239     24243     24269     24272
     24239     24243     24269     24273     24241     24239     24243     24245
     24241     24239     24243     24246     24241     24239     24243     24269
     24243     24269     24273     24275     24243     24269     24273     24276
     24243     24269     24273     24277     24245     24243     24269     24271
     24245     24243     24269     24272     24245     24243     24269     24273
     24246     24243     24269     24271     24246     24243     24269     24272
     24246     24243     24269     24273     24251     24255     24257     24259
     24251     24255     24257     24261     24253     24251     24255     24257
     24254     24251     24255     24257     24255     24257     24261     24263
     24255     24257     24261     24264     24255     24257     24261     24332
     24257     24261     24332     24334     24257     24261     24332     24335
     24257     24261     24332     24336     24259     24257     24261     24263
     24259     24257     24261     24264     24259     24257     24261     24332
     24261     24332     24336     24338     24261     24332     24336     24339
     24261     24332     24336     24340     24263     24261     24332     24334
     24263     24261     24332     24335     24263     24261     24332     24336
     24264     24261     24332     24334     24264     24261     24332     24335
     24264     24261     24332     24336     24269     24273     24277     24279
     24269     24273     24277     24280     24269     24273     24277     24281
     24271     24269     24273     24275     24271     24269     24273     24276
     24271     24269     24273     24277     24272     24269     24273     24275
     24272     24269     24273     24276     24272     24269     24273     24277
     24273     24277     24281     24283     24273     24277     24281     24284
     24273     24277     24281     24285     24275     24273     24277     24279
     24275     24273     24277     24280     24275     24273     24277     24281
     24276     24273     24277     24279     24276     24273     24277     24280
     24276     24273     24277     24281     24277     24281     24285     24287
     24277     24281     24285     24288     24277     24281     24285     24289
     24279     24277     24281     24283     24279     24277     24281     24284
     24279     24277     24281     24285     24280     24277     24281     24283
     24280     24277     24281     24284     24280     24277     24281     24285
     24281     24285     24289     24291     24281     24285     24289     24292
     24281     24285     24289     24293     24283     24281     24285     24287
     24283     24281     24285     24288     24283     24281     24285     24289
     24284     24281     24285     24287     24284     24281     24285     24288
     24284     24281     24285     24289     24285     24289     24293     24295
     24285     24289     24293     24296     24287     24285     24289     24291
     24287     24285     24289     24292     24287     24285     24289     24293
     24288     24285     24289     24291     24288     24285     24289     24292
     24288     24285     24289     24293     24289     24293     24296     24298
     24289     24293     24296     24299     24291     24289     24293     24295
     24291     24289     24293     24296     24292     24289     24293     24295
     24292     24289     24293     24296     24293     24296     24299     24301
     24293     24296     24299     24302     24293     24296     24299     24303
     24295     24293     24296     24298     24295     24293     24296     24299
     24296     24299     24303     24305     24296     24299     24303     24306
     24296     24299     24303     24307     24298     24296     24299     24301
     24298     24296     24299     24302     24298     24296     24299     24303
     24299     24303     24307     24309     24299     24303     24307     24310
     24299     24303     24307     24311     24301     24299     24303     24305
     24301     24299     24303     24306     24301     24299     24303     24307
     24302     24299     24303     24305     24302     24299     24303     24306
     24302     24299     24303     24307     24303     24307     24311     24313
     24303     24307     24311     24314     24303     24307     24311     24315
     24305     24303     24307     24309     24305     24303     24307     24310
     24305     24303     24307     24311     24306     24303     24307     24309
     24306     24303     24307     24310     24306     24303     24307     24311
     24307     24311     24315     24317     24307     24311     24315     24318
     24307     24311     24315     24319     24309     24307     24311     24313
     24309     24307     24311     24314     24309     24307     24311     24315
     24310     24307     24311     24313     24310     24307     24311     24314
     24310     24307     24311     24315     24311     24315     24319     24321
     24311     24315     24319     24322     24311     24315     24319     24323
     24313     24311     24315     24317     24313     24311     24315     24318
     24313     24311     24315     24319     24314     24311     24315     24317
     24314     24311     24315     24318     24314     24311     24315     24319
     24315     24319     24323     24325     24315     24319     24323     24326
     24315     24319     24323     24327     24317     24315     24319     24321
     24317     24315     24319     24322     24317     24315     24319     24323
     24318     24315     24319     24321     24318     24315     24319     24322
     24318     24315     24319     24323     24319     24323     24327     24329
     24319     24323     24327     24330     24319     24323     24327     24331
     24321     24319     24323     24325     24321     24319     24323     24326
     24321     24319     24323     24327     24322     24319     24323     24325
     24322     24319     24323     24326     24322     24319     24323     24327
     24325     24323     24327     24329     24325     24323     24327     24330
     24325     24323     24327     24331     24326     24323     24327     24329
     24326     24323     24327     24330     24326     24323     24327     24331
     24332     24336     24340     24342     24332     24336     24340     24343
     24332     24336     24340     24344     24334     24332     24336     24338
     24334     24332     24336     24339     24334     24332     24336     24340
     24335     24332     24336     24338     24335     24332     24336     24339
     24335     24332     24336     24340     24336     24340     24344     24346
     24336     24340     24344     24347     24336     24340     24344     24348
     24338     24336     24340     24342     24338     24336     24340     24343
     24338     24336     24340     24344     24339     24336     24340     24342
     24339     24336     24340     24343     24339     24336     24340     24344
     24340     24344     24348     24350     24340     24344     24348     24351
     24340     24344     24348     24352     24342     24340     24344     24346
     24342     24340     24344     24347     24342     24340     24344     24348
     24343     24340     24344     24346     24343     24340     24344     24347
     24343     24340     24344     24348     24344     24348     24352     24354
     24344     24348     24352     24355     24344     24348     24352     24356
     24346     24344     24348     24350     24346     24344     24348     24351
     24346     24344     24348     24352     24347     24344     24348     24350
     24347     24344     24348     24351     24347     24344     24348     24352
     24348     24352     24356     24358     24348     24352     24356     24359
     24348     24352     24356     24360     24350     24348     24352     24354
     24350     24348     24352     24355     24350     24348     24352     24356
     24351     24348     24352     24354     24351     24348     24352     24355
     24351     24348     24352     24356     24352     24356     24360     24362
     24352     24356     24360     24363     24352     24356     24360     24364
     24354     24352     24356     24358     24354     24352     24356     24359
     24354     24352     24356     24360     24355     24352     24356     24358
     24355     24352     24356     24359     24355     24352     24356     24360
     24356     24360     24364     24366     24356     24360     24364     24367
     24356     24360     24364     24368     24358     24356     24360     24362
     24358     24356     24360     24363     24358     24356     24360     24364
     24359     24356     24360     24362     24359     24356     24360     24363
     24359     24356     24360     24364     24360     24364     24368     24370
     24360     24364     24368     24371     24360     24364     24368     24372
     24362     24360     24364     24366     24362     24360     24364     24367
     24362     24360     24364     24368     24363     24360     24364     24366
     24363     24360     24364     24367     24363     24360     24364     24368
     24364     24368     24372     24374     24364     24368     24372     24375
     24364     24368     24372     24376     24366     24364     24368     24370
     24366     24364     24368     24371     24366     24364     24368     24372
     24367     24364     24368     24370     24367     24364     24368     24371
     24367     24364     24368     24372     24368     24372     24376     24378
     24368     24372     24376     24379     24368     24372     24376     24380
     24370     24368     24372     24374     24370     24368     24372     24375
     24370     24368     24372     24376     24371     24368     24372     24374
     24371     24368     24372     24375     24371     24368     24372     24376
     24372     24376     24380     24382     24372     24376     24380     24383
     24372     24376     24380     24384     24374     24372     24376     24378
     24374     24372     24376     24379     24374     24372     24376     24380
     24375     24372     24376     24378     24375     24372     24376     24379
     24375     24372     24376     24380     24376     24380     24384     24386
     24376     24380     24384     24387     24376     24380     24384     24388
     24378     24376     24380     24382     24378     24376     24380     24383
     24378     24376     24380     24384     24379     24376     24380     24382
     24379     24376     24380     24383     24379     24376     24380     24384
     24382     24380     24384     24386     24382     24380     24384     24387
     24382     24380     24384     24388     24383     24380     24384     24386
     24383     24380     24384     24387     24383     24380     24384     24388
     24389     24394     24398     24400     24389     24394     24398     24401
     24389     24394     24398     24410     24391     24389     24394     24396
     24391     24389     24394     24397     24391     24389     24394     24398
     24392     24389     24394     24396     24392     24389     24394     24397
     24392     24389     24394     24398     24393     24389     24394     24396
     24393     24389     24394     24397     24393     24389     24394     24398
     24394     24398     24410     24402     24396     24394     24398     24400
     24396     24394     24398     24401     24396     24394     24398     24410
     24397     24394     24398     24400     24397     24394     24398     24401
     24397     24394     24398     24410     24398     24410     24402     24404
     24398     24410     24402     24406     24398     24410     24402     24408
     24400     24398     24410     24402     24401     24398     24410     24402
     24402     24408     24412     24414     24402     24408     24412     24415
     24402     24408     24412     24416     24404     24402     24408     24412
     24406     24402     24408     24412     24408     24412     24416     24418
     24408     24412     24416     24419     24408     24412     24416     24433
     24410     24402     24408     24412     24412     24416     24419     24421
     24412     24416     24433     24435     24412     24416     24433     24436
     24412     24416     24433     24437     24414     24412     24416     24418
     24414     24412     24416     24419     24414     24412     24416     24433
     24415     24412     24416     24418     24415     24412     24416     24419
     24415     24412     24416     24433     24416     24419     24421     24423
     24416     24419     24421     24425     24416     24433     24437     24439
     24418     24416     24419     24421     24418     24416     24433     24435
     24418     24416     24433     24436     24418     24416     24433     24437
     24419     24416     24433     24435     24419     24416     24433     24436
     24419     24416     24433     24437     24419     24421     24425     24427
     24419     24421     24425     24428     24419     24421     24425     24451
     24421     24419     24416     24433     24421     24425     24451     24453
     24421     24425     24451     24454     24421     24425     24451     24455
     24423     24421     24425     24427     24423     24421     24425     24428
     24423     24421     24425     24451     24425     24451     24455     24457
     24425     24451     24455     24458     24425     24451     24455     24459
     24427     24425     24451     24453     24427     24425     24451     24454
     24427     24425     24451     24455     24428     24425     24451     24453
     24428     24425     24451     24454     24428     24425     24451     24455
     24433     24437     24439     24441     24433     24437     24439     24443
     24435     24433     24437     24439     24436     24433     24437     24439
     24437     24439     24443     24445     24437     24439     24443     24446
     24437     24439     24443     24514     24439     24443     24514     24516
     24439     24443     24514     24517     24439     24443     24514     24518
     24441     24439     24443     24445     24441     24439     24443     24446
     24441     24439     24443     24514     24443     24514     24518     24520
     24443     24514     24518     24521     24443     24514     24518     24522
     24445     24443     24514     24516     24445     24443     24514     24517
     24445     24443     24514     24518     24446     24443     24514     24516
     24446     24443     24514     24517     24446     24443     24514     24518
     24451     24455     24459     24461     24451     24455     24459     24462
     24451     24455     24459     24463     24453     24451     24455     24457
     24453     24451     24455     24458     24453     24451     24455     24459
     24454     24451     24455     24457     24454     24451     24455     24458
     24454     24451     24455     24459     24455     24459     24463     24465
     24455     24459     24463     24466     24455     24459     24463     24467
     24457     24455     24459     24461     24457     24455     24459     24462
     24457     24455     24459     24463     24458     24455     24459     24461
     24458     24455     24459     24462     24458     24455     24459     24463
     24459     24463     24467     24469     24459     24463     24467     24470
     24459     24463     24467     24471     24461     24459     24463     24465
     24461     24459     24463     24466     24461     24459     24463     24467
     24462     24459     24463     24465     24462     24459     24463     24466
     24462     24459     24463     24467     24463     24467     24471     24473
     24463     24467     24471     24474     24463     24467     24471     24475
     24465     24463     24467     24469     24465     24463     24467     24470
     24465     24463     24467     24471     24466     24463     24467     24469
     24466     24463     24467     24470     24466     24463     24467     24471
     24467     24471     24475     24477     24467     24471     24475     24478
     24469     24467     24471     24473     24469     24467     24471     24474
     24469     24467     24471     24475     24470     24467     24471     24473
     24470     24467     24471     24474     24470     24467     24471     24475
     24471     24475     24478     24480     24471     24475     24478     24481
     24473     24471     24475     24477     24473     24471     24475     24478
     24474     24471     24475     24477     24474     24471     24475     24478
     24475     24478     24481     24483     24475     24478     24481     24484
     24475     24478     24481     24485     24477     24475     24478     24480
     24477     24475     24478     24481     24478     24481     24485     24487
     24478     24481     24485     24488     24478     24481     24485     24489
     24480     24478     24481     24483     24480     24478     24481     24484
     24480     24478     24481     24485     24481     24485     24489     24491
     24481     24485     24489     24492     24481     24485     24489     24493
     24483     24481     24485     24487     24483     24481     24485     24488
     24483     24481     24485     24489     24484     24481     24485     24487
     24484     24481     24485     24488     24484     24481     24485     24489
     24485     24489     24493     24495     24485     24489     24493     24496
     24485     24489     24493     24497     24487     24485     24489     24491
     24487     24485     24489     24492     24487     24485     24489     24493
     24488     24485     24489     24491     24488     24485     24489     24492
     24488     24485     24489     24493     24489     24493     24497     24499
     24489     24493     24497     24500     24489     24493     24497     24501
     24491     24489     24493     24495     24491     24489     24493     24496
     24491     24489     24493     24497     24492     24489     24493     24495
     24492     24489     24493     24496     24492     24489     24493     24497
     24493     24497     24501     24503     24493     24497     24501     24504
     24493     24497     24501     24505     24495     24493     24497     24499
     24495     24493     24497     24500     24495     24493     24497     24501
     24496     24493     24497     24499     24496     24493     24497     24500
     24496     24493     24497     24501     24497     24501     24505     24507
     24497     24501     24505     24508     24497     24501     24505     24509
     24499     24497     24501     24503     24499     24497     24501     24504
     24499     24497     24501     24505     24500     24497     24501     24503
     24500     24497     24501     24504     24500     24497     24501     24505
     24501     24505     24509     24511     24501     24505     24509     24512
     24501     24505     24509     24513     24503     24501     24505     24507
     24503     24501     24505     24508     24503     24501     24505     24509
     24504     24501     24505     24507     24504     24501     24505     24508
     24504     24501     24505     24509     24507     24505     24509     24511
     24507     24505     24509     24512     24507     24505     24509     24513
     24508     24505     24509     24511     24508     24505     24509     24512
     24508     24505     24509     24513     24514     24518     24522     24524
     24514     24518     24522     24525     24514     24518     24522     24526
     24516     24514     24518     24520     24516     24514     24518     24521
     24516     24514     24518     24522     24517     24514     24518     24520
     24517     24514     24518     24521     24517     24514     24518     24522
     24518     24522     24526     24528     24518     24522     24526     24529
     24518     24522     24526     24530     24520     24518     24522     24524
     24520     24518     24522     24525     24520     24518     24522     24526
     24521     24518     24522     24524     24521     24518     24522     24525
     24521     24518     24522     24526     24522     24526     24530     24532
     24522     24526     24530     24533     24522     24526     24530     24534
     24524     24522     24526     24528     24524     24522     24526     24529
     24524     24522     24526     24530     24525     24522     24526     24528
     24525     24522     24526     24529     24525     24522     24526     24530
     24526     24530     24534     24536     24526     24530     24534     24537
     24526     24530     24534     24538     24528     24526     24530     24532
     24528     24526     24530     24533     24528     24526     24530     24534
     24529     24526     24530     24532     24529     24526     24530     24533
     24529     24526     24530     24534     24530     24534     24538     24540
     24530     24534     24538     24541     24530     24534     24538     24542
     24532     24530     24534     24536     24532     24530     24534     24537
     24532     24530     24534     24538     24533     24530     24534     24536
     24533     24530     24534     24537     24533     24530     24534     24538
     24534     24538     24542     24544     24534     24538     24542     24545
     24534     24538     24542     24546     24536     24534     24538     24540
     24536     24534     24538     24541     24536     24534     24538     24542
     24537     24534     24538     24540     24537     24534     24538     24541
     24537     24534     24538     24542     24538     24542     24546     24548
     24538     24542     24546     24549     24538     24542     24546     24550
     24540     24538     24542     24544     24540     24538     24542     24545
     24540     24538     24542     24546     24541     24538     24542     24544
     24541     24538     24542     24545     24541     24538     24542     24546
     24542     24546     24550     24552     24542     24546     24550     24553
     24542     24546     24550     24554     24544     24542     24546     24548
     24544     24542     24546     24549     24544     24542     24546     24550
     24545     24542     24546     24548     24545     24542     24546     24549
     24545     24542     24546     24550     24546     24550     24554     24556
     24546     24550     24554     24557     24546     24550     24554     24558
     24548     24546     24550     24552     24548     24546     24550     24553
     24548     24546     24550     24554     24549     24546     24550     24552
     24549     24546     24550     24553     24549     24546     24550     24554
     24550     24554     24558     24560     24550     24554     24558     24561
     24550     24554     24558     24562     24552     24550     24554     24556
     24552     24550     24554     24557     24552     24550     24554     24558
     24553     24550     24554     24556     24553     24550     24554     24557
     24553     24550     24554     24558     24554     24558     24562     24564
     24554     24558     24562     24565     24554     24558     24562     24566
     24556     24554     24558     24560     24556     24554     24558     24561
     24556     24554     24558     24562     24557     24554     24558     24560
     24557     24554     24558     24561     24557     24554     24558     24562
     24558     24562     24566     24568     24558     24562     24566     24569
     24558     24562     24566     24570     24560     24558     24562     24564
     24560     24558     24562     24565     24560     24558     24562     24566
     24561     24558     24562     24564     24561     24558     24562     24565
     24561     24558     24562     24566     24564     24562     24566     24568
     24564     24562     24566     24569     24564     24562     24566     24570
     24565     24562     24566     24568     24565     24562     24566     24569
     24565     24562     24566     24570     24571     24576     24580     24582
     24571     24576     24580     24583     24571     24576     24580     24592
     24573     24571     24576     24578     24573     24571     24576     24579
     24573     24571     24576     24580     24574     24571     24576     24578
     24574     24571     24576     24579     24574     24571     24576     24580
     24575     24571     24576     24578     24575     24571     24576     24579
     24575     24571     24576     24580     24576     24580     24592     24584
     24578     24576     24580     24582     24578     24576     24580     24583
     24578     24576     24580     24592     24579     24576     24580     24582
     24579     24576     24580     24583     24579     24576     24580     24592
     24580     24592     24584     24586     24580     24592     24584     24588
     24580     24592     24584     24590     24582     24580     24592     24584
     24583     24580     24592     24584     24584     24590     24594     24596
     24584     24590     24594     24597     24584     24590     24594     24598
     24586     24584     24590     24594     24588     24584     24590     24594
     24590     24594     24598     24600     24590     24594     24598     24601
     24590     24594     24598     24615     24592     24584     24590     24594
     24594     24598     24601     24603     24594     24598     24615     24617
     24594     24598     24615     24618     24594     24598     24615     24619
     24596     24594     24598     24600     24596     24594     24598     24601
     24596     24594     24598     24615     24597     24594     24598     24600
     24597     24594     24598     24601     24597     24594     24598     24615
     24598     24601     24603     24605     24598     24601     24603     24607
     24598     24615     24619     24621     24600     24598     24601     24603
     24600     24598     24615     24617     24600     24598     24615     24618
     24600     24598     24615     24619     24601     24598     24615     24617
     24601     24598     24615     24618     24601     24598     24615     24619
     24601     24603     24607     24609     24601     24603     24607     24610
     24601     24603     24607     24633     24603     24601     24598     24615
     24603     24607     24633     24635     24603     24607     24633     24636
     24603     24607     24633     24637     24605     24603     24607     24609
     24605     24603     24607     24610     24605     24603     24607     24633
     24607     24633     24637     24639     24607     24633     24637     24640
     24607     24633     24637     24641     24609     24607     24633     24635
     24609     24607     24633     24636     24609     24607     24633     24637
     24610     24607     24633     24635     24610     24607     24633     24636
     24610     24607     24633     24637     24615     24619     24621     24623
     24615     24619     24621     24625     24617     24615     24619     24621
     24618     24615     24619     24621     24619     24621     24625     24627
     24619     24621     24625     24628     24619     24621     24625     24696
     24621     24625     24696     24698     24621     24625     24696     24699
     24621     24625     24696     24700     24623     24621     24625     24627
     24623     24621     24625     24628     24623     24621     24625     24696
     24625     24696     24700     24702     24625     24696     24700     24703
     24625     24696     24700     24704     24627     24625     24696     24698
     24627     24625     24696     24699     24627     24625     24696     24700
     24628     24625     24696     24698     24628     24625     24696     24699
     24628     24625     24696     24700     24633     24637     24641     24643
     24633     24637     24641     24644     24633     24637     24641     24645
     24635     24633     24637     24639     24635     24633     24637     24640
     24635     24633     24637     24641     24636     24633     24637     24639
     24636     24633     24637     24640     24636     24633     24637     24641
     24637     24641     24645     24647     24637     24641     24645     24648
     24637     24641     24645     24649     24639     24637     24641     24643
     24639     24637     24641     24644     24639     24637     24641     24645
     24640     24637     24641     24643     24640     24637     24641     24644
     24640     24637     24641     24645     24641     24645     24649     24651
     24641     24645     24649     24652     24641     24645     24649     24653
     24643     24641     24645     24647     24643     24641     24645     24648
     24643     24641     24645     24649     24644     24641     24645     24647
     24644     24641     24645     24648     24644     24641     24645     24649
     24645     24649     24653     24655     24645     24649     24653     24656
     24645     24649     24653     24657     24647     24645     24649     24651
     24647     24645     24649     24652     24647     24645     24649     24653
     24648     24645     24649     24651     24648     24645     24649     24652
     24648     24645     24649     24653     24649     24653     24657     24659
     24649     24653     24657     24660     24651     24649     24653     24655
     24651     24649     24653     24656     24651     24649     24653     24657
     24652     24649     24653     24655     24652     24649     24653     24656
     24652     24649     24653     24657     24653     24657     24660     24662
     24653     24657     24660     24663     24655     24653     24657     24659
     24655     24653     24657     24660     24656     24653     24657     24659
     24656     24653     24657     24660     24657     24660     24663     24665
     24657     24660     24663     24666     24657     24660     24663     24667
     24659     24657     24660     24662     24659     24657     24660     24663
     24660     24663     24667     24669     24660     24663     24667     24670
     24660     24663     24667     24671     24662     24660     24663     24665
     24662     24660     24663     24666     24662     24660     24663     24667
     24663     24667     24671     24673     24663     24667     24671     24674
     24663     24667     24671     24675     24665     24663     24667     24669
     24665     24663     24667     24670     24665     24663     24667     24671
     24666     24663     24667     24669     24666     24663     24667     24670
     24666     24663     24667     24671     24667     24671     24675     24677
     24667     24671     24675     24678     24667     24671     24675     24679
     24669     24667     24671     24673     24669     24667     24671     24674
     24669     24667     24671     24675     24670     24667     24671     24673
     24670     24667     24671     24674     24670     24667     24671     24675
     24671     24675     24679     24681     24671     24675     24679     24682
     24671     24675     24679     24683     24673     24671     24675     24677
     24673     24671     24675     24678     24673     24671     24675     24679
     24674     24671     24675     24677     24674     24671     24675     24678
     24674     24671     24675     24679     24675     24679     24683     24685
     24675     24679     24683     24686     24675     24679     24683     24687
     24677     24675     24679     24681     24677     24675     24679     24682
     24677     24675     24679     24683     24678     24675     24679     24681
     24678     24675     24679     24682     24678     24675     24679     24683
     24679     24683     24687     24689     24679     24683     24687     24690
     24679     24683     24687     24691     24681     24679     24683     24685
     24681     24679     24683     24686     24681     24679     24683     24687
     24682     24679     24683     24685     24682     24679     24683     24686
     24682     24679     24683     24687     24683     24687     24691     24693
     24683     24687     24691     24694     24683     24687     24691     24695
     24685     24683     24687     24689     24685     24683     24687     24690
     24685     24683     24687     24691     24686     24683     24687     24689
     24686     24683     24687     24690     24686     24683     24687     24691
     24689     24687     24691     24693     24689     24687     24691     24694
     24689     24687     24691     24695     24690     24687     24691     24693
     24690     24687     24691     24694     24690     24687     24691     24695
     24696     24700     24704     24706     24696     24700     24704     24707
     24696     24700     24704     24708     24698     24696     24700     24702
     24698     24696     24700     24703     24698     24696     24700     24704
     24699     24696     24700     24702     24699     24696     24700     24703
     24699     24696     24700     24704     24700     24704     24708     24710
     24700     24704     24708     24711     24700     24704     24708     24712
     24702     24700     24704     24706     24702     24700     24704     24707
     24702     24700     24704     24708     24703     24700     24704     24706
     24703     24700     24704     24707     24703     24700     24704     24708
     24704     24708     24712     24714     24704     24708     24712     24715
     24704     24708     24712     24716     24706     24704     24708     24710
     24706     24704     24708     24711     24706     24704     24708     24712
     24707     24704     24708     24710     24707     24704     24708     24711
     24707     24704     24708     24712     24708     24712     24716     24718
     24708     24712     24716     24719     24708     24712     24716     24720
     24710     24708     24712     24714     24710     24708     24712     24715
     24710     24708     24712     24716     24711     24708     24712     24714
     24711     24708     24712     24715     24711     24708     24712     24716
     24712     24716     24720     24722     24712     24716     24720     24723
     24712     24716     24720     24724     24714     24712     24716     24718
     24714     24712     24716     24719     24714     24712     24716     24720
     24715     24712     24716     24718     24715     24712     24716     24719
     24715     24712     24716     24720     24716     24720     24724     24726
     24716     24720     24724     24727     24716     24720     24724     24728
     24718     24716     24720     24722     24718     24716     24720     24723
     24718     24716     24720     24724     24719     24716     24720     24722
     24719     24716     24720     24723     24719     24716     24720     24724
     24720     24724     24728     24730     24720     24724     24728     24731
     24720     24724     24728     24732     24722     24720     24724     24726
     24722     24720     24724     24727     24722     24720     24724     24728
     24723     24720     24724     24726     24723     24720     24724     24727
     24723     24720     24724     24728     24724     24728     24732     24734
     24724     24728     24732     24735     24724     24728     24732     24736
     24726     24724     24728     24730     24726     24724     24728     24731
     24726     24724     24728     24732     24727     24724     24728     24730
     24727     24724     24728     24731     24727     24724     24728     24732
     24728     24732     24736     24738     24728     24732     24736     24739
     24728     24732     24736     24740     24730     24728     24732     24734
     24730     24728     24732     24735     24730     24728     24732     24736
     24731     24728     24732     24734     24731     24728     24732     24735
     24731     24728     24732     24736     24732     24736     24740     24742
     24732     24736     24740     24743     24732     24736     24740     24744
     24734     24732     24736     24738     24734     24732     24736     24739
     24734     24732     24736     24740     24735     24732     24736     24738
     24735     24732     24736     24739     24735     24732     24736     24740
     24736     24740     24744     24746     24736     24740     24744     24747
     24736     24740     24744     24748     24738     24736     24740     24742
     24738     24736     24740     24743     24738     24736     24740     24744
     24739     24736     24740     24742     24739     24736     24740     24743
     24739     24736     24740     24744     24740     24744     24748     24750
     24740     24744     24748     24751     24740     24744     24748     24752
     24742     24740     24744     24746     24742     24740     24744     24747
     24742     24740     24744     24748     24743     24740     24744     24746
     24743     24740     24744     24747     24743     24740     24744     24748
     24746     24744     24748     24750     24746     24744     24748     24751
     24746     24744     24748     24752     24747     24744     24748     24750
     24747     24744     24748     24751     24747     24744     24748     24752
     24753     24758     24762     24764     24753     24758     24762     24765
     24753     24758     24762     24774     24755     24753     24758     24760
     24755     24753     24758     24761     24755     24753     24758     24762
     24756     24753     24758     24760     24756     24753     24758     24761
     24756     24753     24758     24762     24757     24753     24758     24760
     24757     24753     24758     24761     24757     24753     24758     24762
     24758     24762     24774     24766     24760     24758     24762     24764
     24760     24758     24762     24765     24760     24758     24762     24774
     24761     24758     24762     24764     24761     24758     24762     24765
     24761     24758     24762     24774     24762     24774     24766     24768
     24762     24774     24766     24770     24762     24774     24766     24772
     24764     24762     24774     24766     24765     24762     24774     24766
     24766     24772     24776     24778     24766     24772     24776     24779
     24766     24772     24776     24780     24768     24766     24772     24776
     24770     24766     24772     24776     24772     24776     24780     24782
     24772     24776     24780     24783     24772     24776     24780     24797
     24774     24766     24772     24776     24776     24780     24783     24785
     24776     24780     24797     24799     24776     24780     24797     24800
     24776     24780     24797     24801     24778     24776     24780     24782
     24778     24776     24780     24783     24778     24776     24780     24797
     24779     24776     24780     24782     24779     24776     24780     24783
     24779     24776     24780     24797     24780     24783     24785     24787
     24780     24783     24785     24789     24780     24797     24801     24803
     24782     24780     24783     24785     24782     24780     24797     24799
     24782     24780     24797     24800     24782     24780     24797     24801
     24783     24780     24797     24799     24783     24780     24797     24800
     24783     24780     24797     24801     24783     24785     24789     24791
     24783     24785     24789     24792     24783     24785     24789     24815
     24785     24783     24780     24797     24785     24789     24815     24817
     24785     24789     24815     24818     24785     24789     24815     24819
     24787     24785     24789     24791     24787     24785     24789     24792
     24787     24785     24789     24815     24789     24815     24819     24821
     24789     24815     24819     24822     24789     24815     24819     24823
     24791     24789     24815     24817     24791     24789     24815     24818
     24791     24789     24815     24819     24792     24789     24815     24817
     24792     24789     24815     24818     24792     24789     24815     24819
     24797     24801     24803     24805     24797     24801     24803     24807
     24799     24797     24801     24803     24800     24797     24801     24803
     24801     24803     24807     24809     24801     24803     24807     24810
     24801     24803     24807     24878     24803     24807     24878     24880
     24803     24807     24878     24881     24803     24807     24878     24882
     24805     24803     24807     24809     24805     24803     24807     24810
     24805     24803     24807     24878     24807     24878     24882     24884
     24807     24878     24882     24885     24807     24878     24882     24886
     24809     24807     24878     24880     24809     24807     24878     24881
     24809     24807     24878     24882     24810     24807     24878     24880
     24810     24807     24878     24881     24810     24807     24878     24882
     24815     24819     24823     24825     24815     24819     24823     24826
     24815     24819     24823     24827     24817     24815     24819     24821
     24817     24815     24819     24822     24817     24815     24819     24823
     24818     24815     24819     24821     24818     24815     24819     24822
     24818     24815     24819     24823     24819     24823     24827     24829
     24819     24823     24827     24830     24819     24823     24827     24831
     24821     24819     24823     24825     24821     24819     24823     24826
     24821     24819     24823     24827     24822     24819     24823     24825
     24822     24819     24823     24826     24822     24819     24823     24827
     24823     24827     24831     24833     24823     24827     24831     24834
     24823     24827     24831     24835     24825     24823     24827     24829
     24825     24823     24827     24830     24825     24823     24827     24831
     24826     24823     24827     24829     24826     24823     24827     24830
     24826     24823     24827     24831     24827     24831     24835     24837
     24827     24831     24835     24838     24827     24831     24835     24839
     24829     24827     24831     24833     24829     24827     24831     24834
     24829     24827     24831     24835     24830     24827     24831     24833
     24830     24827     24831     24834     24830     24827     24831     24835
     24831     24835     24839     24841     24831     24835     24839     24842
     24833     24831     24835     24837     24833     24831     24835     24838
     24833     24831     24835     24839     24834     24831     24835     24837
     24834     24831     24835     24838     24834     24831     24835     24839
     24835     24839     24842     24844     24835     24839     24842     24845
     24837     24835     24839     24841     24837     24835     24839     24842
     24838     24835     24839     24841     24838     24835     24839     24842
     24839     24842     24845     24847     24839     24842     24845     24848
     24839     24842     24845     24849     24841     24839     24842     24844
     24841     24839     24842     24845     24842     24845     24849     24851
     24842     24845     24849     24852     24842     24845     24849     24853
     24844     24842     24845     24847     24844     24842     24845     24848
     24844     24842     24845     24849     24845     24849     24853     24855
     24845     24849     24853     24856     24845     24849     24853     24857
     24847     24845     24849     24851     24847     24845     24849     24852
     24847     24845     24849     24853     24848     24845     24849     24851
     24848     24845     24849     24852     24848     24845     24849     24853
     24849     24853     24857     24859     24849     24853     24857     24860
     24849     24853     24857     24861     24851     24849     24853     24855
     24851     24849     24853     24856     24851     24849     24853     24857
     24852     24849     24853     24855     24852     24849     24853     24856
     24852     24849     24853     24857     24853     24857     24861     24863
     24853     24857     24861     24864     24853     24857     24861     24865
     24855     24853     24857     24859     24855     24853     24857     24860
     24855     24853     24857     24861     24856     24853     24857     24859
     24856     24853     24857     24860     24856     24853     24857     24861
     24857     24861     24865     24867     24857     24861     24865     24868
     24857     24861     24865     24869     24859     24857     24861     24863
     24859     24857     24861     24864     24859     24857     24861     24865
     24860     24857     24861     24863     24860     24857     24861     24864
     24860     24857     24861     24865     24861     24865     24869     24871
     24861     24865     24869     24872     24861     24865     24869     24873
     24863     24861     24865     24867     24863     24861     24865     24868
     24863     24861     24865     24869     24864     24861     24865     24867
     24864     24861     24865     24868     24864     24861     24865     24869
     24865     24869     24873     24875     24865     24869     24873     24876
     24865     24869     24873     24877     24867     24865     24869     24871
     24867     24865     24869     24872     24867     24865     24869     24873
     24868     24865     24869     24871     24868     24865     24869     24872
     24868     24865     24869     24873     24871     24869     24873     24875
     24871     24869     24873     24876     24871     24869     24873     24877
     24872     24869     24873     24875     24872     24869     24873     24876
     24872     24869     24873     24877     24878     24882     24886     24888
     24878     24882     24886     24889     24878     24882     24886     24890
     24880     24878     24882     24884     24880     24878     24882     24885
     24880     24878     24882     24886     24881     24878     24882     24884
     24881     24878     24882     24885     24881     24878     24882     24886
     24882     24886     24890     24892     24882     24886     24890     24893
     24882     24886     24890     24894     24884     24882     24886     24888
     24884     24882     24886     24889     24884     24882     24886     24890
     24885     24882     24886     24888     24885     24882     24886     24889
     24885     24882     24886     24890     24886     24890     24894     24896
     24886     24890     24894     24897     24886     24890     24894     24898
     24888     24886     24890     24892     24888     24886     24890     24893
     24888     24886     24890     24894     24889     24886     24890     24892
     24889     24886     24890     24893     24889     24886     24890     24894
     24890     24894     24898     24900     24890     24894     24898     24901
     24890     24894     24898     24902     24892     24890     24894     24896
     24892     24890     24894     24897     24892     24890     24894     24898
     24893     24890     24894     24896     24893     24890     24894     24897
     24893     24890     24894     24898     24894     24898     24902     24904
     24894     24898     24902     24905     24894     24898     24902     24906
     24896     24894     24898     24900     24896     24894     24898     24901
     24896     24894     24898     24902     24897     24894     24898     24900
     24897     24894     24898     24901     24897     24894     24898     24902
     24898     24902     24906     24908     24898     24902     24906     24909
     24898     24902     24906     24910     24900     24898     24902     24904
     24900     24898     24902     24905     24900     24898     24902     24906
     24901     24898     24902     24904     24901     24898     24902     24905
     24901     24898     24902     24906     24902     24906     24910     24912
     24902     24906     24910     24913     24902     24906     24910     24914
     24904     24902     24906     24908     24904     24902     24906     24909
     24904     24902     24906     24910     24905     24902     24906     24908
     24905     24902     24906     24909     24905     24902     24906     24910
     24906     24910     24914     24916     24906     24910     24914     24917
     24906     24910     24914     24918     24908     24906     24910     24912
     24908     24906     24910     24913     24908     24906     24910     24914
     24909     24906     24910     24912     24909     24906     24910     24913
     24909     24906     24910     24914     24910     24914     24918     24920
     24910     24914     24918     24921     24910     24914     24918     24922
     24912     24910     24914     24916     24912     24910     24914     24917
     24912     24910     24914     24918     24913     24910     24914     24916
     24913     24910     24914     24917     24913     24910     24914     24918
     24914     24918     24922     24924     24914     24918     24922     24925
     24914     24918     24922     24926     24916     24914     24918     24920
     24916     24914     24918     24921     24916     24914     24918     24922
     24917     24914     24918     24920     24917     24914     24918     24921
     24917     24914     24918     24922     24918     24922     24926     24928
     24918     24922     24926     24929     24918     24922     24926     24930
     24920     24918     24922     24924     24920     24918     24922     24925
     24920     24918     24922     24926     24921     24918     24922     24924
     24921     24918     24922     24925     24921     24918     24922     24926
     24922     24926     24930     24932     24922     24926     24930     24933
     24922     24926     24930     24934     24924     24922     24926     24928
     24924     24922     24926     24929     24924     24922     24926     24930
     24925     24922     24926     24928     24925     24922     24926     24929
     24925     24922     24926     24930     24928     24926     24930     24932
     24928     24926     24930     24933     24928     24926     24930     24934
     24929     24926     24930     24932     24929     24926     24930     24933
     24929     24926     24930     24934     24935     24940     24944     24946
     24935     24940     24944     24947     24935     24940     24944     24956
     24937     24935     24940     24942     24937     24935     24940     24943
     24937     24935     24940     24944     24938     24935     24940     24942
     24938     24935     24940     24943     24938     24935     24940     24944
     24939     24935     24940     24942     24939     24935     24940     24943
     24939     24935     24940     24944     24940     24944     24956     24948
     24942     24940     24944     24946     24942     24940     24944     24947
     24942     24940     24944     24956     24943     24940     24944     24946
     24943     24940     24944     24947     24943     24940     24944     24956
     24944     24956     24948     24950     24944     24956     24948     24952
     24944     24956     24948     24954     24946     24944     24956     24948
     24947     24944     24956     24948     24948     24954     24958     24960
     24948     24954     24958     24961     24948     24954     24958     24962
     24950     24948     24954     24958     24952     24948     24954     24958
     24954     24958     24962     24964     24954     24958     24962     24965
     24954     24958     24962     24979     24956     24948     24954     24958
     24958     24962     24965     24967     24958     24962     24979     24981
     24958     24962     24979     24982     24958     24962     24979     24983
     24960     24958     24962     24964     24960     24958     24962     24965
     24960     24958     24962     24979     24961     24958     24962     24964
     24961     24958     24962     24965     24961     24958     24962     24979
     24962     24965     24967     24969     24962     24965     24967     24971
     24962     24979     24983     24985     24964     24962     24965     24967
     24964     24962     24979     24981     24964     24962     24979     24982
     24964     24962     24979     24983     24965     24962     24979     24981
     24965     24962     24979     24982     24965     24962     24979     24983
     24965     24967     24971     24973     24965     24967     24971     24974
     24965     24967     24971     24997     24967     24965     24962     24979
     24967     24971     24997     24999     24967     24971     24997     25000
     24967     24971     24997     25001     24969     24967     24971     24973
     24969     24967     24971     24974     24969     24967     24971     24997
     24971     24997     25001     25003     24971     24997     25001     25004
     24971     24997     25001     25005     24973     24971     24997     24999
     24973     24971     24997     25000     24973     24971     24997     25001
     24974     24971     24997     24999     24974     24971     24997     25000
     24974     24971     24997     25001     24979     24983     24985     24987
     24979     24983     24985     24989     24981     24979     24983     24985
     24982     24979     24983     24985     24983     24985     24989     24991
     24983     24985     24989     24992     24983     24985     24989     25060
     24985     24989     25060     25062     24985     24989     25060     25063
     24985     24989     25060     25064     24987     24985     24989     24991
     24987     24985     24989     24992     24987     24985     24989     25060
     24989     25060     25064     25066     24989     25060     25064     25067
     24989     25060     25064     25068     24991     24989     25060     25062
     24991     24989     25060     25063     24991     24989     25060     25064
     24992     24989     25060     25062     24992     24989     25060     25063
     24992     24989     25060     25064     24997     25001     25005     25007
     24997     25001     25005     25008     24997     25001     25005     25009
     24999     24997     25001     25003     24999     24997     25001     25004
     24999     24997     25001     25005     25000     24997     25001     25003
     25000     24997     25001     25004     25000     24997     25001     25005
     25001     25005     25009     25011     25001     25005     25009     25012
     25001     25005     25009     25013     25003     25001     25005     25007
     25003     25001     25005     25008     25003     25001     25005     25009
     25004     25001     25005     25007     25004     25001     25005     25008
     25004     25001     25005     25009     25005     25009     25013     25015
     25005     25009     25013     25016     25005     25009     25013     25017
     25007     25005     25009     25011     25007     25005     25009     25012
     25007     25005     25009     25013     25008     25005     25009     25011
     25008     25005     25009     25012     25008     25005     25009     25013
     25009     25013     25017     25019     25009     25013     25017     25020
     25009     25013     25017     25021     25011     25009     25013     25015
     25011     25009     25013     25016     25011     25009     25013     25017
     25012     25009     25013     25015     25012     25009     25013     25016
     25012     25009     25013     25017     25013     25017     25021     25023
     25013     25017     25021     25024     25015     25013     25017     25019
     25015     25013     25017     25020     25015     25013     25017     25021
     25016     25013     25017     25019     25016     25013     25017     25020
     25016     25013     25017     25021     25017     25021     25024     25026
     25017     25021     25024     25027     25019     25017     25021     25023
     25019     25017     25021     25024     25020     25017     25021     25023
     25020     25017     25021     25024     25021     25024     25027     25029
     25021     25024     25027     25030     25021     25024     25027     25031
     25023     25021     25024     25026     25023     25021     25024     25027
     25024     25027     25031     25033     25024     25027     25031     25034
     25024     25027     25031     25035     25026     25024     25027     25029
     25026     25024     25027     25030     25026     25024     25027     25031
     25027     25031     25035     25037     25027     25031     25035     25038
     25027     25031     25035     25039     25029     25027     25031     25033
     25029     25027     25031     25034     25029     25027     25031     25035
     25030     25027     25031     25033     25030     25027     25031     25034
     25030     25027     25031     25035     25031     25035     25039     25041
     25031     25035     25039     25042     25031     25035     25039     25043
     25033     25031     25035     25037     25033     25031     25035     25038
     25033     25031     25035     25039     25034     25031     25035     25037
     25034     25031     25035     25038     25034     25031     25035     25039
     25035     25039     25043     25045     25035     25039     25043     25046
     25035     25039     25043     25047     25037     25035     25039     25041
     25037     25035     25039     25042     25037     25035     25039     25043
     25038     25035     25039     25041     25038     25035     25039     25042
     25038     25035     25039     25043     25039     25043     25047     25049
     25039     25043     25047     25050     25039     25043     25047     25051
     25041     25039     25043     25045     25041     25039     25043     25046
     25041     25039     25043     25047     25042     25039     25043     25045
     25042     25039     25043     25046     25042     25039     25043     25047
     25043     25047     25051     25053     25043     25047     25051     25054
     25043     25047     25051     25055     25045     25043     25047     25049
     25045     25043     25047     25050     25045     25043     25047     25051
     25046     25043     25047     25049     25046     25043     25047     25050
     25046     25043     25047     25051     25047     25051     25055     25057
     25047     25051     25055     25058     25047     25051     25055     25059
     25049     25047     25051     25053     25049     25047     25051     25054
     25049     25047     25051     25055     25050     25047     25051     25053
     25050     25047     25051     25054     25050     25047     25051     25055
     25053     25051     25055     25057     25053     25051     25055     25058
     25053     25051     25055     25059     25054     25051     25055     25057
     25054     25051     25055     25058     25054     25051     25055     25059
     25060     25064     25068     25070     25060     25064     25068     25071
     25060     25064     25068     25072     25062     25060     25064     25066
     25062     25060     25064     25067     25062     25060     25064     25068
     25063     25060     25064     25066     25063     25060     25064     25067
     25063     25060     25064     25068     25064     25068     25072     25074
     25064     25068     25072     25075     25064     25068     25072     25076
     25066     25064     25068     25070     25066     25064     25068     25071
     25066     25064     25068     25072     25067     25064     25068     25070
     25067     25064     25068     25071     25067     25064     25068     25072
     25068     25072     25076     25078     25068     25072     25076     25079
     25068     25072     25076     25080     25070     25068     25072     25074
     25070     25068     25072     25075     25070     25068     25072     25076
     25071     25068     25072     25074     25071     25068     25072     25075
     25071     25068     25072     25076     25072     25076     25080     25082
     25072     25076     25080     25083     25072     25076     25080     25084
     25074     25072     25076     25078     25074     25072     25076     25079
     25074     25072     25076     25080     25075     25072     25076     25078
     25075     25072     25076     25079     25075     25072     25076     25080
     25076     25080     25084     25086     25076     25080     25084     25087
     25076     25080     25084     25088     25078     25076     25080     25082
     25078     25076     25080     25083     25078     25076     25080     25084
     25079     25076     25080     25082     25079     25076     25080     25083
     25079     25076     25080     25084     25080     25084     25088     25090
     25080     25084     25088     25091     25080     25084     25088     25092
     25082     25080     25084     25086     25082     25080     25084     25087
     25082     25080     25084     25088     25083     25080     25084     25086
     25083     25080     25084     25087     25083     25080     25084     25088
     25084     25088     25092     25094     25084     25088     25092     25095
     25084     25088     25092     25096     25086     25084     25088     25090
     25086     25084     25088     25091     25086     25084     25088     25092
     25087     25084     25088     25090     25087     25084     25088     25091
     25087     25084     25088     25092     25088     25092     25096     25098
     25088     25092     25096     25099     25088     25092     25096     25100
     25090     25088     25092     25094     25090     25088     25092     25095
     25090     25088     25092     25096     25091     25088     25092     25094
     25091     25088     25092     25095     25091     25088     25092     25096
     25092     25096     25100     25102     25092     25096     25100     25103
     25092     25096     25100     25104     25094     25092     25096     25098
     25094     25092     25096     25099     25094     25092     25096     25100
     25095     25092     25096     25098     25095     25092     25096     25099
     25095     25092     25096     25100     25096     25100     25104     25106
     25096     25100     25104     25107     25096     25100     25104     25108
     25098     25096     25100     25102     25098     25096     25100     25103
     25098     25096     25100     25104     25099     25096     25100     25102
     25099     25096     25100     25103     25099     25096     25100     25104
     25100     25104     25108     25110     25100     25104     25108     25111
     25100     25104     25108     25112     25102     25100     25104     25106
     25102     25100     25104     25107     25102     25100     25104     25108
     25103     25100     25104     25106     25103     25100     25104     25107
     25103     25100     25104     25108     25104     25108     25112     25114
     25104     25108     25112     25115     25104     25108     25112     25116
     25106     25104     25108     25110     25106     25104     25108     25111
     25106     25104     25108     25112     25107     25104     25108     25110
     25107     25104     25108     25111     25107     25104     25108     25112
     25110     25108     25112     25114     25110     25108     25112     25115
     25110     25108     25112     25116     25111     25108     25112     25114
     25111     25108     25112     25115     25111     25108     25112     25116
     25117     25122     25126     25128     25117     25122     25126     25129
     25117     25122     25126     25138     25119     25117     25122     25124
     25119     25117     25122     25125     25119     25117     25122     25126
     25120     25117     25122     25124     25120     25117     25122     25125
     25120     25117     25122     25126     25121     25117     25122     25124
     25121     25117     25122     25125     25121     25117     25122     25126
     25122     25126     25138     25130     25124     25122     25126     25128
     25124     25122     25126     25129     25124     25122     25126     25138
     25125     25122     25126     25128     25125     25122     25126     25129
     25125     25122     25126     25138     25126     25138     25130     25132
     25126     25138     25130     25134     25126     25138     25130     25136
     25128     25126     25138     25130     25129     25126     25138     25130
     25130     25136     25140     25142     25130     25136     25140     25143
     25130     25136     25140     25144     25132     25130     25136     25140
     25134     25130     25136     25140     25136     25140     25144     25146
     25136     25140     25144     25147     25136     25140     25144     25161
     25138     25130     25136     25140     25140     25144     25147     25149
     25140     25144     25161     25163     25140     25144     25161     25164
     25140     25144     25161     25165     25142     25140     25144     25146
     25142     25140     25144     25147     25142     25140     25144     25161
     25143     25140     25144     25146     25143     25140     25144     25147
     25143     25140     25144     25161     25144     25147     25149     25151
     25144     25147     25149     25153     25144     25161     25165     25167
     25146     25144     25147     25149     25146     25144     25161     25163
     25146     25144     25161     25164     25146     25144     25161     25165
     25147     25144     25161     25163     25147     25144     25161     25164
     25147     25144     25161     25165     25147     25149     25153     25155
     25147     25149     25153     25156     25147     25149     25153     25179
     25149     25147     25144     25161     25149     25153     25179     25181
     25149     25153     25179     25182     25149     25153     25179     25183
     25151     25149     25153     25155     25151     25149     25153     25156
     25151     25149     25153     25179     25153     25179     25183     25185
     25153     25179     25183     25186     25153     25179     25183     25187
     25155     25153     25179     25181     25155     25153     25179     25182
     25155     25153     25179     25183     25156     25153     25179     25181
     25156     25153     25179     25182     25156     25153     25179     25183
     25161     25165     25167     25169     25161     25165     25167     25171
     25163     25161     25165     25167     25164     25161     25165     25167
     25165     25167     25171     25173     25165     25167     25171     25174
     25165     25167     25171     25242     25167     25171     25242     25244
     25167     25171     25242     25245     25167     25171     25242     25246
     25169     25167     25171     25173     25169     25167     25171     25174
     25169     25167     25171     25242     25171     25242     25246     25248
     25171     25242     25246     25249     25171     25242     25246     25250
     25173     25171     25242     25244     25173     25171     25242     25245
     25173     25171     25242     25246     25174     25171     25242     25244
     25174     25171     25242     25245     25174     25171     25242     25246
     25179     25183     25187     25189     25179     25183     25187     25190
     25179     25183     25187     25191     25181     25179     25183     25185
     25181     25179     25183     25186     25181     25179     25183     25187
     25182     25179     25183     25185     25182     25179     25183     25186
     25182     25179     25183     25187     25183     25187     25191     25193
     25183     25187     25191     25194     25183     25187     25191     25195
     25185     25183     25187     25189     25185     25183     25187     25190
     25185     25183     25187     25191     25186     25183     25187     25189
     25186     25183     25187     25190     25186     25183     25187     25191
     25187     25191     25195     25197     25187     25191     25195     25198
     25187     25191     25195     25199     25189     25187     25191     25193
     25189     25187     25191     25194     25189     25187     25191     25195
     25190     25187     25191     25193     25190     25187     25191     25194
     25190     25187     25191     25195     25191     25195     25199     25201
     25191     25195     25199     25202     25191     25195     25199     25203
     25193     25191     25195     25197     25193     25191     25195     25198
     25193     25191     25195     25199     25194     25191     25195     25197
     25194     25191     25195     25198     25194     25191     25195     25199
     25195     25199     25203     25205     25195     25199     25203     25206
     25197     25195     25199     25201     25197     25195     25199     25202
     25197     25195     25199     25203     25198     25195     25199     25201
     25198     25195     25199     25202     25198     25195     25199     25203
     25199     25203     25206     25208     25199     25203     25206     25209
     25201     25199     25203     25205     25201     25199     25203     25206
     25202     25199     25203     25205     25202     25199     25203     25206
     25203     25206     25209     25211     25203     25206     25209     25212
     25203     25206     25209     25213     25205     25203     25206     25208
     25205     25203     25206     25209     25206     25209     25213     25215
     25206     25209     25213     25216     25206     25209     25213     25217
     25208     25206     25209     25211     25208     25206     25209     25212
     25208     25206     25209     25213     25209     25213     25217     25219
     25209     25213     25217     25220     25209     25213     25217     25221
     25211     25209     25213     25215     25211     25209     25213     25216
     25211     25209     25213     25217     25212     25209     25213     25215
     25212     25209     25213     25216     25212     25209     25213     25217
     25213     25217     25221     25223     25213     25217     25221     25224
     25213     25217     25221     25225     25215     25213     25217     25219
     25215     25213     25217     25220     25215     25213     25217     25221
     25216     25213     25217     25219     25216     25213     25217     25220
     25216     25213     25217     25221     25217     25221     25225     25227
     25217     25221     25225     25228     25217     25221     25225     25229
     25219     25217     25221     25223     25219     25217     25221     25224
     25219     25217     25221     25225     25220     25217     25221     25223
     25220     25217     25221     25224     25220     25217     25221     25225
     25221     25225     25229     25231     25221     25225     25229     25232
     25221     25225     25229     25233     25223     25221     25225     25227
     25223     25221     25225     25228     25223     25221     25225     25229
     25224     25221     25225     25227     25224     25221     25225     25228
     25224     25221     25225     25229     25225     25229     25233     25235
     25225     25229     25233     25236     25225     25229     25233     25237
     25227     25225     25229     25231     25227     25225     25229     25232
     25227     25225     25229     25233     25228     25225     25229     25231
     25228     25225     25229     25232     25228     25225     25229     25233
     25229     25233     25237     25239     25229     25233     25237     25240
     25229     25233     25237     25241     25231     25229     25233     25235
     25231     25229     25233     25236     25231     25229     25233     25237
     25232     25229     25233     25235     25232     25229     25233     25236
     25232     25229     25233     25237     25235     25233     25237     25239
     25235     25233     25237     25240     25235     25233     25237     25241
     25236     25233     25237     25239     25236     25233     25237     25240
     25236     25233     25237     25241     25242     25246     25250     25252
     25242     25246     25250     25253     25242     25246     25250     25254
     25244     25242     25246     25248     25244     25242     25246     25249
     25244     25242     25246     25250     25245     25242     25246     25248
     25245     25242     25246     25249     25245     25242     25246     25250
     25246     25250     25254     25256     25246     25250     25254     25257
     25246     25250     25254     25258     25248     25246     25250     25252
     25248     25246     25250     25253     25248     25246     25250     25254
     25249     25246     25250     25252     25249     25246     25250     25253
     25249     25246     25250     25254     25250     25254     25258     25260
     25250     25254     25258     25261     25250     25254     25258     25262
     25252     25250     25254     25256     25252     25250     25254     25257
     25252     25250     25254     25258     25253     25250     25254     25256
     25253     25250     25254     25257     25253     25250     25254     25258
     25254     25258     25262     25264     25254     25258     25262     25265
     25254     25258     25262     25266     25256     25254     25258     25260
     25256     25254     25258     25261     25256     25254     25258     25262
     25257     25254     25258     25260     25257     25254     25258     25261
     25257     25254     25258     25262     25258     25262     25266     25268
     25258     25262     25266     25269     25258     25262     25266     25270
     25260     25258     25262     25264     25260     25258     25262     25265
     25260     25258     25262     25266     25261     25258     25262     25264
     25261     25258     25262     25265     25261     25258     25262     25266
     25262     25266     25270     25272     25262     25266     25270     25273
     25262     25266     25270     25274     25264     25262     25266     25268
     25264     25262     25266     25269     25264     25262     25266     25270
     25265     25262     25266     25268     25265     25262     25266     25269
     25265     25262     25266     25270     25266     25270     25274     25276
     25266     25270     25274     25277     25266     25270     25274     25278
     25268     25266     25270     25272     25268     25266     25270     25273
     25268     25266     25270     25274     25269     25266     25270     25272
     25269     25266     25270     25273     25269     25266     25270     25274
     25270     25274     25278     25280     25270     25274     25278     25281
     25270     25274     25278     25282     25272     25270     25274     25276
     25272     25270     25274     25277     25272     25270     25274     25278
     25273     25270     25274     25276     25273     25270     25274     25277
     25273     25270     25274     25278     25274     25278     25282     25284
     25274     25278     25282     25285     25274     25278     25282     25286
     25276     25274     25278     25280     25276     25274     25278     25281
     25276     25274     25278     25282     25277     25274     25278     25280
     25277     25274     25278     25281     25277     25274     25278     25282
     25278     25282     25286     25288     25278     25282     25286     25289
     25278     25282     25286     25290     25280     25278     25282     25284
     25280     25278     25282     25285     25280     25278     25282     25286
     25281     25278     25282     25284     25281     25278     25282     25285
     25281     25278     25282     25286     25282     25286     25290     25292
     25282     25286     25290     25293     25282     25286     25290     25294
     25284     25282     25286     25288     25284     25282     25286     25289
     25284     25282     25286     25290     25285     25282     25286     25288
     25285     25282     25286     25289     25285     25282     25286     25290
     25286     25290     25294     25296     25286     25290     25294     25297
     25286     25290     25294     25298     25288     25286     25290     25292
     25288     25286     25290     25293     25288     25286     25290     25294
     25289     25286     25290     25292     25289     25286     25290     25293
     25289     25286     25290     25294     25292     25290     25294     25296
     25292     25290     25294     25297     25292     25290     25294     25298
     25293     25290     25294     25296     25293     25290     25294     25297
     25293     25290     25294     25298     25299     25304     25308     25310
     25299     25304     25308     25311     25299     25304     25308     25320
     25301     25299     25304     25306     25301     25299     25304     25307
     25301     25299     25304     25308     25302     25299     25304     25306
     25302     25299     25304     25307     25302     25299     25304     25308
     25303     25299     25304     25306     25303     25299     25304     25307
     25303     25299     25304     25308     25304     25308     25320     25312
     25306     25304     25308     25310     25306     25304     25308     25311
     25306     25304     25308     25320     25307     25304     25308     25310
     25307     25304     25308     25311     25307     25304     25308     25320
     25308     25320     25312     25314     25308     25320     25312     25316
     25308     25320     25312     25318     25310     25308     25320     25312
     25311     25308     25320     25312     25312     25318     25322     25324
     25312     25318     25322     25325     25312     25318     25322     25326
     25314     25312     25318     25322     25316     25312     25318     25322
     25318     25322     25326     25328     25318     25322     25326     25329
     25318     25322     25326     25343     25320     25312     25318     25322
     25322     25326     25329     25331     25322     25326     25343     25345
     25322     25326     25343     25346     25322     25326     25343     25347
     25324     25322     25326     25328     25324     25322     25326     25329
     25324     25322     25326     25343     25325     25322     25326     25328
     25325     25322     25326     25329     25325     25322     25326     25343
     25326     25329     25331     25333     25326     25329     25331     25335
     25326     25343     25347     25349     25328     25326     25329     25331
     25328     25326     25343     25345     25328     25326     25343     25346
     25328     25326     25343     25347     25329     25326     25343     25345
     25329     25326     25343     25346     25329     25326     25343     25347
     25329     25331     25335     25337     25329     25331     25335     25338
     25329     25331     25335     25361     25331     25329     25326     25343
     25331     25335     25361     25363     25331     25335     25361     25364
     25331     25335     25361     25365     25333     25331     25335     25337
     25333     25331     25335     25338     25333     25331     25335     25361
     25335     25361     25365     25367     25335     25361     25365     25368
     25335     25361     25365     25369     25337     25335     25361     25363
     25337     25335     25361     25364     25337     25335     25361     25365
     25338     25335     25361     25363     25338     25335     25361     25364
     25338     25335     25361     25365     25343     25347     25349     25351
     25343     25347     25349     25353     25345     25343     25347     25349
     25346     25343     25347     25349     25347     25349     25353     25355
     25347     25349     25353     25356     25347     25349     25353     25424
     25349     25353     25424     25426     25349     25353     25424     25427
     25349     25353     25424     25428     25351     25349     25353     25355
     25351     25349     25353     25356     25351     25349     25353     25424
     25353     25424     25428     25430     25353     25424     25428     25431
     25353     25424     25428     25432     25355     25353     25424     25426
     25355     25353     25424     25427     25355     25353     25424     25428
     25356     25353     25424     25426     25356     25353     25424     25427
     25356     25353     25424     25428     25361     25365     25369     25371
     25361     25365     25369     25372     25361     25365     25369     25373
     25363     25361     25365     25367     25363     25361     25365     25368
     25363     25361     25365     25369     25364     25361     25365     25367
     25364     25361     25365     25368     25364     25361     25365     25369
     25365     25369     25373     25375     25365     25369     25373     25376
     25365     25369     25373     25377     25367     25365     25369     25371
     25367     25365     25369     25372     25367     25365     25369     25373
     25368     25365     25369     25371     25368     25365     25369     25372
     25368     25365     25369     25373     25369     25373     25377     25379
     25369     25373     25377     25380     25369     25373     25377     25381
     25371     25369     25373     25375     25371     25369     25373     25376
     25371     25369     25373     25377     25372     25369     25373     25375
     25372     25369     25373     25376     25372     25369     25373     25377
     25373     25377     25381     25383     25373     25377     25381     25384
     25373     25377     25381     25385     25375     25373     25377     25379
     25375     25373     25377     25380     25375     25373     25377     25381
     25376     25373     25377     25379     25376     25373     25377     25380
     25376     25373     25377     25381     25377     25381     25385     25387
     25377     25381     25385     25388     25379     25377     25381     25383
     25379     25377     25381     25384     25379     25377     25381     25385
     25380     25377     25381     25383     25380     25377     25381     25384
     25380     25377     25381     25385     25381     25385     25388     25390
     25381     25385     25388     25391     25383     25381     25385     25387
     25383     25381     25385     25388     25384     25381     25385     25387
     25384     25381     25385     25388     25385     25388     25391     25393
     25385     25388     25391     25394     25385     25388     25391     25395
     25387     25385     25388     25390     25387     25385     25388     25391
     25388     25391     25395     25397     25388     25391     25395     25398
     25388     25391     25395     25399     25390     25388     25391     25393
     25390     25388     25391     25394     25390     25388     25391     25395
     25391     25395     25399     25401     25391     25395     25399     25402
     25391     25395     25399     25403     25393     25391     25395     25397
     25393     25391     25395     25398     25393     25391     25395     25399
     25394     25391     25395     25397     25394     25391     25395     25398
     25394     25391     25395     25399     25395     25399     25403     25405
     25395     25399     25403     25406     25395     25399     25403     25407
     25397     25395     25399     25401     25397     25395     25399     25402
     25397     25395     25399     25403     25398     25395     25399     25401
     25398     25395     25399     25402     25398     25395     25399     25403
     25399     25403     25407     25409     25399     25403     25407     25410
     25399     25403     25407     25411     25401     25399     25403     25405
     25401     25399     25403     25406     25401     25399     25403     25407
     25402     25399     25403     25405     25402     25399     25403     25406
     25402     25399     25403     25407     25403     25407     25411     25413
     25403     25407     25411     25414     25403     25407     25411     25415
     25405     25403     25407     25409     25405     25403     25407     25410
     25405     25403     25407     25411     25406     25403     25407     25409
     25406     25403     25407     25410     25406     25403     25407     25411
     25407     25411     25415     25417     25407     25411     25415     25418
     25407     25411     25415     25419     25409     25407     25411     25413
     25409     25407     25411     25414     25409     25407     25411     25415
     25410     25407     25411     25413     25410     25407     25411     25414
     25410     25407     25411     25415     25411     25415     25419     25421
     25411     25415     25419     25422     25411     25415     25419     25423
     25413     25411     25415     25417     25413     25411     25415     25418
     25413     25411     25415     25419     25414     25411     25415     25417
     25414     25411     25415     25418     25414     25411     25415     25419
     25417     25415     25419     25421     25417     25415     25419     25422
     25417     25415     25419     25423     25418     25415     25419     25421
     25418     25415     25419     25422     25418     25415     25419     25423
     25424     25428     25432     25434     25424     25428     25432     25435
     25424     25428     25432     25436     25426     25424     25428     25430
     25426     25424     25428     25431     25426     25424     25428     25432
     25427     25424     25428     25430     25427     25424     25428     25431
     25427     25424     25428     25432     25428     25432     25436     25438
     25428     25432     25436     25439     25428     25432     25436     25440
     25430     25428     25432     25434     25430     25428     25432     25435
     25430     25428     25432     25436     25431     25428     25432     25434
     25431     25428     25432     25435     25431     25428     25432     25436
     25432     25436     25440     25442     25432     25436     25440     25443
     25432     25436     25440     25444     25434     25432     25436     25438
     25434     25432     25436     25439     25434     25432     25436     25440
     25435     25432     25436     25438     25435     25432     25436     25439
     25435     25432     25436     25440     25436     25440     25444     25446
     25436     25440     25444     25447     25436     25440     25444     25448
     25438     25436     25440     25442     25438     25436     25440     25443
     25438     25436     25440     25444     25439     25436     25440     25442
     25439     25436     25440     25443     25439     25436     25440     25444
     25440     25444     25448     25450     25440     25444     25448     25451
     25440     25444     25448     25452     25442     25440     25444     25446
     25442     25440     25444     25447     25442     25440     25444     25448
     25443     25440     25444     25446     25443     25440     25444     25447
     25443     25440     25444     25448     25444     25448     25452     25454
     25444     25448     25452     25455     25444     25448     25452     25456
     25446     25444     25448     25450     25446     25444     25448     25451
     25446     25444     25448     25452     25447     25444     25448     25450
     25447     25444     25448     25451     25447     25444     25448     25452
     25448     25452     25456     25458     25448     25452     25456     25459
     25448     25452     25456     25460     25450     25448     25452     25454
     25450     25448     25452     25455     25450     25448     25452     25456
     25451     25448     25452     25454     25451     25448     25452     25455
     25451     25448     25452     25456     25452     25456     25460     25462
     25452     25456     25460     25463     25452     25456     25460     25464
     25454     25452     25456     25458     25454     25452     25456     25459
     25454     25452     25456     25460     25455     25452     25456     25458
     25455     25452     25456     25459     25455     25452     25456     25460
     25456     25460     25464     25466     25456     25460     25464     25467
     25456     25460     25464     25468     25458     25456     25460     25462
     25458     25456     25460     25463     25458     25456     25460     25464
     25459     25456     25460     25462     25459     25456     25460     25463
     25459     25456     25460     25464     25460     25464     25468     25470
     25460     25464     25468     25471     25460     25464     25468     25472
     25462     25460     25464     25466     25462     25460     25464     25467
     25462     25460     25464     25468     25463     25460     25464     25466
     25463     25460     25464     25467     25463     25460     25464     25468
     25464     25468     25472     25474     25464     25468     25472     25475
     25464     25468     25472     25476     25466     25464     25468     25470
     25466     25464     25468     25471     25466     25464     25468     25472
     25467     25464     25468     25470     25467     25464     25468     25471
     25467     25464     25468     25472     25468     25472     25476     25478
     25468     25472     25476     25479     25468     25472     25476     25480
     25470     25468     25472     25474     25470     25468     25472     25475
     25470     25468     25472     25476     25471     25468     25472     25474
     25471     25468     25472     25475     25471     25468     25472     25476
     25474     25472     25476     25478     25474     25472     25476     25479
     25474     25472     25476     25480     25475     25472     25476     25478
     25475     25472     25476     25479     25475     25472     25476     25480
     25481     25486     25490     25492     25481     25486     25490     25493
     25481     25486     25490     25502     25483     25481     25486     25488
     25483     25481     25486     25489     25483     25481     25486     25490
     25484     25481     25486     25488     25484     25481     25486     25489
     25484     25481     25486     25490     25485     25481     25486     25488
     25485     25481     25486     25489     25485     25481     25486     25490
     25486     25490     25502     25494     25488     25486     25490     25492
     25488     25486     25490     25493     25488     25486     25490     25502
     25489     25486     25490     25492     25489     25486     25490     25493
     25489     25486     25490     25502     25490     25502     25494     25496
     25490     25502     25494     25498     25490     25502     25494     25500
     25492     25490     25502     25494     25493     25490     25502     25494
     25494     25500     25504     25506     25494     25500     25504     25507
     25494     25500     25504     25508     25496     25494     25500     25504
     25498     25494     25500     25504     25500     25504     25508     25510
     25500     25504     25508     25511     25500     25504     25508     25525
     25502     25494     25500     25504     25504     25508     25511     25513
     25504     25508     25525     25527     25504     25508     25525     25528
     25504     25508     25525     25529     25506     25504     25508     25510
     25506     25504     25508     25511     25506     25504     25508     25525
     25507     25504     25508     25510     25507     25504     25508     25511
     25507     25504     25508     25525     25508     25511     25513     25515
     25508     25511     25513     25517     25508     25525     25529     25531
     25510     25508     25511     25513     25510     25508     25525     25527
     25510     25508     25525     25528     25510     25508     25525     25529
     25511     25508     25525     25527     25511     25508     25525     25528
     25511     25508     25525     25529     25511     25513     25517     25519
     25511     25513     25517     25520     25511     25513     25517     25543
     25513     25511     25508     25525     25513     25517     25543     25545
     25513     25517     25543     25546     25513     25517     25543     25547
     25515     25513     25517     25519     25515     25513     25517     25520
     25515     25513     25517     25543     25517     25543     25547     25549
     25517     25543     25547     25550     25517     25543     25547     25551
     25519     25517     25543     25545     25519     25517     25543     25546
     25519     25517     25543     25547     25520     25517     25543     25545
     25520     25517     25543     25546     25520     25517     25543     25547
     25525     25529     25531     25533     25525     25529     25531     25535
     25527     25525     25529     25531     25528     25525     25529     25531
     25529     25531     25535     25537     25529     25531     25535     25538
     25529     25531     25535     25606     25531     25535     25606     25608
     25531     25535     25606     25609     25531     25535     25606     25610
     25533     25531     25535     25537     25533     25531     25535     25538
     25533     25531     25535     25606     25535     25606     25610     25612
     25535     25606     25610     25613     25535     25606     25610     25614
     25537     25535     25606     25608     25537     25535     25606     25609
     25537     25535     25606     25610     25538     25535     25606     25608
     25538     25535     25606     25609     25538     25535     25606     25610
     25543     25547     25551     25553     25543     25547     25551     25554
     25543     25547     25551     25555     25545     25543     25547     25549
     25545     25543     25547     25550     25545     25543     25547     25551
     25546     25543     25547     25549     25546     25543     25547     25550
     25546     25543     25547     25551     25547     25551     25555     25557
     25547     25551     25555     25558     25547     25551     25555     25559
     25549     25547     25551     25553     25549     25547     25551     25554
     25549     25547     25551     25555     25550     25547     25551     25553
     25550     25547     25551     25554     25550     25547     25551     25555
     25551     25555     25559     25561     25551     25555     25559     25562
     25551     25555     25559     25563     25553     25551     25555     25557
     25553     25551     25555     25558     25553     25551     25555     25559
     25554     25551     25555     25557     25554     25551     25555     25558
     25554     25551     25555     25559     25555     25559     25563     25565
     25555     25559     25563     25566     25555     25559     25563     25567
     25557     25555     25559     25561     25557     25555     25559     25562
     25557     25555     25559     25563     25558     25555     25559     25561
     25558     25555     25559     25562     25558     25555     25559     25563
     25559     25563     25567     25569     25559     25563     25567     25570
     25561     25559     25563     25565     25561     25559     25563     25566
     25561     25559     25563     25567     25562     25559     25563     25565
     25562     25559     25563     25566     25562     25559     25563     25567
     25563     25567     25570     25572     25563     25567     25570     25573
     25565     25563     25567     25569     25565     25563     25567     25570
     25566     25563     25567     25569     25566     25563     25567     25570
     25567     25570     25573     25575     25567     25570     25573     25576
     25567     25570     25573     25577     25569     25567     25570     25572
     25569     25567     25570     25573     25570     25573     25577     25579
     25570     25573     25577     25580     25570     25573     25577     25581
     25572     25570     25573     25575     25572     25570     25573     25576
     25572     25570     25573     25577     25573     25577     25581     25583
     25573     25577     25581     25584     25573     25577     25581     25585
     25575     25573     25577     25579     25575     25573     25577     25580
     25575     25573     25577     25581     25576     25573     25577     25579
     25576     25573     25577     25580     25576     25573     25577     25581
     25577     25581     25585     25587     25577     25581     25585     25588
     25577     25581     25585     25589     25579     25577     25581     25583
     25579     25577     25581     25584     25579     25577     25581     25585
     25580     25577     25581     25583     25580     25577     25581     25584
     25580     25577     25581     25585     25581     25585     25589     25591
     25581     25585     25589     25592     25581     25585     25589     25593
     25583     25581     25585     25587     25583     25581     25585     25588
     25583     25581     25585     25589     25584     25581     25585     25587
     25584     25581     25585     25588     25584     25581     25585     25589
     25585     25589     25593     25595     25585     25589     25593     25596
     25585     25589     25593     25597     25587     25585     25589     25591
     25587     25585     25589     25592     25587     25585     25589     25593
     25588     25585     25589     25591     25588     25585     25589     25592
     25588     25585     25589     25593     25589     25593     25597     25599
     25589     25593     25597     25600     25589     25593     25597     25601
     25591     25589     25593     25595     25591     25589     25593     25596
     25591     25589     25593     25597     25592     25589     25593     25595
     25592     25589     25593     25596     25592     25589     25593     25597
     25593     25597     25601     25603     25593     25597     25601     25604
     25593     25597     25601     25605     25595     25593     25597     25599
     25595     25593     25597     25600     25595     25593     25597     25601
     25596     25593     25597     25599     25596     25593     25597     25600
     25596     25593     25597     25601     25599     25597     25601     25603
     25599     25597     25601     25604     25599     25597     25601     25605
     25600     25597     25601     25603     25600     25597     25601     25604
     25600     25597     25601     25605     25606     25610     25614     25616
     25606     25610     25614     25617     25606     25610     25614     25618
     25608     25606     25610     25612     25608     25606     25610     25613
     25608     25606     25610     25614     25609     25606     25610     25612
     25609     25606     25610     25613     25609     25606     25610     25614
     25610     25614     25618     25620     25610     25614     25618     25621
     25610     25614     25618     25622     25612     25610     25614     25616
     25612     25610     25614     25617     25612     25610     25614     25618
     25613     25610     25614     25616     25613     25610     25614     25617
     25613     25610     25614     25618     25614     25618     25622     25624
     25614     25618     25622     25625     25614     25618     25622     25626
     25616     25614     25618     25620     25616     25614     25618     25621
     25616     25614     25618     25622     25617     25614     25618     25620
     25617     25614     25618     25621     25617     25614     25618     25622
     25618     25622     25626     25628     25618     25622     25626     25629
     25618     25622     25626     25630     25620     25618     25622     25624
     25620     25618     25622     25625     25620     25618     25622     25626
     25621     25618     25622     25624     25621     25618     25622     25625
     25621     25618     25622     25626     25622     25626     25630     25632
     25622     25626     25630     25633     25622     25626     25630     25634
     25624     25622     25626     25628     25624     25622     25626     25629
     25624     25622     25626     25630     25625     25622     25626     25628
     25625     25622     25626     25629     25625     25622     25626     25630
     25626     25630     25634     25636     25626     25630     25634     25637
     25626     25630     25634     25638     25628     25626     25630     25632
     25628     25626     25630     25633     25628     25626     25630     25634
     25629     25626     25630     25632     25629     25626     25630     25633
     25629     25626     25630     25634     25630     25634     25638     25640
     25630     25634     25638     25641     25630     25634     25638     25642
     25632     25630     25634     25636     25632     25630     25634     25637
     25632     25630     25634     25638     25633     25630     25634     25636
     25633     25630     25634     25637     25633     25630     25634     25638
     25634     25638     25642     25644     25634     25638     25642     25645
     25634     25638     25642     25646     25636     25634     25638     25640
     25636     25634     25638     25641     25636     25634     25638     25642
     25637     25634     25638     25640     25637     25634     25638     25641
     25637     25634     25638     25642     25638     25642     25646     25648
     25638     25642     25646     25649     25638     25642     25646     25650
     25640     25638     25642     25644     25640     25638     25642     25645
     25640     25638     25642     25646     25641     25638     25642     25644
     25641     25638     25642     25645     25641     25638     25642     25646
     25642     25646     25650     25652     25642     25646     25650     25653
     25642     25646     25650     25654     25644     25642     25646     25648
     25644     25642     25646     25649     25644     25642     25646     25650
     25645     25642     25646     25648     25645     25642     25646     25649
     25645     25642     25646     25650     25646     25650     25654     25656
     25646     25650     25654     25657     25646     25650     25654     25658
     25648     25646     25650     25652     25648     25646     25650     25653
     25648     25646     25650     25654     25649     25646     25650     25652
     25649     25646     25650     25653     25649     25646     25650     25654
     25650     25654     25658     25660     25650     25654     25658     25661
     25650     25654     25658     25662     25652     25650     25654     25656
     25652     25650     25654     25657     25652     25650     25654     25658
     25653     25650     25654     25656     25653     25650     25654     25657
     25653     25650     25654     25658     25656     25654     25658     25660
     25656     25654     25658     25661     25656     25654     25658     25662
     25657     25654     25658     25660     25657     25654     25658     25661
     25657     25654     25658     25662     25663     25668     25672     25674
     25663     25668     25672     25675     25663     25668     25672     25684
     25665     25663     25668     25670     25665     25663     25668     25671
     25665     25663     25668     25672     25666     25663     25668     25670
     25666     25663     25668     25671     25666     25663     25668     25672
     25667     25663     25668     25670     25667     25663     25668     25671
     25667     25663     25668     25672     25668     25672     25684     25676
     25670     25668     25672     25674     25670     25668     25672     25675
     25670     25668     25672     25684     25671     25668     25672     25674
     25671     25668     25672     25675     25671     25668     25672     25684
     25672     25684     25676     25678     25672     25684     25676     25680
     25672     25684     25676     25682     25674     25672     25684     25676
     25675     25672     25684     25676     25676     25682     25686     25688
     25676     25682     25686     25689     25676     25682     25686     25690
     25678     25676     25682     25686     25680     25676     25682     25686
     25682     25686     25690     25692     25682     25686     25690     25693
     25682     25686     25690     25707     25684     25676     25682     25686
     25686     25690     25693     25695     25686     25690     25707     25709
     25686     25690     25707     25710     25686     25690     25707     25711
     25688     25686     25690     25692     25688     25686     25690     25693
     25688     25686     25690     25707     25689     25686     25690     25692
     25689     25686     25690     25693     25689     25686     25690     25707
     25690     25693     25695     25697     25690     25693     25695     25699
     25690     25707     25711     25713     25692     25690     25693     25695
     25692     25690     25707     25709     25692     25690     25707     25710
     25692     25690     25707     25711     25693     25690     25707     25709
     25693     25690     25707     25710     25693     25690     25707     25711
     25693     25695     25699     25701     25693     25695     25699     25702
     25693     25695     25699     25725     25695     25693     25690     25707
     25695     25699     25725     25727     25695     25699     25725     25728
     25695     25699     25725     25729     25697     25695     25699     25701
     25697     25695     25699     25702     25697     25695     25699     25725
     25699     25725     25729     25731     25699     25725     25729     25732
     25699     25725     25729     25733     25701     25699     25725     25727
     25701     25699     25725     25728     25701     25699     25725     25729
     25702     25699     25725     25727     25702     25699     25725     25728
     25702     25699     25725     25729     25707     25711     25713     25715
     25707     25711     25713     25717     25709     25707     25711     25713
     25710     25707     25711     25713     25711     25713     25717     25719
     25711     25713     25717     25720     25711     25713     25717     25788
     25713     25717     25788     25790     25713     25717     25788     25791
     25713     25717     25788     25792     25715     25713     25717     25719
     25715     25713     25717     25720     25715     25713     25717     25788
     25717     25788     25792     25794     25717     25788     25792     25795
     25717     25788     25792     25796     25719     25717     25788     25790
     25719     25717     25788     25791     25719     25717     25788     25792
     25720     25717     25788     25790     25720     25717     25788     25791
     25720     25717     25788     25792     25725     25729     25733     25735
     25725     25729     25733     25736     25725     25729     25733     25737
     25727     25725     25729     25731     25727     25725     25729     25732
     25727     25725     25729     25733     25728     25725     25729     25731
     25728     25725     25729     25732     25728     25725     25729     25733
     25729     25733     25737     25739     25729     25733     25737     25740
     25729     25733     25737     25741     25731     25729     25733     25735
     25731     25729     25733     25736     25731     25729     25733     25737
     25732     25729     25733     25735     25732     25729     25733     25736
     25732     25729     25733     25737     25733     25737     25741     25743
     25733     25737     25741     25744     25733     25737     25741     25745
     25735     25733     25737     25739     25735     25733     25737     25740
     25735     25733     25737     25741     25736     25733     25737     25739
     25736     25733     25737     25740     25736     25733     25737     25741
     25737     25741     25745     25747     25737     25741     25745     25748
     25737     25741     25745     25749     25739     25737     25741     25743
     25739     25737     25741     25744     25739     25737     25741     25745
     25740     25737     25741     25743     25740     25737     25741     25744
     25740     25737     25741     25745     25741     25745     25749     25751
     25741     25745     25749     25752     25743     25741     25745     25747
     25743     25741     25745     25748     25743     25741     25745     25749
     25744     25741     25745     25747     25744     25741     25745     25748
     25744     25741     25745     25749     25745     25749     25752     25754
     25745     25749     25752     25755     25747     25745     25749     25751
     25747     25745     25749     25752     25748     25745     25749     25751
     25748     25745     25749     25752     25749     25752     25755     25757
     25749     25752     25755     25758     25749     25752     25755     25759
     25751     25749     25752     25754     25751     25749     25752     25755
     25752     25755     25759     25761     25752     25755     25759     25762
     25752     25755     25759     25763     25754     25752     25755     25757
     25754     25752     25755     25758     25754     25752     25755     25759
     25755     25759     25763     25765     25755     25759     25763     25766
     25755     25759     25763     25767     25757     25755     25759     25761
     25757     25755     25759     25762     25757     25755     25759     25763
     25758     25755     25759     25761     25758     25755     25759     25762
     25758     25755     25759     25763     25759     25763     25767     25769
     25759     25763     25767     25770     25759     25763     25767     25771
     25761     25759     25763     25765     25761     25759     25763     25766
     25761     25759     25763     25767     25762     25759     25763     25765
     25762     25759     25763     25766     25762     25759     25763     25767
     25763     25767     25771     25773     25763     25767     25771     25774
     25763     25767     25771     25775     25765     25763     25767     25769
     25765     25763     25767     25770     25765     25763     25767     25771
     25766     25763     25767     25769     25766     25763     25767     25770
     25766     25763     25767     25771     25767     25771     25775     25777
     25767     25771     25775     25778     25767     25771     25775     25779
     25769     25767     25771     25773     25769     25767     25771     25774
     25769     25767     25771     25775     25770     25767     25771     25773
     25770     25767     25771     25774     25770     25767     25771     25775
     25771     25775     25779     25781     25771     25775     25779     25782
     25771     25775     25779     25783     25773     25771     25775     25777
     25773     25771     25775     25778     25773     25771     25775     25779
     25774     25771     25775     25777     25774     25771     25775     25778
     25774     25771     25775     25779     25775     25779     25783     25785
     25775     25779     25783     25786     25775     25779     25783     25787
     25777     25775     25779     25781     25777     25775     25779     25782
     25777     25775     25779     25783     25778     25775     25779     25781
     25778     25775     25779     25782     25778     25775     25779     25783
     25781     25779     25783     25785     25781     25779     25783     25786
     25781     25779     25783     25787     25782     25779     25783     25785
     25782     25779     25783     25786     25782     25779     25783     25787
     25788     25792     25796     25798     25788     25792     25796     25799
     25788     25792     25796     25800     25790     25788     25792     25794
     25790     25788     25792     25795     25790     25788     25792     25796
     25791     25788     25792     25794     25791     25788     25792     25795
     25791     25788     25792     25796     25792     25796     25800     25802
     25792     25796     25800     25803     25792     25796     25800     25804
     25794     25792     25796     25798     25794     25792     25796     25799
     25794     25792     25796     25800     25795     25792     25796     25798
     25795     25792     25796     25799     25795     25792     25796     25800
     25796     25800     25804     25806     25796     25800     25804     25807
     25796     25800     25804     25808     25798     25796     25800     25802
     25798     25796     25800     25803     25798     25796     25800     25804
     25799     25796     25800     25802     25799     25796     25800     25803
     25799     25796     25800     25804     25800     25804     25808     25810
     25800     25804     25808     25811     25800     25804     25808     25812
     25802     25800     25804     25806     25802     25800     25804     25807
     25802     25800     25804     25808     25803     25800     25804     25806
     25803     25800     25804     25807     25803     25800     25804     25808
     25804     25808     25812     25814     25804     25808     25812     25815
     25804     25808     25812     25816     25806     25804     25808     25810
     25806     25804     25808     25811     25806     25804     25808     25812
     25807     25804     25808     25810     25807     25804     25808     25811
     25807     25804     25808     25812     25808     25812     25816     25818
     25808     25812     25816     25819     25808     25812     25816     25820
     25810     25808     25812     25814     25810     25808     25812     25815
     25810     25808     25812     25816     25811     25808     25812     25814
     25811     25808     25812     25815     25811     25808     25812     25816
     25812     25816     25820     25822     25812     25816     25820     25823
     25812     25816     25820     25824     25814     25812     25816     25818
     25814     25812     25816     25819     25814     25812     25816     25820
     25815     25812     25816     25818     25815     25812     25816     25819
     25815     25812     25816     25820     25816     25820     25824     25826
     25816     25820     25824     25827     25816     25820     25824     25828
     25818     25816     25820     25822     25818     25816     25820     25823
     25818     25816     25820     25824     25819     25816     25820     25822
     25819     25816     25820     25823     25819     25816     25820     25824
     25820     25824     25828     25830     25820     25824     25828     25831
     25820     25824     25828     25832     25822     25820     25824     25826
     25822     25820     25824     25827     25822     25820     25824     25828
     25823     25820     25824     25826     25823     25820     25824     25827
     25823     25820     25824     25828     25824     25828     25832     25834
     25824     25828     25832     25835     25824     25828     25832     25836
     25826     25824     25828     25830     25826     25824     25828     25831
     25826     25824     25828     25832     25827     25824     25828     25830
     25827     25824     25828     25831     25827     25824     25828     25832
     25828     25832     25836     25838     25828     25832     25836     25839
     25828     25832     25836     25840     25830     25828     25832     25834
     25830     25828     25832     25835     25830     25828     25832     25836
     25831     25828     25832     25834     25831     25828     25832     25835
     25831     25828     25832     25836     25832     25836     25840     25842
     25832     25836     25840     25843     25832     25836     25840     25844
     25834     25832     25836     25838     25834     25832     25836     25839
     25834     25832     25836     25840     25835     25832     25836     25838
     25835     25832     25836     25839     25835     25832     25836     25840
     25838     25836     25840     25842     25838     25836     25840     25843
     25838     25836     25840     25844     25839     25836     25840     25842
     25839     25836     25840     25843     25839     25836     25840     25844
     25845     25850     25854     25856     25845     25850     25854     25857
     25845     25850     25854     25866     25847     25845     25850     25852
     25847     25845     25850     25853     25847     25845     25850     25854
     25848     25845     25850     25852     25848     25845     25850     25853
     25848     25845     25850     25854     25849     25845     25850     25852
     25849     25845     25850     25853     25849     25845     25850     25854
     25850     25854     25866     25858     25852     25850     25854     25856
     25852     25850     25854     25857     25852     25850     25854     25866
     25853     25850     25854     25856     25853     25850     25854     25857
     25853     25850     25854     25866     25854     25866     25858     25860
     25854     25866     25858     25862     25854     25866     25858     25864
     25856     25854     25866     25858     25857     25854     25866     25858
     25858     25864     25868     25870     25858     25864     25868     25871
     25858     25864     25868     25872     25860     25858     25864     25868
     25862     25858     25864     25868     25864     25868     25872     25874
     25864     25868     25872     25875     25864     25868     25872     25889
     25866     25858     25864     25868     25868     25872     25875     25877
     25868     25872     25889     25891     25868     25872     25889     25892
     25868     25872     25889     25893     25870     25868     25872     25874
     25870     25868     25872     25875     25870     25868     25872     25889
     25871     25868     25872     25874     25871     25868     25872     25875
     25871     25868     25872     25889     25872     25875     25877     25879
     25872     25875     25877     25881     25872     25889     25893     25895
     25874     25872     25875     25877     25874     25872     25889     25891
     25874     25872     25889     25892     25874     25872     25889     25893
     25875     25872     25889     25891     25875     25872     25889     25892
     25875     25872     25889     25893     25875     25877     25881     25883
     25875     25877     25881     25884     25875     25877     25881     25907
     25877     25875     25872     25889     25877     25881     25907     25909
     25877     25881     25907     25910     25877     25881     25907     25911
     25879     25877     25881     25883     25879     25877     25881     25884
     25879     25877     25881     25907     25881     25907     25911     25913
     25881     25907     25911     25914     25881     25907     25911     25915
     25883     25881     25907     25909     25883     25881     25907     25910
     25883     25881     25907     25911     25884     25881     25907     25909
     25884     25881     25907     25910     25884     25881     25907     25911
     25889     25893     25895     25897     25889     25893     25895     25899
     25891     25889     25893     25895     25892     25889     25893     25895
     25893     25895     25899     25901     25893     25895     25899     25902
     25893     25895     25899     25970     25895     25899     25970     25972
     25895     25899     25970     25973     25895     25899     25970     25974
     25897     25895     25899     25901     25897     25895     25899     25902
     25897     25895     25899     25970     25899     25970     25974     25976
     25899     25970     25974     25977     25899     25970     25974     25978
     25901     25899     25970     25972     25901     25899     25970     25973
     25901     25899     25970     25974     25902     25899     25970     25972
     25902     25899     25970     25973     25902     25899     25970     25974
     25907     25911     25915     25917     25907     25911     25915     25918
     25907     25911     25915     25919     25909     25907     25911     25913
     25909     25907     25911     25914     25909     25907     25911     25915
     25910     25907     25911     25913     25910     25907     25911     25914
     25910     25907     25911     25915     25911     25915     25919     25921
     25911     25915     25919     25922     25911     25915     25919     25923
     25913     25911     25915     25917     25913     25911     25915     25918
     25913     25911     25915     25919     25914     25911     25915     25917
     25914     25911     25915     25918     25914     25911     25915     25919
     25915     25919     25923     25925     25915     25919     25923     25926
     25915     25919     25923     25927     25917     25915     25919     25921
     25917     25915     25919     25922     25917     25915     25919     25923
     25918     25915     25919     25921     25918     25915     25919     25922
     25918     25915     25919     25923     25919     25923     25927     25929
     25919     25923     25927     25930     25919     25923     25927     25931
     25921     25919     25923     25925     25921     25919     25923     25926
     25921     25919     25923     25927     25922     25919     25923     25925
     25922     25919     25923     25926     25922     25919     25923     25927
     25923     25927     25931     25933     25923     25927     25931     25934
     25925     25923     25927     25929     25925     25923     25927     25930
     25925     25923     25927     25931     25926     25923     25927     25929
     25926     25923     25927     25930     25926     25923     25927     25931
     25927     25931     25934     25936     25927     25931     25934     25937
     25929     25927     25931     25933     25929     25927     25931     25934
     25930     25927     25931     25933     25930     25927     25931     25934
     25931     25934     25937     25939     25931     25934     25937     25940
     25931     25934     25937     25941     25933     25931     25934     25936
     25933     25931     25934     25937     25934     25937     25941     25943
     25934     25937     25941     25944     25934     25937     25941     25945
     25936     25934     25937     25939     25936     25934     25937     25940
     25936     25934     25937     25941     25937     25941     25945     25947
     25937     25941     25945     25948     25937     25941     25945     25949
     25939     25937     25941     25943     25939     25937     25941     25944
     25939     25937     25941     25945     25940     25937     25941     25943
     25940     25937     25941     25944     25940     25937     25941     25945
     25941     25945     25949     25951     25941     25945     25949     25952
     25941     25945     25949     25953     25943     25941     25945     25947
     25943     25941     25945     25948     25943     25941     25945     25949
     25944     25941     25945     25947     25944     25941     25945     25948
     25944     25941     25945     25949     25945     25949     25953     25955
     25945     25949     25953     25956     25945     25949     25953     25957
     25947     25945     25949     25951     25947     25945     25949     25952
     25947     25945     25949     25953     25948     25945     25949     25951
     25948     25945     25949     25952     25948     25945     25949     25953
     25949     25953     25957     25959     25949     25953     25957     25960
     25949     25953     25957     25961     25951     25949     25953     25955
     25951     25949     25953     25956     25951     25949     25953     25957
     25952     25949     25953     25955     25952     25949     25953     25956
     25952     25949     25953     25957     25953     25957     25961     25963
     25953     25957     25961     25964     25953     25957     25961     25965
     25955     25953     25957     25959     25955     25953     25957     25960
     25955     25953     25957     25961     25956     25953     25957     25959
     25956     25953     25957     25960     25956     25953     25957     25961
     25957     25961     25965     25967     25957     25961     25965     25968
     25957     25961     25965     25969     25959     25957     25961     25963
     25959     25957     25961     25964     25959     25957     25961     25965
     25960     25957     25961     25963     25960     25957     25961     25964
     25960     25957     25961     25965     25963     25961     25965     25967
     25963     25961     25965     25968     25963     25961     25965     25969
     25964     25961     25965     25967     25964     25961     25965     25968
     25964     25961     25965     25969     25970     25974     25978     25980
     25970     25974     25978     25981     25970     25974     25978     25982
     25972     25970     25974     25976     25972     25970     25974     25977
     25972     25970     25974     25978     25973     25970     25974     25976
     25973     25970     25974     25977     25973     25970     25974     25978
     25974     25978     25982     25984     25974     25978     25982     25985
     25974     25978     25982     25986     25976     25974     25978     25980
     25976     25974     25978     25981     25976     25974     25978     25982
     25977     25974     25978     25980     25977     25974     25978     25981
     25977     25974     25978     25982     25978     25982     25986     25988
     25978     25982     25986     25989     25978     25982     25986     25990
     25980     25978     25982     25984     25980     25978     25982     25985
     25980     25978     25982     25986     25981     25978     25982     25984
     25981     25978     25982     25985     25981     25978     25982     25986
     25982     25986     25990     25992     25982     25986     25990     25993
     25982     25986     25990     25994     25984     25982     25986     25988
     25984     25982     25986     25989     25984     25982     25986     25990
     25985     25982     25986     25988     25985     25982     25986     25989
     25985     25982     25986     25990     25986     25990     25994     25996
     25986     25990     25994     25997     25986     25990     25994     25998
     25988     25986     25990     25992     25988     25986     25990     25993
     25988     25986     25990     25994     25989     25986     25990     25992
     25989     25986     25990     25993     25989     25986     25990     25994
     25990     25994     25998     26000     25990     25994     25998     26001
     25990     25994     25998     26002     25992     25990     25994     25996
     25992     25990     25994     25997     25992     25990     25994     25998
     25993     25990     25994     25996     25993     25990     25994     25997
     25993     25990     25994     25998     25994     25998     26002     26004
     25994     25998     26002     26005     25994     25998     26002     26006
     25996     25994     25998     26000     25996     25994     25998     26001
     25996     25994     25998     26002     25997     25994     25998     26000
     25997     25994     25998     26001     25997     25994     25998     26002
     25998     26002     26006     26008     25998     26002     26006     26009
     25998     26002     26006     26010     26000     25998     26002     26004
     26000     25998     26002     26005     26000     25998     26002     26006
     26001     25998     26002     26004     26001     25998     26002     26005
     26001     25998     26002     26006     26002     26006     26010     26012
     26002     26006     26010     26013     26002     26006     26010     26014
     26004     26002     26006     26008     26004     26002     26006     26009
     26004     26002     26006     26010     26005     26002     26006     26008
     26005     26002     26006     26009     26005     26002     26006     26010
     26006     26010     26014     26016     26006     26010     26014     26017
     26006     26010     26014     26018     26008     26006     26010     26012
     26008     26006     26010     26013     26008     26006     26010     26014
     26009     26006     26010     26012     26009     26006     26010     26013
     26009     26006     26010     26014     26010     26014     26018     26020
     26010     26014     26018     26021     26010     26014     26018     26022
     26012     26010     26014     26016     26012     26010     26014     26017
     26012     26010     26014     26018     26013     26010     26014     26016
     26013     26010     26014     26017     26013     26010     26014     26018
     26014     26018     26022     26024     26014     26018     26022     26025
     26014     26018     26022     26026     26016     26014     26018     26020
     26016     26014     26018     26021     26016     26014     26018     26022
     26017     26014     26018     26020     26017     26014     26018     26021
     26017     26014     26018     26022     26020     26018     26022     26024
     26020     26018     26022     26025     26020     26018     26022     26026
     26021     26018     26022     26024     26021     26018     26022     26025
     26021     26018     26022     26026     26027     26032     26036     26038
     26027     26032     26036     26039     26027     26032     26036     26048
     26029     26027     26032     26034     26029     26027     26032     26035
     26029     26027     26032     26036     26030     26027     26032     26034
     26030     26027     26032     26035     26030     26027     26032     26036
     26031     26027     26032     26034     26031     26027     26032     26035
     26031     26027     26032     26036     26032     26036     26048     26040
     26034     26032     26036     26038     26034     26032     26036     26039
     26034     26032     26036     26048     26035     26032     26036     26038
     26035     26032     26036     26039     26035     26032     26036     26048
     26036     26048     26040     26042     26036     26048     26040     26044
     26036     26048     26040     26046     26038     26036     26048     26040
     26039     26036     26048     26040     26040     26046     26050     26052
     26040     26046     26050     26053     26040     26046     26050     26054
     26042     26040     26046     26050     26044     26040     26046     26050
     26046     26050     26054     26056     26046     26050     26054     26057
     26046     26050     26054     26071     26048     26040     26046     26050
     26050     26054     26057     26059     26050     26054     26071     26073
     26050     26054     26071     26074     26050     26054     26071     26075
     26052     26050     26054     26056     26052     26050     26054     26057
     26052     26050     26054     26071     26053     26050     26054     26056
     26053     26050     26054     26057     26053     26050     26054     26071
     26054     26057     26059     26061     26054     26057     26059     26063
     26054     26071     26075     26077     26056     26054     26057     26059
     26056     26054     26071     26073     26056     26054     26071     26074
     26056     26054     26071     26075     26057     26054     26071     26073
     26057     26054     26071     26074     26057     26054     26071     26075
     26057     26059     26063     26065     26057     26059     26063     26066
     26057     26059     26063     26089     26059     26057     26054     26071
     26059     26063     26089     26091     26059     26063     26089     26092
     26059     26063     26089     26093     26061     26059     26063     26065
     26061     26059     26063     26066     26061     26059     26063     26089
     26063     26089     26093     26095     26063     26089     26093     26096
     26063     26089     26093     26097     26065     26063     26089     26091
     26065     26063     26089     26092     26065     26063     26089     26093
     26066     26063     26089     26091     26066     26063     26089     26092
     26066     26063     26089     26093     26071     26075     26077     26079
     26071     26075     26077     26081     26073     26071     26075     26077
     26074     26071     26075     26077     26075     26077     26081     26083
     26075     26077     26081     26084     26075     26077     26081     26152
     26077     26081     26152     26154     26077     26081     26152     26155
     26077     26081     26152     26156     26079     26077     26081     26083
     26079     26077     26081     26084     26079     26077     26081     26152
     26081     26152     26156     26158     26081     26152     26156     26159
     26081     26152     26156     26160     26083     26081     26152     26154
     26083     26081     26152     26155     26083     26081     26152     26156
     26084     26081     26152     26154     26084     26081     26152     26155
     26084     26081     26152     26156     26089     26093     26097     26099
     26089     26093     26097     26100     26089     26093     26097     26101
     26091     26089     26093     26095     26091     26089     26093     26096
     26091     26089     26093     26097     26092     26089     26093     26095
     26092     26089     26093     26096     26092     26089     26093     26097
     26093     26097     26101     26103     26093     26097     26101     26104
     26093     26097     26101     26105     26095     26093     26097     26099
     26095     26093     26097     26100     26095     26093     26097     26101
     26096     26093     26097     26099     26096     26093     26097     26100
     26096     26093     26097     26101     26097     26101     26105     26107
     26097     26101     26105     26108     26097     26101     26105     26109
     26099     26097     26101     26103     26099     26097     26101     26104
     26099     26097     26101     26105     26100     26097     26101     26103
     26100     26097     26101     26104     26100     26097     26101     26105
     26101     26105     26109     26111     26101     26105     26109     26112
     26101     26105     26109     26113     26103     26101     26105     26107
     26103     26101     26105     26108     26103     26101     26105     26109
     26104     26101     26105     26107     26104     26101     26105     26108
     26104     26101     26105     26109     26105     26109     26113     26115
     26105     26109     26113     26116     26107     26105     26109     26111
     26107     26105     26109     26112     26107     26105     26109     26113
     26108     26105     26109     26111     26108     26105     26109     26112
     26108     26105     26109     26113     26109     26113     26116     26118
     26109     26113     26116     26119     26111     26109     26113     26115
     26111     26109     26113     26116     26112     26109     26113     26115
     26112     26109     26113     26116     26113     26116     26119     26121
     26113     26116     26119     26122     26113     26116     26119     26123
     26115     26113     26116     26118     26115     26113     26116     26119
     26116     26119     26123     26125     26116     26119     26123     26126
     26116     26119     26123     26127     26118     26116     26119     26121
     26118     26116     26119     26122     26118     26116     26119     26123
     26119     26123     26127     26129     26119     26123     26127     26130
     26119     26123     26127     26131     26121     26119     26123     26125
     26121     26119     26123     26126     26121     26119     26123     26127
     26122     26119     26123     26125     26122     26119     26123     26126
     26122     26119     26123     26127     26123     26127     26131     26133
     26123     26127     26131     26134     26123     26127     26131     26135
     26125     26123     26127     26129     26125     26123     26127     26130
     26125     26123     26127     26131     26126     26123     26127     26129
     26126     26123     26127     26130     26126     26123     26127     26131
     26127     26131     26135     26137     26127     26131     26135     26138
     26127     26131     26135     26139     26129     26127     26131     26133
     26129     26127     26131     26134     26129     26127     26131     26135
     26130     26127     26131     26133     26130     26127     26131     26134
     26130     26127     26131     26135     26131     26135     26139     26141
     26131     26135     26139     26142     26131     26135     26139     26143
     26133     26131     26135     26137     26133     26131     26135     26138
     26133     26131     26135     26139     26134     26131     26135     26137
     26134     26131     26135     26138     26134     26131     26135     26139
     26135     26139     26143     26145     26135     26139     26143     26146
     26135     26139     26143     26147     26137     26135     26139     26141
     26137     26135     26139     26142     26137     26135     26139     26143
     26138     26135     26139     26141     26138     26135     26139     26142
     26138     26135     26139     26143     26139     26143     26147     26149
     26139     26143     26147     26150     26139     26143     26147     26151
     26141     26139     26143     26145     26141     26139     26143     26146
     26141     26139     26143     26147     26142     26139     26143     26145
     26142     26139     26143     26146     26142     26139     26143     26147
     26145     26143     26147     26149     26145     26143     26147     26150
     26145     26143     26147     26151     26146     26143     26147     26149
     26146     26143     26147     26150     26146     26143     26147     26151
     26152     26156     26160     26162     26152     26156     26160     26163
     26152     26156     26160     26164     26154     26152     26156     26158
     26154     26152     26156     26159     26154     26152     26156     26160
     26155     26152     26156     26158     26155     26152     26156     26159
     26155     26152     26156     26160     26156     26160     26164     26166
     26156     26160     26164     26167     26156     26160     26164     26168
     26158     26156     26160     26162     26158     26156     26160     26163
     26158     26156     26160     26164     26159     26156     26160     26162
     26159     26156     26160     26163     26159     26156     26160     26164
     26160     26164     26168     26170     26160     26164     26168     26171
     26160     26164     26168     26172     26162     26160     26164     26166
     26162     26160     26164     26167     26162     26160     26164     26168
     26163     26160     26164     26166     26163     26160     26164     26167
     26163     26160     26164     26168     26164     26168     26172     26174
     26164     26168     26172     26175     26164     26168     26172     26176
     26166     26164     26168     26170     26166     26164     26168     26171
     26166     26164     26168     26172     26167     26164     26168     26170
     26167     26164     26168     26171     26167     26164     26168     26172
     26168     26172     26176     26178     26168     26172     26176     26179
     26168     26172     26176     26180     26170     26168     26172     26174
     26170     26168     26172     26175     26170     26168     26172     26176
     26171     26168     26172     26174     26171     26168     26172     26175
     26171     26168     26172     26176     26172     26176     26180     26182
     26172     26176     26180     26183     26172     26176     26180     26184
     26174     26172     26176     26178     26174     26172     26176     26179
     26174     26172     26176     26180     26175     26172     26176     26178
     26175     26172     26176     26179     26175     26172     26176     26180
     26176     26180     26184     26186     26176     26180     26184     26187
     26176     26180     26184     26188     26178     26176     26180     26182
     26178     26176     26180     26183     26178     26176     26180     26184
     26179     26176     26180     26182     26179     26176     26180     26183
     26179     26176     26180     26184     26180     26184     26188     26190
     26180     26184     26188     26191     26180     26184     26188     26192
     26182     26180     26184     26186     26182     26180     26184     26187
     26182     26180     26184     26188     26183     26180     26184     26186
     26183     26180     26184     26187     26183     26180     26184     26188
     26184     26188     26192     26194     26184     26188     26192     26195
     26184     26188     26192     26196     26186     26184     26188     26190
     26186     26184     26188     26191     26186     26184     26188     26192
     26187     26184     26188     26190     26187     26184     26188     26191
     26187     26184     26188     26192     26188     26192     26196     26198
     26188     26192     26196     26199     26188     26192     26196     26200
     26190     26188     26192     26194     26190     26188     26192     26195
     26190     26188     26192     26196     26191     26188     26192     26194
     26191     26188     26192     26195     26191     26188     26192     26196
     26192     26196     26200     26202     26192     26196     26200     26203
     26192     26196     26200     26204     26194     26192     26196     26198
     26194     26192     26196     26199     26194     26192     26196     26200
     26195     26192     26196     26198     26195     26192     26196     26199
     26195     26192     26196     26200     26196     26200     26204     26206
     26196     26200     26204     26207     26196     26200     26204     26208
     26198     26196     26200     26202     26198     26196     26200     26203
     26198     26196     26200     26204     26199     26196     26200     26202
     26199     26196     26200     26203     26199     26196     26200     26204
     26202     26200     26204     26206     26202     26200     26204     26207
     26202     26200     26204     26208     26203     26200     26204     26206
     26203     26200     26204     26207     26203     26200     26204     26208

       576 !NIMPHI: impropers
        33        31        37        35        51        49        55        53
        87        83        90        89        90        87        93        92
       215       213       219       217       233       231       237       235
       269       265       272       271       272       269       275       274
       397       395       401       399       415       413       419       417
       451       447       454       453       454       451       457       456
       579       577       583       581       597       595       601       599
       633       629       636       635       636       633       639       638
       761       759       765       763       779       777       783       781
       815       811       818       817       818       815       821       820
       943       941       947       945       961       959       965       963
       997       993      1000       999      1000       997      1003      1002
      1125      1123      1129      1127      1143      1141      1147      1145
      1179      1175      1182      1181      1182      1179      1185      1184
      1307      1305      1311      1309      1325      1323      1329      1327
      1361      1357      1364      1363      1364      1361      1367      1366
      1489      1487      1493      1491      1507      1505      1511      1509
      1543      1539      1546      1545      1546      1543      1549      1548
      1671      1669      1675      1673      1689      1687      1693      1691
      1725      1721      1728      1727      1728      1725      1731      1730
      1853      1851      1857      1855      1871      1869      1875      1873
      1907      1903      1910      1909      1910      1907      1913      1912
      2035      2033      2039      2037      2053      2051      2057      2055
      2089      2085      2092      2091      2092      2089      2095      2094
      2217      2215      2221      2219      2235      2233      2239      2237
      2271      2267      2274      2273      2274      2271      2277      2276
      2399      2397      2403      2401      2417      2415      2421      2419
      2453      2449      2456      2455      2456      2453      2459      2458
      2581      2579      2585      2583      2599      2597      2603      2601
      2635      2631      2638      2637      2638      2635      2641      2640
      2763      2761      2767      2765      2781      2779      2785      2783
      2817      2813      2820      2819      2820      2817      2823      2822
      2945      2943      2949      2947      2963      2961      2967      2965
      2999      2995      3002      3001      3002      2999      3005      3004
      3127      3125      3131      3129      3145      3143      3149      3147
      3181      3177      3184      3183      3184      3181      3187      3186
      3309      3307      3313      3311      3327      3325      3331      3329
      3363      3359      3366      3365      3366      3363      3369      3368
      3491      3489      3495      3493      3509      3507      3513      3511
      3545      3541      3548      3547      3548      3545      3551      3550
      3673      3671      3677      3675      3691      3689      3695      3693
      3727      3723      3730      3729      3730      3727      3733      3732
      3855      3853      3859      3857      3873      3871      3877      3875
      3909      3905      3912      3911      3912      3909      3915      3914
      4037      4035      4041      4039      4055      4053      4059      4057
      4091      4087      4094      4093      4094      4091      4097      4096
      4219      4217      4223      4221      4237      4235      4241      4239
      4273      4269      4276      4275      4276      4273      4279      4278
      4401      4399      4405      4403      4419      4417      4423      4421
      4455      4451      4458      4457      4458      4455      4461      4460
      4583      4581      4587      4585      4601      4599      4605      4603
      4637      4633      4640      4639      4640      4637      4643      4642
      4765      4763      4769      4767      4783      4781      4787      4785
      4819      4815      4822      4821      4822      4819      4825      4824
      4947      4945      4951      4949      4965      4963      4969      4967
      5001      4997      5004      5003      5004      5001      5007      5006
      5129      5127      5133      5131      5147      5145      5151      5149
      5183      5179      5186      5185      5186      5183      5189      5188
      5311      5309      5315      5313      5329      5327      5333      5331
      5365      5361      5368      5367      5368      5365      5371      5370
      5493      5491      5497      5495      5511      5509      5515      5513
      5547      5543      5550      5549      5550      5547      5553      5552
      5675      5673      5679      5677      5693      5691      5697      5695
      5729      5725      5732      5731      5732      5729      5735      5734
      5857      5855      5861      5859      5875      5873      5879      5877
      5911      5907      5914      5913      5914      5911      5917      5916
      6039      6037      6043      6041      6057      6055      6061      6059
      6093      6089      6096      6095      6096      6093      6099      6098
      6221      6219      6225      6223      6239      6237      6243      6241
      6275      6271      6278      6277      6278      6275      6281      6280
      6403      6401      6407      6405      6421      6419      6425      6423
      6457      6453      6460      6459      6460      6457      6463      6462
      6585      6583      6589      6587      6603      6601      6607      6605
      6639      6635      6642      6641      6642      6639      6645      6644
      6767      6765      6771      6769      6785      6783      6789      6787
      6821      6817      6824      6823      6824      6821      6827      6826
      6949      6947      6953      6951      6967      6965      6971      6969
      7003      6999      7006      7005      7006      7003      7009      7008
      7131      7129      7135      7133      7149      7147      7153      7151
      7185      7181      7188      7187      7188      7185      7191      7190
      7313      7311      7317      7315      7331      7329      7335      7333
      7367      7363      7370      7369      7370      7367      7373      7372
      7495      7493      7499      7497      7513      7511      7517      7515
      7549      7545      7552      7551      7552      7549      7555      7554
      7677      7675      7681      7679      7695      7693      7699      7697
      7731      7727      7734      7733      7734      7731      7737      7736
      7859      7857      7863      7861      7877      7875      7881      7879
      7913      7909      7916      7915      7916      7913      7919      7918
      8041      8039      8045      8043      8059      8057      8063      8061
      8095      8091      8098      8097      8098      8095      8101      8100
      8223      8221      8227      8225      8241      8239      8245      8243
      8277      8273      8280      8279      8280      8277      8283      8282
      8405      8403      8409      8407      8423      8421      8427      8425
      8459      8455      8462      8461      8462      8459      8465      8464
      8587      8585      8591      8589      8605      8603      8609      8607
      8641      8637      8644      8643      8644      8641      8647      8646
      8769      8767      8773      8771      8787      8785      8791      8789
      8823      8819      8826      8825      8826      8823      8829      8828
      8951      8949      8955      8953      8969      8967      8973      8971
      9005      9001      9008      9007      9008      9005      9011      9010
      9133      9131      9137      9135      9151      9149      9155      9153
      9187      9183      9190      9189      9190      9187      9193      9192
      9315      9313      9319      9317      9333      9331      9337      9335
      9369      9365      9372      9371      9372      9369      9375      9374
      9497      9495      9501      9499      9515      9513      9519      9517
      9551      9547      9554      9553      9554      9551      9557      9556
      9679      9677      9683      9681      9697      9695      9701      9699
      9733      9729      9736      9735      9736      9733      9739      9738
      9861      9859      9865      9863      9879      9877      9883      9881
      9915      9911      9918      9917      9918      9915      9921      9920
     10043     10041     10047     10045     10061     10059     10065     10063
     10097     10093     10100     10099     10100     10097     10103     10102
     10225     10223     10229     10227     10243     10241     10247     10245
     10279     10275     10282     10281     10282     10279     10285     10284
     10407     10405     10411     10409     10425     10423     10429     10427
     10461     10457     10464     10463     10464     10461     10467     10466
     10589     10587     10593     10591     10607     10605     10611     10609
     10643     10639     10646     10645     10646     10643     10649     10648
     10771     10769     10775     10773     10789     10787     10793     10791
     10825     10821     10828     10827     10828     10825     10831     10830
     10953     10951     10957     10955     10971     10969     10975     10973
     11007     11003     11010     11009     11010     11007     11013     11012
     11135     11133     11139     11137     11153     11151     11157     11155
     11189     11185     11192     11191     11192     11189     11195     11194
     11317     11315     11321     11319     11335     11333     11339     11337
     11371     11367     11374     11373     11374     11371     11377     11376
     11499     11497     11503     11501     11517     11515     11521     11519
     11553     11549     11556     11555     11556     11553     11559     11558
     11681     11679     11685     11683     11699     11697     11703     11701
     11735     11731     11738     11737     11738     11735     11741     11740
     11863     11861     11867     11865     11881     11879     11885     11883
     11917     11913     11920     11919     11920     11917     11923     11922
     12045     12043     12049     12047     12063     12061     12067     12065
     12099     12095     12102     12101     12102     12099     12105     12104
     12227     12225     12231     12229     12245     12243     12249     12247
     12281     12277     12284     12283     12284     12281     12287     12286
     12409     12407     12413     12411     12427     12425     12431     12429
     12463     12459     12466     12465     12466     12463     12469     12468
     12591     12589     12595     12593     12609     12607     12613     12611
     12645     12641     12648     12647     12648     12645     12651     12650
     12773     12771     12777     12775     12791     12789     12795     12793
     12827     12823     12830     12829     12830     12827     12833     12832
     12955     12953     12959     12957     12973     12971     12977     12975
     13009     13005     13012     13011     13012     13009     13015     13014
     13137     13135     13141     13139     13155     13153     13159     13157
     13191     13187     13194     13193     13194     13191     13197     13196
     13319     13317     13323     13321     13337     13335     13341     13339
     13373     13369     13376     13375     13376     13373     13379     13378
     13501     13499     13505     13503     13519     13517     13523     13521
     13555     13551     13558     13557     13558     13555     13561     13560
     13683     13681     13687     13685     13701     13699     13705     13703
     13737     13733     13740     13739     13740     13737     13743     13742
     13865     13863     13869     13867     13883     13881     13887     13885
     13919     13915     13922     13921     13922     13919     13925     13924
     14047     14045     14051     14049     14065     14063     14069     14067
     14101     14097     14104     14103     14104     14101     14107     14106
     14229     14227     14233     14231     14247     14245     14251     14249
     14283     14279     14286     14285     14286     14283     14289     14288
     14411     14409     14415     14413     14429     14427     14433     14431
     14465     14461     14468     14467     14468     14465     14471     14470
     14593     14591     14597     14595     14611     14609     14615     14613
     14647     14643     14650     14649     14650     14647     14653     14652
     14775     14773     14779     14777     14793     14791     14797     14795
     14829     14825     14832     14831     14832     14829     14835     14834
     14957     14955     14961     14959     14975     14973     14979     14977
     15011     15007     15014     15013     15014     15011     15017     15016
     15139     15137     15143     15141     15157     15155     15161     15159
     15193     15189     15196     15195     15196     15193     15199     15198
     15321     15319     15325     15323     15339     15337     15343     15341
     15375     15371     15378     15377     15378     15375     15381     15380
     15503     15501     15507     15505     15521     15519     15525     15523
     15557     15553     15560     15559     15560     15557     15563     15562
     15685     15683     15689     15687     15703     15701     15707     15705
     15739     15735     15742     15741     15742     15739     15745     15744
     15867     15865     15871     15869     15885     15883     15889     15887
     15921     15917     15924     15923     15924     15921     15927     15926
     16049     16047     16053     16051     16067     16065     16071     16069
     16103     16099     16106     16105     16106     16103     16109     16108
     16231     16229     16235     16233     16249     16247     16253     16251
     16285     16281     16288     16287     16288     16285     16291     16290
     16413     16411     16417     16415     16431     16429     16435     16433
     16467     16463     16470     16469     16470     16467     16473     16472
     16595     16593     16599     16597     16613     16611     16617     16615
     16649     16645     16652     16651     16652     16649     16655     16654
     16777     16775     16781     16779     16795     16793     16799     16797
     16831     16827     16834     16833     16834     16831     16837     16836
     16959     16957     16963     16961     16977     16975     16981     16979
     17013     17009     17016     17015     17016     17013     17019     17018
     17141     17139     17145     17143     17159     17157     17163     17161
     17195     17191     17198     17197     17198     17195     17201     17200
     17323     17321     17327     17325     17341     17339     17345     17343
     17377     17373     17380     17379     17380     17377     17383     17382
     17505     17503     17509     17507     17523     17521     17527     17525
     17559     17555     17562     17561     17562     17559     17565     17564
     17687     17685     17691     17689     17705     17703     17709     17707
     17741     17737     17744     17743     17744     17741     17747     17746
     17869     17867     17873     17871     17887     17885     17891     17889
     17923     17919     17926     17925     17926     17923     17929     17928
     18051     18049     18055     18053     18069     18067     18073     18071
     18105     18101     18108     18107     18108     18105     18111     18110
     18233     18231     18237     18235     18251     18249     18255     18253
     18287     18283     18290     18289     18290     18287     18293     18292
     18415     18413     18419     18417     18433     18431     18437     18435
     18469     18465     18472     18471     18472     18469     18475     18474
     18597     18595     18601     18599     18615     18613     18619     18617
     18651     18647     18654     18653     18654     18651     18657     18656
     18779     18777     18783     18781     18797     18795     18801     18799
     18833     18829     18836     18835     18836     18833     18839     18838
     18961     18959     18965     18963     18979     18977     18983     18981
     19015     19011     19018     19017     19018     19015     19021     19020
     19143     19141     19147     19145     19161     19159     19165     19163
     19197     19193     19200     19199     19200     19197     19203     19202
     19325     19323     19329     19327     19343     19341     19347     19345
     19379     19375     19382     19381     19382     19379     19385     19384
     19507     19505     19511     19509     19525     19523     19529     19527
     19561     19557     19564     19563     19564     19561     19567     19566
     19689     19687     19693     19691     19707     19705     19711     19709
     19743     19739     19746     19745     19746     19743     19749     19748
     19871     19869     19875     19873     19889     19887     19893     19891
     19925     19921     19928     19927     19928     19925     19931     19930
     20053     20051     20057     20055     20071     20069     20075     20073
     20107     20103     20110     20109     20110     20107     20113     20112
     20235     20233     20239     20237     20253     20251     20257     20255
     20289     20285     20292     20291     20292     20289     20295     20294
     20417     20415     20421     20419     20435     20433     20439     20437
     20471     20467     20474     20473     20474     20471     20477     20476
     20599     20597     20603     20601     20617     20615     20621     20619
     20653     20649     20656     20655     20656     20653     20659     20658
     20781     20779     20785     20783     20799     20797     20803     20801
     20835     20831     20838     20837     20838     20835     20841     20840
     20963     20961     20967     20965     20981     20979     20985     20983
     21017     21013     21020     21019     21020     21017     21023     21022
     21145     21143     21149     21147     21163     21161     21167     21165
     21199     21195     21202     21201     21202     21199     21205     21204
     21327     21325     21331     21329     21345     21343     21349     21347
     21381     21377     21384     21383     21384     21381     21387     21386
     21509     21507     21513     21511     21527     21525     21531     21529
     21563     21559     21566     21565     21566     21563     21569     21568
     21691     21689     21695     21693     21709     21707     21713     21711
     21745     21741     21748     21747     21748     21745     21751     21750
     21873     21871     21877     21875     21891     21889     21895     21893
     21927     21923     21930     21929     21930     21927     21933     21932
     22055     22053     22059     22057     22073     22071     22077     22075
     22109     22105     22112     22111     22112     22109     22115     22114
     22237     22235     22241     22239     22255     22253     22259     22257
     22291     22287     22294     22293     22294     22291     22297     22296
     22419     22417     22423     22421     22437     22435     22441     22439
     22473     22469     22476     22475     22476     22473     22479     22478
     22601     22599     22605     22603     22619     22617     22623     22621
     22655     22651     22658     22657     22658     22655     22661     22660
     22783     22781     22787     22785     22801     22799     22805     22803
     22837     22833     22840     22839     22840     22837     22843     22842
     22965     22963     22969     22967     22983     22981     22987     22985
     23019     23015     23022     23021     23022     23019     23025     23024
     23147     23145     23151     23149     23165     23163     23169     23167
     23201     23197     23204     23203     23204     23201     23207     23206
     23329     23327     23333     23331     23347     23345     23351     23349
     23383     23379     23386     23385     23386     23383     23389     23388
     23511     23509     23515     23513     23529     23527     23533     23531
     23565     23561     23568     23567     23568     23565     23571     23570
     23693     23691     23697     23695     23711     23709     23715     23713
     23747     23743     23750     23749     23750     23747     23753     23752
     23875     23873     23879     23877     23893     23891     23897     23895
     23929     23925     23932     23931     23932     23929     23935     23934
     24057     24055     24061     24059     24075     24073     24079     24077
     24111     24107     24114     24113     24114     24111     24117     24116
     24239     24237     24243     24241     24257     24255     24261     24259
     24293     24289     24296     24295     24296     24293     24299     24298
     24421     24419     24425     24423     24439     24437     24443     24441
     24475     24471     24478     24477     24478     24475     24481     24480
     24603     24601     24607     24605     24621     24619     24625     24623
     24657     24653     24660     24659     24660     24657     24663     24662
     24785     24783     24789     24787     24803     24801     24807     24805
     24839     24835     24842     24841     24842     24839     24845     24844
     24967     24965     24971     24969     24985     24983     24989     24987
     25021     25017     25024     25023     25024     25021     25027     25026
     25149     25147     25153     25151     25167     25165     25171     25169
     25203     25199     25206     25205     25206     25203     25209     25208
     25331     25329     25335     25333     25349     25347     25353     25351
     25385     25381     25388     25387     25388     25385     25391     25390
     25513     25511     25517     25515     25531     25529     25535     25533
     25567     25563     25570     25569     25570     25567     25573     25572
     25695     25693     25699     25697     25713     25711     25717     25715
     25749     25745     25752     25751     25752     25749     25755     25754
     25877     25875     25881     25879     25895     25893     25899     25897
     25931     25927     25934     25933     25934     25931     25937     25936
     26059     26057     26063     26061     26077     26075     26081     26079
     26113     26109     26116     26115     26116     26113     26119     26118

         0 !NDON: donors


      5040 !NACC: acceptors
     26209         0     26214         0     26219         0     26224         0
     26229         0     26234         0     26239         0     26244         0
     26249         0     26254         0     26259         0     26264         0
     26269         0     26274         0     26279         0     26284         0
     26289         0     26294         0     26299         0     26304         0
     26309         0     26314         0     26319         0     26324         0
     26329         0     26334         0     26339         0     26344         0
     26349         0     26354         0     26359         0     26364         0
     26369         0     26374         0     26379         0     26384         0
     26389         0     26394         0     26399         0     26404         0
     26409         0     26414         0     26419         0     26424         0
     26429         0     26434         0     26439         0     26444         0
     26449         0     26454         0     26459         0     26464         0
     26469         0     26474         0     26479         0     26484         0
     26489         0     26494         0     26499         0     26504         0
     26509         0     26514         0     26519         0     26524         0
     26529         0     26534         0     26539         0     26544         0
     26549         0     26554         0     26559         0     26564         0
     26569         0     26574         0     26579         0     26584         0
     26589         0     26594         0     26599         0     26604         0
     26609         0     26614         0     26619         0     26624         0
     26629         0     26634         0     26639         0     26644         0
     26649         0     26654         0     26659         0     26664         0
     26669         0     26674         0     26679         0     26684         0
     26689         0     26694         0     26699         0     26704         0
     26709         0     26714         0     26719         0     26724         0
     26729         0     26734         0     26739         0     26744         0
     26749         0     26754         0     26759         0     26764         0
     26769         0     26774         0     26779         0     26784         0
     26789         0     26794         0     26799         0     26804         0
     26809         0     26814         0     26819         0     26824         0
     26829         0     26834         0     26839         0     26844         0
     26849         0     26854         0     26859         0     26864         0
     26869         0     26874         0     26879         0     26884         0
     26889         0     26894         0     26899         0     26904         0
     26909         0     26914         0     26919         0     26924         0
     26929         0     26934         0     26939         0     26944         0
     26949         0     26954         0     26959         0     26964         0
     26969         0     26974         0     26979         0     26984         0
     26989         0     26994         0     26999         0     27004         0
     27009         0     27014         0     27019         0     27024         0
     27029         0     27034         0     27039         0     27044         0
     27049         0     27054         0     27059         0     27064         0
     27069         0     27074         0     27079         0     27084         0
     27089         0     27094         0     27099         0     27104         0
     27109         0     27114         0     27119         0     27124         0
     27129         0     27134         0     27139         0     27144         0
     27149         0     27154         0     27159         0     27164         0
     27169         0     27174         0     27179         0     27184         0
     27189         0     27194         0     27199         0     27204         0
     27209         0     27214         0     27219         0     27224         0
     27229         0     27234         0     27239         0     27244         0
     27249         0     27254         0     27259         0     27264         0
     27269         0     27274         0     27279         0     27284         0
     27289         0     27294         0     27299         0     27304         0
     27309         0     27314         0     27319         0     27324         0
     27329         0     27334         0     27339         0     27344         0
     27349         0     27354         0     27359         0     27364         0
     27369         0     27374         0     27379         0     27384         0
     27389         0     27394         0     27399         0     27404         0
     27409         0     27414         0     27419         0     27424         0
     27429         0     27434         0     27439         0     27444         0
     27449         0     27454         0     27459         0     27464         0
     27469         0     27474         0     27479         0     27484         0
     27489         0     27494         0     27499         0     27504         0
     27509         0     27514         0     27519         0     27524         0
     27529         0     27534         0     27539         0     27544         0
     27549         0     27554         0     27559         0     27564         0
     27569         0     27574         0     27579         0     27584         0
     27589         0     27594         0     27599         0     27604         0
     27609         0     27614         0     27619         0     27624         0
     27629         0     27634         0     27639         0     27644         0
     27649         0     27654         0     27659         0     27664         0
     27669         0     27674         0     27679         0     27684         0
     27689         0     27694         0     27699         0     27704         0
     27709         0     27714         0     27719         0     27724         0
     27729         0     27734         0     27739         0     27744         0
     27749         0     27754         0     27759         0     27764         0
     27769         0     27774         0     27779         0     27784         0
     27789         0     27794         0     27799         0     27804         0
     27809         0     27814         0     27819         0     27824         0
     27829         0     27834         0     27839         0     27844         0
     27849         0     27854         0     27859         0     27864         0
     27869         0     27874         0     27879         0     27884         0
     27889         0     27894         0     27899         0     27904         0
     27909         0     27914         0     27919         0     27924         0
     27929         0     27934         0     27939         0     27944         0
     27949         0     27954         0     27959         0     27964         0
     27969         0     27974         0     27979         0     27984         0
     27989         0     27994         0     27999         0     28004         0
     28009         0     28014         0     28019         0     28024         0
     28029         0     28034         0     28039         0     28044         0
     28049         0     28054         0     28059         0     28064         0
     28069         0     28074         0     28079         0     28084         0
     28089         0     28094         0     28099         0     28104         0
     28109         0     28114         0     28119         0     28124         0
     28129         0     28134         0     28139         0     28144         0
     28149         0     28154         0     28159         0     28164         0
     28169         0     28174         0     28179         0     28184         0
     28189         0     28194         0     28199         0     28204         0
     28209         0     28214         0     28219         0     28224         0
     28229         0     28234         0     28239         0     28244         0
     28249         0     28254         0     28259         0     28264         0
     28269         0     28274         0     28279         0     28284         0
     28289         0     28294         0     28299         0     28304         0
     28309         0     28314         0     28319         0     28324         0
     28329         0     28334         0     28339         0     28344         0
     28349         0     28354         0     28359         0     28364         0
     28369         0     28374         0     28379         0     28384         0
     28389         0     28394         0     28399         0     28404         0
     28409         0     28414         0     28419         0     28424         0
     28429         0     28434         0     28439         0     28444         0
     28449         0     28454         0     28459         0     28464         0
     28469         0     28474         0     28479         0     28484         0
     28489         0     28494         0     28499         0     28504         0
     28509         0     28514         0     28519         0     28524         0
     28529         0     28534         0     28539         0     28544         0
     28549         0     28554         0     28559         0     28564         0
     28569         0     28574         0     28579         0     28584         0
     28589         0     28594         0     28599         0     28604         0
     28609         0     28614         0     28619         0     28624         0
     28629         0     28634         0     28639         0     28644         0
     28649         0     28654         0     28659         0     28664         0
     28669         0     28674         0     28679         0     28684         0
     28689         0     28694         0     28699         0     28704         0
     28709         0     28714         0     28719         0     28724         0
     28729         0     28734         0     28739         0     28744         0
     28749         0     28754         0     28759         0     28764         0
     28769         0     28774         0     28779         0     28784         0
     28789         0     28794         0     28799         0     28804         0
     28809         0     28814         0     28819         0     28824         0
     28829         0     28834         0     28839         0     28844         0
     28849         0     28854         0     28859         0     28864         0
     28869         0     28874         0     28879         0     28884         0
     28889         0     28894         0     28899         0     28904         0
     28909         0     28914         0     28919         0     28924         0
     28929         0     28934         0     28939         0     28944         0
     28949         0     28954         0     28959         0     28964         0
     28969         0     28974         0     28979         0     28984         0
     28989         0     28994         0     28999         0     29004         0
     29009         0     29014         0     29019         0     29024         0
     29029         0     29034         0     29039         0     29044         0
     29049         0     29054         0     29059         0     29064         0
     29069         0     29074         0     29079         0     29084         0
     29089         0     29094         0     29099         0     29104         0
     29109         0     29114         0     29119         0     29124         0
     29129         0     29134         0     29139         0     29144         0
     29149         0     29154         0     29159         0     29164         0
     29169         0     29174         0     29179         0     29184         0
     29189         0     29194         0     29199         0     29204         0
     29209         0     29214         0     29219         0     29224         0
     29229         0     29234         0     29239         0     29244         0
     29249         0     29254         0     29259         0     29264         0
     29269         0     29274         0     29279         0     29284         0
     29289         0     29294         0     29299         0     29304         0
     29309         0     29314         0     29319         0     29324         0
     29329         0     29334         0     29339         0     29344         0
     29349         0     29354         0     29359         0     29364         0
     29369         0     29374         0     29379         0     29384         0
     29389         0     29394         0     29399         0     29404         0
     29409         0     29414         0     29419         0     29424         0
     29429         0     29434         0     29439         0     29444         0
     29449         0     29454         0     29459         0     29464         0
     29469         0     29474         0     29479         0     29484         0
     29489         0     29494         0     29499         0     29504         0
     29509         0     29514         0     29519         0     29524         0
     29529         0     29534         0     29539         0     29544         0
     29549         0     29554         0     29559         0     29564         0
     29569         0     29574         0     29579         0     29584         0
     29589         0     29594         0     29599         0     29604         0
     29609         0     29614         0     29619         0     29624         0
     29629         0     29634         0     29639         0     29644         0
     29649         0     29654         0     29659         0     29664         0
     29669         0     29674         0     29679         0     29684         0
     29689         0     29694         0     29699         0     29704         0
     29709         0     29714         0     29719         0     29724         0
     29729         0     29734         0     29739         0     29744         0
     29749         0     29754         0     29759         0     29764         0
     29769         0     29774         0     29779         0     29784         0
     29789         0     29794         0     29799         0     29804         0
     29809         0     29814         0     29819         0     29824         0
     29829         0     29834         0     29839         0     29844         0
     29849         0     29854         0     29859         0     29864         0
     29869         0     29874         0     29879         0     29884         0
     29889         0     29894         0     29899         0     29904         0
     29909         0     29914         0     29919         0     29924         0
     29929         0     29934         0     29939         0     29944         0
     29949         0     29954         0     29959         0     29964         0
     29969         0     29974         0     29979         0     29984         0
     29989         0     29994         0     29999         0     30004         0
     30009         0     30014         0     30019         0     30024         0
     30029         0     30034         0     30039         0     30044         0
     30049         0     30054         0     30059         0     30064         0
     30069         0     30074         0     30079         0     30084         0
     30089         0     30094         0     30099         0     30104         0
     30109         0     30114         0     30119         0     30124         0
     30129         0     30134         0     30139         0     30144         0
     30149         0     30154         0     30159         0     30164         0
     30169         0     30174         0     30179         0     30184         0
     30189         0     30194         0     30199         0     30204         0
     30209         0     30214         0     30219         0     30224         0
     30229         0     30234         0     30239         0     30244         0
     30249         0     30254         0     30259         0     30264         0
     30269         0     30274         0     30279         0     30284         0
     30289         0     30294         0     30299         0     30304         0
     30309         0     30314         0     30319         0     30324         0
     30329         0     30334         0     30339         0     30344         0
     30349         0     30354         0     30359         0     30364         0
     30369         0     30374         0     30379         0     30384         0
     30389         0     30394         0     30399         0     30404         0
     30409         0     30414         0     30419         0     30424         0
     30429         0     30434         0     30439         0     30444         0
     30449         0     30454         0     30459         0     30464         0
     30469         0     30474         0     30479         0     30484         0
     30489         0     30494         0     30499         0     30504         0
     30509         0     30514         0     30519         0     30524         0
     30529         0     30534         0     30539         0     30544         0
     30549         0     30554         0     30559         0     30564         0
     30569         0     30574         0     30579         0     30584         0
     30589         0     30594         0     30599         0     30604         0
     30609         0     30614         0     30619         0     30624         0
     30629         0     30634         0     30639         0     30644         0
     30649         0     30654         0     30659         0     30664         0
     30669         0     30674         0     30679         0     30684         0
     30689         0     30694         0     30699         0     30704         0
     30709         0     30714         0     30719         0     30724         0
     30729         0     30734         0     30739         0     30744         0
     30749         0     30754         0     30759         0     30764         0
     30769         0     30774         0     30779         0     30784         0
     30789         0     30794         0     30799         0     30804         0
     30809         0     30814         0     30819         0     30824         0
     30829         0     30834         0     30839         0     30844         0
     30849         0     30854         0     30859         0     30864         0
     30869         0     30874         0     30879         0     30884         0
     30889         0     30894         0     30899         0     30904         0
     30909         0     30914         0     30919         0     30924         0
     30929         0     30934         0     30939         0     30944         0
     30949         0     30954         0     30959         0     30964         0
     30969         0     30974         0     30979         0     30984         0
     30989         0     30994         0     30999         0     31004         0
     31009         0     31014         0     31019         0     31024         0
     31029         0     31034         0     31039         0     31044         0
     31049         0     31054         0     31059         0     31064         0
     31069         0     31074         0     31079         0     31084         0
     31089         0     31094         0     31099         0     31104         0
     31109         0     31114         0     31119         0     31124         0
     31129         0     31134         0     31139         0     31144         0
     31149         0     31154         0     31159         0     31164         0
     31169         0     31174         0     31179         0     31184         0
     31189         0     31194         0     31199         0     31204         0
     31209         0     31214         0     31219         0     31224         0
     31229         0     31234         0     31239         0     31244         0
     31249         0     31254         0     31259         0     31264         0
     31269         0     31274         0     31279         0     31284         0
     31289         0     31294         0     31299         0     31304         0
     31309         0     31314         0     31319         0     31324         0
     31329         0     31334         0     31339         0     31344         0
     31349         0     31354         0     31359         0     31364         0
     31369         0     31374         0     31379         0     31384         0
     31389         0     31394         0     31399         0     31404         0
     31409         0     31414         0     31419         0     31424         0
     31429         0     31434         0     31439         0     31444         0
     31449         0     31454         0     31459         0     31464         0
     31469         0     31474         0     31479         0     31484         0
     31489         0     31494         0     31499         0     31504         0
     31509         0     31514         0     31519         0     31524         0
     31529         0     31534         0     31539         0     31544         0
     31549         0     31554         0     31559         0     31564         0
     31569         0     31574         0     31579         0     31584         0
     31589         0     31594         0     31599         0     31604         0
     31609         0     31614         0     31619         0     31624         0
     31629         0     31634         0     31639         0     31644         0
     31649         0     31654         0     31659         0     31664         0
     31669         0     31674         0     31679         0     31684         0
     31689         0     31694         0     31699         0     31704         0
     31709         0     31714         0     31719         0     31724         0
     31729         0     31734         0     31739         0     31744         0
     31749         0     31754         0     31759         0     31764         0
     31769         0     31774         0     31779         0     31784         0
     31789         0     31794         0     31799         0     31804         0
     31809         0     31814         0     31819         0     31824         0
     31829         0     31834         0     31839         0     31844         0
     31849         0     31854         0     31859         0     31864         0
     31869         0     31874         0     31879         0     31884         0
     31889         0     31894         0     31899         0     31904         0
     31909         0     31914         0     31919         0     31924         0
     31929         0     31934         0     31939         0     31944         0
     31949         0     31954         0     31959         0     31964         0
     31969         0     31974         0     31979         0     31984         0
     31989         0     31994         0     31999         0     32004         0
     32009         0     32014         0     32019         0     32024         0
     32029         0     32034         0     32039         0     32044         0
     32049         0     32054         0     32059         0     32064         0
     32069         0     32074         0     32079         0     32084         0
     32089         0     32094         0     32099         0     32104         0
     32109         0     32114         0     32119         0     32124         0
     32129         0     32134         0     32139         0     32144         0
     32149         0     32154         0     32159         0     32164         0
     32169         0     32174         0     32179         0     32184         0
     32189         0     32194         0     32199         0     32204         0
     32209         0     32214         0     32219         0     32224         0
     32229         0     32234         0     32239         0     32244         0
     32249         0     32254         0     32259         0     32264         0
     32269         0     32274         0     32279         0     32284         0
     32289         0     32294         0     32299         0     32304         0
     32309         0     32314         0     32319         0     32324         0
     32329         0     32334         0     32339         0     32344         0
     32349         0     32354         0     32359         0     32364         0
     32369         0     32374         0     32379         0     32384         0
     32389         0     32394         0     32399         0     32404         0
     32409         0     32414         0     32419         0     32424         0
     32429         0     32434         0     32439         0     32444         0
     32449         0     32454         0     32459         0     32464         0
     32469         0     32474         0     32479         0     32484         0
     32489         0     32494         0     32499         0     32504         0
     32509         0     32514         0     32519         0     32524         0
     32529         0     32534         0     32539         0     32544         0
     32549         0     32554         0     32559         0     32564         0
     32569         0     32574         0     32579         0     32584         0
     32589         0     32594         0     32599         0     32604         0
     32609         0     32614         0     32619         0     32624         0
     32629         0     32634         0     32639         0     32644         0
     32649         0     32654         0     32659         0     32664         0
     32669         0     32674         0     32679         0     32684         0
     32689         0     32694         0     32699         0     32704         0
     32709         0     32714         0     32719         0     32724         0
     32729         0     32734         0     32739         0     32744         0
     32749         0     32754         0     32759         0     32764         0
     32769         0     32774         0     32779         0     32784         0
     32789         0     32794         0     32799         0     32804         0
     32809         0     32814         0     32819         0     32824         0
     32829         0     32834         0     32839         0     32844         0
     32849         0     32854         0     32859         0     32864         0
     32869         0     32874         0     32879         0     32884         0
     32889         0     32894         0     32899         0     32904         0
     32909         0     32914         0     32919         0     32924         0
     32929         0     32934         0     32939         0     32944         0
     32949         0     32954         0     32959         0     32964         0
     32969         0     32974         0     32979         0     32984         0
     32989         0     32994         0     32999         0     33004         0
     33009         0     33014         0     33019         0     33024         0
     33029         0     33034         0     33039         0     33044         0
     33049         0     33054         0     33059         0     33064         0
     33069         0     33074         0     33079         0     33084         0
     33089         0     33094         0     33099         0     33104         0
     33109         0     33114         0     33119         0     33124         0
     33129         0     33134         0     33139         0     33144         0
     33149         0     33154         0     33159         0     33164         0
     33169         0     33174         0     33179         0     33184         0
     33189         0     33194         0     33199         0     33204         0
     33209         0     33214         0     33219         0     33224         0
     33229         0     33234         0     33239         0     33244         0
     33249         0     33254         0     33259         0     33264         0
     33269         0     33274         0     33279         0     33284         0
     33289         0     33294         0     33299         0     33304         0
     33309         0     33314         0     33319         0     33324         0
     33329         0     33334         0     33339         0     33344         0
     33349         0     33354         0     33359         0     33364         0
     33369         0     33374         0     33379         0     33384         0
     33389         0     33394         0     33399         0     33404         0
     33409         0     33414         0     33419         0     33424         0
     33429         0     33434         0     33439         0     33444         0
     33449         0     33454         0     33459         0     33464         0
     33469         0     33474         0     33479         0     33484         0
     33489         0     33494         0     33499         0     33504         0
     33509         0     33514         0     33519         0     33524         0
     33529         0     33534         0     33539         0     33544         0
     33549         0     33554         0     33559         0     33564         0
     33569         0     33574         0     33579         0     33584         0
     33589         0     33594         0     33599         0     33604         0
     33609         0     33614         0     33619         0     33624         0
     33629         0     33634         0     33639         0     33644         0
     33649         0     33654         0     33659         0     33664         0
     33669         0     33674         0     33679         0     33684         0
     33689         0     33694         0     33699         0     33704         0
     33709         0     33714         0     33719         0     33724         0
     33729         0     33734         0     33739         0     33744         0
     33749         0     33754         0     33759         0     33764         0
     33769         0     33774         0     33779         0     33784         0
     33789         0     33794         0     33799         0     33804         0
     33809         0     33814         0     33819         0     33824         0
     33829         0     33834         0     33839         0     33844         0
     33849         0     33854         0     33859         0     33864         0
     33869         0     33874         0     33879         0     33884         0
     33889         0     33894         0     33899         0     33904         0
     33909         0     33914         0     33919         0     33924         0
     33929         0     33934         0     33939         0     33944         0
     33949         0     33954         0     33959         0     33964         0
     33969         0     33974         0     33979         0     33984         0
     33989         0     33994         0     33999         0     34004         0
     34009         0     34014         0     34019         0     34024         0
     34029         0     34034         0     34039         0     34044         0
     34049         0     34054         0     34059         0     34064         0
     34069         0     34074         0     34079         0     34084         0
     34089         0     34094         0     34099         0     34104         0
     34109         0     34114         0     34119         0     34124         0
     34129         0     34134         0     34139         0     34144         0
     34149         0     34154         0     34159         0     34164         0
     34169         0     34174         0     34179         0     34184         0
     34189         0     34194         0     34199         0     34204         0
     34209         0     34214         0     34219         0     34224         0
     34229         0     34234         0     34239         0     34244         0
     34249         0     34254         0     34259         0     34264         0
     34269         0     34274         0     34279         0     34284         0
     34289         0     34294         0     34299         0     34304         0
     34309         0     34314         0     34319         0     34324         0
     34329         0     34334         0     34339         0     34344         0
     34349         0     34354         0     34359         0     34364         0
     34369         0     34374         0     34379         0     34384         0
     34389         0     34394         0     34399         0     34404         0
     34409         0     34414         0     34419         0     34424         0
     34429         0     34434         0     34439         0     34444         0
     34449         0     34454         0     34459         0     34464         0
     34469         0     34474         0     34479         0     34484         0
     34489         0     34494         0     34499         0     34504         0
     34509         0     34514         0     34519         0     34524         0
     34529         0     34534         0     34539         0     34544         0
     34549         0     34554         0     34559         0     34564         0
     34569         0     34574         0     34579         0     34584         0
     34589         0     34594         0     34599         0     34604         0
     34609         0     34614         0     34619         0     34624         0
     34629         0     34634         0     34639         0     34644         0
     34649         0     34654         0     34659         0     34664         0
     34669         0     34674         0     34679         0     34684         0
     34689         0     34694         0     34699         0     34704         0
     34709         0     34714         0     34719         0     34724         0
     34729         0     34734         0     34739         0     34744         0
     34749         0     34754         0     34759         0     34764         0
     34769         0     34774         0     34779         0     34784         0
     34789         0     34794         0     34799         0     34804         0
     34809         0     34814         0     34819         0     34824         0
     34829         0     34834         0     34839         0     34844         0
     34849         0     34854         0     34859         0     34864         0
     34869         0     34874         0     34879         0     34884         0
     34889         0     34894         0     34899         0     34904         0
     34909         0     34914         0     34919         0     34924         0
     34929         0     34934         0     34939         0     34944         0
     34949         0     34954         0     34959         0     34964         0
     34969         0     34974         0     34979         0     34984         0
     34989         0     34994         0     34999         0     35004         0
     35009         0     35014         0     35019         0     35024         0
     35029         0     35034         0     35039         0     35044         0
     35049         0     35054         0     35059         0     35064         0
     35069         0     35074         0     35079         0     35084         0
     35089         0     35094         0     35099         0     35104         0
     35109         0     35114         0     35119         0     35124         0
     35129         0     35134         0     35139         0     35144         0
     35149         0     35154         0     35159         0     35164         0
     35169         0     35174         0     35179         0     35184         0
     35189         0     35194         0     35199         0     35204         0
     35209         0     35214         0     35219         0     35224         0
     35229         0     35234         0     35239         0     35244         0
     35249         0     35254         0     35259         0     35264         0
     35269         0     35274         0     35279         0     35284         0
     35289         0     35294         0     35299         0     35304         0
     35309         0     35314         0     35319         0     35324         0
     35329         0     35334         0     35339         0     35344         0
     35349         0     35354         0     35359         0     35364         0
     35369         0     35374         0     35379         0     35384         0
     35389         0     35394         0     35399         0     35404         0
     35409         0     35414         0     35419         0     35424         0
     35429         0     35434         0     35439         0     35444         0
     35449         0     35454         0     35459         0     35464         0
     35469         0     35474         0     35479         0     35484         0
     35489         0     35494         0     35499         0     35504         0
     35509         0     35514         0     35519         0     35524         0
     35529         0     35534         0     35539         0     35544         0
     35549         0     35554         0     35559         0     35564         0
     35569         0     35574         0     35579         0     35584         0
     35589         0     35594         0     35599         0     35604         0
     35609         0     35614         0     35619         0     35624         0
     35629         0     35634         0     35639         0     35644         0
     35649         0     35654         0     35659         0     35664         0
     35669         0     35674         0     35679         0     35684         0
     35689         0     35694         0     35699         0     35704         0
     35709         0     35714         0     35719         0     35724         0
     35729         0     35734         0     35739         0     35744         0
     35749         0     35754         0     35759         0     35764         0
     35769         0     35774         0     35779         0     35784         0
     35789         0     35794         0     35799         0     35804         0
     35809         0     35814         0     35819         0     35824         0
     35829         0     35834         0     35839         0     35844         0
     35849         0     35854         0     35859         0     35864         0
     35869         0     35874         0     35879         0     35884         0
     35889         0     35894         0     35899         0     35904         0
     35909         0     35914         0     35919         0     35924         0
     35929         0     35934         0     35939         0     35944         0
     35949         0     35954         0     35959         0     35964         0
     35969         0     35974         0     35979         0     35984         0
     35989         0     35994         0     35999         0     36004         0
     36009         0     36014         0     36019         0     36024         0
     36029         0     36034         0     36039         0     36044         0
     36049         0     36054         0     36059         0     36064         0
     36069         0     36074         0     36079         0     36084         0
     36089         0     36094         0     36099         0     36104         0
     36109         0     36114         0     36119         0     36124         0
     36129         0     36134         0     36139         0     36144         0
     36149         0     36154         0     36159         0     36164         0
     36169         0     36174         0     36179         0     36184         0
     36189         0     36194         0     36199         0     36204         0
     36209         0     36214         0     36219         0     36224         0
     36229         0     36234         0     36239         0     36244         0
     36249         0     36254         0     36259         0     36264         0
     36269         0     36274         0     36279         0     36284         0
     36289         0     36294         0     36299         0     36304         0
     36309         0     36314         0     36319         0     36324         0
     36329         0     36334         0     36339         0     36344         0
     36349         0     36354         0     36359         0     36364         0
     36369         0     36374         0     36379         0     36384         0
     36389         0     36394         0     36399         0     36404         0
     36409         0     36414         0     36419         0     36424         0
     36429         0     36434         0     36439         0     36444         0
     36449         0     36454         0     36459         0     36464         0
     36469         0     36474         0     36479         0     36484         0
     36489         0     36494         0     36499         0     36504         0
     36509         0     36514         0     36519         0     36524         0
     36529         0     36534         0     36539         0     36544         0
     36549         0     36554         0     36559         0     36564         0
     36569         0     36574         0     36579         0     36584         0
     36589         0     36594         0     36599         0     36604         0
     36609         0     36614         0     36619         0     36624         0
     36629         0     36634         0     36639         0     36644         0
     36649         0     36654         0     36659         0     36664         0
     36669         0     36674         0     36679         0     36684         0
     36689         0     36694         0     36699         0     36704         0
     36709         0     36714         0     36719         0     36724         0
     36729         0     36734         0     36739         0     36744         0
     36749         0     36754         0     36759         0     36764         0
     36769         0     36774         0     36779         0     36784         0
     36789         0     36794         0     36799         0     36804         0
     36809         0     36814         0     36819         0     36824         0
     36829         0     36834         0     36839         0     36844         0
     36849         0     36854         0     36859         0     36864         0
     36869         0     36874         0     36879         0     36884         0
     36889         0     36894         0     36899         0     36904         0
     36909         0     36914         0     36919         0     36924         0
     36929         0     36934         0     36939         0     36944         0
     36949         0     36954         0     36959         0     36964         0
     36969         0     36974         0     36979         0     36984         0
     36989         0     36994         0     36999         0     37004         0
     37009         0     37014         0     37019         0     37024         0
     37029         0     37034         0     37039         0     37044         0
     37049         0     37054         0     37059         0     37064         0
     37069         0     37074         0     37079         0     37084         0
     37089         0     37094         0     37099         0     37104         0
     37109         0     37114         0     37119         0     37124         0
     37129         0     37134         0     37139         0     37144         0
     37149         0     37154         0     37159         0     37164         0
     37169         0     37174         0     37179         0     37184         0
     37189         0     37194         0     37199         0     37204         0
     37209         0     37214         0     37219         0     37224         0
     37229         0     37234         0     37239         0     37244         0
     37249         0     37254         0     37259         0     37264         0
     37269         0     37274         0     37279         0     37284         0
     37289         0     37294         0     37299         0     37304         0
     37309         0     37314         0     37319         0     37324         0
     37329         0     37334         0     37339         0     37344         0
     37349         0     37354         0     37359         0     37364         0
     37369         0     37374         0     37379         0     37384         0
     37389         0     37394         0     37399         0     37404         0
     37409         0     37414         0     37419         0     37424         0
     37429         0     37434         0     37439         0     37444         0
     37449         0     37454         0     37459         0     37464         0
     37469         0     37474         0     37479         0     37484         0
     37489         0     37494         0     37499         0     37504         0
     37509         0     37514         0     37519         0     37524         0
     37529         0     37534         0     37539         0     37544         0
     37549         0     37554         0     37559         0     37564         0
     37569         0     37574         0     37579         0     37584         0
     37589         0     37594         0     37599         0     37604         0
     37609         0     37614         0     37619         0     37624         0
     37629         0     37634         0     37639         0     37644         0
     37649         0     37654         0     37659         0     37664         0
     37669         0     37674         0     37679         0     37684         0
     37689         0     37694         0     37699         0     37704         0
     37709         0     37714         0     37719         0     37724         0
     37729         0     37734         0     37739         0     37744         0
     37749         0     37754         0     37759         0     37764         0
     37769         0     37774         0     37779         0     37784         0
     37789         0     37794         0     37799         0     37804         0
     37809         0     37814         0     37819         0     37824         0
     37829         0     37834         0     37839         0     37844         0
     37849         0     37854         0     37859         0     37864         0
     37869         0     37874         0     37879         0     37884         0
     37889         0     37894         0     37899         0     37904         0
     37909         0     37914         0     37919         0     37924         0
     37929         0     37934         0     37939         0     37944         0
     37949         0     37954         0     37959         0     37964         0
     37969         0     37974         0     37979         0     37984         0
     37989         0     37994         0     37999         0     38004         0
     38009         0     38014         0     38019         0     38024         0
     38029         0     38034         0     38039         0     38044         0
     38049         0     38054         0     38059         0     38064         0
     38069         0     38074         0     38079         0     38084         0
     38089         0     38094         0     38099         0     38104         0
     38109         0     38114         0     38119         0     38124         0
     38129         0     38134         0     38139         0     38144         0
     38149         0     38154         0     38159         0     38164         0
     38169         0     38174         0     38179         0     38184         0
     38189         0     38194         0     38199         0     38204         0
     38209         0     38214         0     38219         0     38224         0
     38229         0     38234         0     38239         0     38244         0
     38249         0     38254         0     38259         0     38264         0
     38269         0     38274         0     38279         0     38284         0
     38289         0     38294         0     38299         0     38304         0
     38309         0     38314         0     38319         0     38324         0
     38329         0     38334         0     38339         0     38344         0
     38349         0     38354         0     38359         0     38364         0
     38369         0     38374         0     38379         0     38384         0
     38389         0     38394         0     38399         0     38404         0
     38409         0     38414         0     38419         0     38424         0
     38429         0     38434         0     38439         0     38444         0
     38449         0     38454         0     38459         0     38464         0
     38469         0     38474         0     38479         0     38484         0
     38489         0     38494         0     38499         0     38504         0
     38509         0     38514         0     38519         0     38524         0
     38529         0     38534         0     38539         0     38544         0
     38549         0     38554         0     38559         0     38564         0
     38569         0     38574         0     38579         0     38584         0
     38589         0     38594         0     38599         0     38604         0
     38609         0     38614         0     38619         0     38624         0
     38629         0     38634         0     38639         0     38644         0
     38649         0     38654         0     38659         0     38664         0
     38669         0     38674         0     38679         0     38684         0
     38689         0     38694         0     38699         0     38704         0
     38709         0     38714         0     38719         0     38724         0
     38729         0     38734         0     38739         0     38744         0
     38749         0     38754         0     38759         0     38764         0
     38769         0     38774         0     38779         0     38784         0
     38789         0     38794         0     38799         0     38804         0
     38809         0     38814         0     38819         0     38824         0
     38829         0     38834         0     38839         0     38844         0
     38849         0     38854         0     38859         0     38864         0
     38869         0     38874         0     38879         0     38884         0
     38889         0     38894         0     38899         0     38904         0
     38909         0     38914         0     38919         0     38924         0
     38929         0     38934         0     38939         0     38944         0
     38949         0     38954         0     38959         0     38964         0
     38969         0     38974         0     38979         0     38984         0
     38989         0     38994         0     38999         0     39004         0
     39009         0     39014         0     39019         0     39024         0
     39029         0     39034         0     39039         0     39044         0
     39049         0     39054         0     39059         0     39064         0
     39069         0     39074         0     39079         0     39084         0
     39089         0     39094         0     39099         0     39104         0
     39109         0     39114         0     39119         0     39124         0
     39129         0     39134         0     39139         0     39144         0
     39149         0     39154         0     39159         0     39164         0
     39169         0     39174         0     39179         0     39184         0
     39189         0     39194         0     39199         0     39204         0
     39209         0     39214         0     39219         0     39224         0
     39229         0     39234         0     39239         0     39244         0
     39249         0     39254         0     39259         0     39264         0
     39269         0     39274         0     39279         0     39284         0
     39289         0     39294         0     39299         0     39304         0
     39309         0     39314         0     39319         0     39324         0
     39329         0     39334         0     39339         0     39344         0
     39349         0     39354         0     39359         0     39364         0
     39369         0     39374         0     39379         0     39384         0
     39389         0     39394         0     39399         0     39404         0
     39409         0     39414         0     39419         0     39424         0
     39429         0     39434         0     39439         0     39444         0
     39449         0     39454         0     39459         0     39464         0
     39469         0     39474         0     39479         0     39484         0
     39489         0     39494         0     39499         0     39504         0
     39509         0     39514         0     39519         0     39524         0
     39529         0     39534         0     39539         0     39544         0
     39549         0     39554         0     39559         0     39564         0
     39569         0     39574         0     39579         0     39584         0
     39589         0     39594         0     39599         0     39604         0
     39609         0     39614         0     39619         0     39624         0
     39629         0     39634         0     39639         0     39644         0
     39649         0     39654         0     39659         0     39664         0
     39669         0     39674         0     39679         0     39684         0
     39689         0     39694         0     39699         0     39704         0
     39709         0     39714         0     39719         0     39724         0
     39729         0     39734         0     39739         0     39744         0
     39749         0     39754         0     39759         0     39764         0
     39769         0     39774         0     39779         0     39784         0
     39789         0     39794         0     39799         0     39804         0
     39809         0     39814         0     39819         0     39824         0
     39829         0     39834         0     39839         0     39844         0
     39849         0     39854         0     39859         0     39864         0
     39869         0     39874         0     39879         0     39884         0
     39889         0     39894         0     39899         0     39904         0
     39909         0     39914         0     39919         0     39924         0
     39929         0     39934         0     39939         0     39944         0
     39949         0     39954         0     39959         0     39964         0
     39969         0     39974         0     39979         0     39984         0
     39989         0     39994         0     39999         0     40004         0
     40009         0     40014         0     40019         0     40024         0
     40029         0     40034         0     40039         0     40044         0
     40049         0     40054         0     40059         0     40064         0
     40069         0     40074         0     40079         0     40084         0
     40089         0     40094         0     40099         0     40104         0
     40109         0     40114         0     40119         0     40124         0
     40129         0     40134         0     40139         0     40144         0
     40149         0     40154         0     40159         0     40164         0
     40169         0     40174         0     40179         0     40184         0
     40189         0     40194         0     40199         0     40204         0
     40209         0     40214         0     40219         0     40224         0
     40229         0     40234         0     40239         0     40244         0
     40249         0     40254         0     40259         0     40264         0
     40269         0     40274         0     40279         0     40284         0
     40289         0     40294         0     40299         0     40304         0
     40309         0     40314         0     40319         0     40324         0
     40329         0     40334         0     40339         0     40344         0
     40349         0     40354         0     40359         0     40364         0
     40369         0     40374         0     40379         0     40384         0
     40389         0     40394         0     40399         0     40404         0
     40409         0     40414         0     40419         0     40424         0
     40429         0     40434         0     40439         0     40444         0
     40449         0     40454         0     40459         0     40464         0
     40469         0     40474         0     40479         0     40484         0
     40489         0     40494         0     40499         0     40504         0
     40509         0     40514         0     40519         0     40524         0
     40529         0     40534         0     40539         0     40544         0
     40549         0     40554         0     40559         0     40564         0
     40569         0     40574         0     40579         0     40584         0
     40589         0     40594         0     40599         0     40604         0
     40609         0     40614         0     40619         0     40624         0
     40629         0     40634         0     40639         0     40644         0
     40649         0     40654         0     40659         0     40664         0
     40669         0     40674         0     40679         0     40684         0
     40689         0     40694         0     40699         0     40704         0
     40709         0     40714         0     40719         0     40724         0
     40729         0     40734         0     40739         0     40744         0
     40749         0     40754         0     40759         0     40764         0
     40769         0     40774         0     40779         0     40784         0
     40789         0     40794         0     40799         0     40804         0
     40809         0     40814         0     40819         0     40824         0
     40829         0     40834         0     40839         0     40844         0
     40849         0     40854         0     40859         0     40864         0
     40869         0     40874         0     40879         0     40884         0
     40889         0     40894         0     40899         0     40904         0
     40909         0     40914         0     40919         0     40924         0
     40929         0     40934         0     40939         0     40944         0
     40949         0     40954         0     40959         0     40964         0
     40969         0     40974         0     40979         0     40984         0
     40989         0     40994         0     40999         0     41004         0
     41009         0     41014         0     41019         0     41024         0
     41029         0     41034         0     41039         0     41044         0
     41049         0     41054         0     41059         0     41064         0
     41069         0     41074         0     41079         0     41084         0
     41089         0     41094         0     41099         0     41104         0
     41109         0     41114         0     41119         0     41124         0
     41129         0     41134         0     41139         0     41144         0
     41149         0     41154         0     41159         0     41164         0
     41169         0     41174         0     41179         0     41184         0
     41189         0     41194         0     41199         0     41204         0
     41209         0     41214         0     41219         0     41224         0
     41229         0     41234         0     41239         0     41244         0
     41249         0     41254         0     41259         0     41264         0
     41269         0     41274         0     41279         0     41284         0
     41289         0     41294         0     41299         0     41304         0
     41309         0     41314         0     41319         0     41324         0
     41329         0     41334         0     41339         0     41344         0
     41349         0     41354         0     41359         0     41364         0
     41369         0     41374         0     41379         0     41384         0
     41389         0     41394         0     41399         0     41404         0
     41409         0     41414         0     41419         0     41424         0
     41429         0     41434         0     41439         0     41444         0
     41449         0     41454         0     41459         0     41464         0
     41469         0     41474         0     41479         0     41484         0
     41489         0     41494         0     41499         0     41504         0
     41509         0     41514         0     41519         0     41524         0
     41529         0     41534         0     41539         0     41544         0
     41549         0     41554         0     41559         0     41564         0
     41569         0     41574         0     41579         0     41584         0
     41589         0     41594         0     41599         0     41604         0
     41609         0     41614         0     41619         0     41624         0
     41629         0     41634         0     41639         0     41644         0
     41649         0     41654         0     41659         0     41664         0
     41669         0     41674         0     41679         0     41684         0
     41689         0     41694         0     41699         0     41704         0
     41709         0     41714         0     41719         0     41724         0
     41729         0     41734         0     41739         0     41744         0
     41749         0     41754         0     41759         0     41764         0
     41769         0     41774         0     41779         0     41784         0
     41789         0     41794         0     41799         0     41804         0
     41809         0     41814         0     41819         0     41824         0
     41829         0     41834         0     41839         0     41844         0
     41849         0     41854         0     41859         0     41864         0
     41869         0     41874         0     41879         0     41884         0
     41889         0     41894         0     41899         0     41904         0
     41909         0     41914         0     41919         0     41924         0
     41929         0     41934         0     41939         0     41944         0
     41949         0     41954         0     41959         0     41964         0
     41969         0     41974         0     41979         0     41984         0
     41989         0     41994         0     41999         0     42004         0
     42009         0     42014         0     42019         0     42024         0
     42029         0     42034         0     42039         0     42044         0
     42049         0     42054         0     42059         0     42064         0
     42069         0     42074         0     42079         0     42084         0
     42089         0     42094         0     42099         0     42104         0
     42109         0     42114         0     42119         0     42124         0
     42129         0     42134         0     42139         0     42144         0
     42149         0     42154         0     42159         0     42164         0
     42169         0     42174         0     42179         0     42184         0
     42189         0     42194         0     42199         0     42204         0
     42209         0     42214         0     42219         0     42224         0
     42229         0     42234         0     42239         0     42244         0
     42249         0     42254         0     42259         0     42264         0
     42269         0     42274         0     42279         0     42284         0
     42289         0     42294         0     42299         0     42304         0
     42309         0     42314         0     42319         0     42324         0
     42329         0     42334         0     42339         0     42344         0
     42349         0     42354         0     42359         0     42364         0
     42369         0     42374         0     42379         0     42384         0
     42389         0     42394         0     42399         0     42404         0
     42409         0     42414         0     42419         0     42424         0
     42429         0     42434         0     42439         0     42444         0
     42449         0     42454         0     42459         0     42464         0
     42469         0     42474         0     42479         0     42484         0
     42489         0     42494         0     42499         0     42504         0
     42509         0     42514         0     42519         0     42524         0
     42529         0     42534         0     42539         0     42544         0
     42549         0     42554         0     42559         0     42564         0
     42569         0     42574         0     42579         0     42584         0
     42589         0     42594         0     42599         0     42604         0
     42609         0     42614         0     42619         0     42624         0
     42629         0     42634         0     42639         0     42644         0
     42649         0     42654         0     42659         0     42664         0
     42669         0     42674         0     42679         0     42684         0
     42689         0     42694         0     42699         0     42704         0
     42709         0     42714         0     42719         0     42724         0
     42729         0     42734         0     42739         0     42744         0
     42749         0     42754         0     42759         0     42764         0
     42769         0     42774         0     42779         0     42784         0
     42789         0     42794         0     42799         0     42804         0
     42809         0     42814         0     42819         0     42824         0
     42829         0     42834         0     42839         0     42844         0
     42849         0     42854         0     42859         0     42864         0
     42869         0     42874         0     42879         0     42884         0
     42889         0     42894         0     42899         0     42904         0
     42909         0     42914         0     42919         0     42924         0
     42929         0     42934         0     42939         0     42944         0
     42949         0     42954         0     42959         0     42964         0
     42969         0     42974         0     42979         0     42984         0
     42989         0     42994         0     42999         0     43004         0
     43009         0     43014         0     43019         0     43024         0
     43029         0     43034         0     43039         0     43044         0
     43049         0     43054         0     43059         0     43064         0
     43069         0     43074         0     43079         0     43084         0
     43089         0     43094         0     43099         0     43104         0
     43109         0     43114         0     43119         0     43124         0
     43129         0     43134         0     43139         0     43144         0
     43149         0     43154         0     43159         0     43164         0
     43169         0     43174         0     43179         0     43184         0
     43189         0     43194         0     43199         0     43204         0
     43209         0     43214         0     43219         0     43224         0
     43229         0     43234         0     43239         0     43244         0
     43249         0     43254         0     43259         0     43264         0
     43269         0     43274         0     43279         0     43284         0
     43289         0     43294         0     43299         0     43304         0
     43309         0     43314         0     43319         0     43324         0
     43329         0     43334         0     43339         0     43344         0
     43349         0     43354         0     43359         0     43364         0
     43369         0     43374         0     43379         0     43384         0
     43389         0     43394         0     43399         0     43404         0
     43409         0     43414         0     43419         0     43424         0
     43429         0     43434         0     43439         0     43444         0
     43449         0     43454         0     43459         0     43464         0
     43469         0     43474         0     43479         0     43484         0
     43489         0     43494         0     43499         0     43504         0
     43509         0     43514         0     43519         0     43524         0
     43529         0     43534         0     43539         0     43544         0
     43549         0     43554         0     43559         0     43564         0
     43569         0     43574         0     43579         0     43584         0
     43589         0     43594         0     43599         0     43604         0
     43609         0     43614         0     43619         0     43624         0
     43629         0     43634         0     43639         0     43644         0
     43649         0     43654         0     43659         0     43664         0
     43669         0     43674         0     43679         0     43684         0
     43689         0     43694         0     43699         0     43704         0
     43709         0     43714         0     43719         0     43724         0
     43729         0     43734         0     43739         0     43744         0
     43749         0     43754         0     43759         0     43764         0
     43769         0     43774         0     43779         0     43784         0
     43789         0     43794         0     43799         0     43804         0
     43809         0     43814         0     43819         0     43824         0
     43829         0     43834         0     43839         0     43844         0
     43849         0     43854         0     43859         0     43864         0
     43869         0     43874         0     43879         0     43884         0
     43889         0     43894         0     43899         0     43904         0
     43909         0     43914         0     43919         0     43924         0
     43929         0     43934         0     43939         0     43944         0
     43949         0     43954         0     43959         0     43964         0
     43969         0     43974         0     43979         0     43984         0
     43989         0     43994         0     43999         0     44004         0
     44009         0     44014         0     44019         0     44024         0
     44029         0     44034         0     44039         0     44044         0
     44049         0     44054         0     44059         0     44064         0
     44069         0     44074         0     44079         0     44084         0
     44089         0     44094         0     44099         0     44104         0
     44109         0     44114         0     44119         0     44124         0
     44129         0     44134         0     44139         0     44144         0
     44149         0     44154         0     44159         0     44164         0
     44169         0     44174         0     44179         0     44184         0
     44189         0     44194         0     44199         0     44204         0
     44209         0     44214         0     44219         0     44224         0
     44229         0     44234         0     44239         0     44244         0
     44249         0     44254         0     44259         0     44264         0
     44269         0     44274         0     44279         0     44284         0
     44289         0     44294         0     44299         0     44304         0
     44309         0     44314         0     44319         0     44324         0
     44329         0     44334         0     44339         0     44344         0
     44349         0     44354         0     44359         0     44364         0
     44369         0     44374         0     44379         0     44384         0
     44389         0     44394         0     44399         0     44404         0
     44409         0     44414         0     44419         0     44424         0
     44429         0     44434         0     44439         0     44444         0
     44449         0     44454         0     44459         0     44464         0
     44469         0     44474         0     44479         0     44484         0
     44489         0     44494         0     44499         0     44504         0
     44509         0     44514         0     44519         0     44524         0
     44529         0     44534         0     44539         0     44544         0
     44549         0     44554         0     44559         0     44564         0
     44569         0     44574         0     44579         0     44584         0
     44589         0     44594         0     44599         0     44604         0
     44609         0     44614         0     44619         0     44624         0
     44629         0     44634         0     44639         0     44644         0
     44649         0     44654         0     44659         0     44664         0
     44669         0     44674         0     44679         0     44684         0
     44689         0     44694         0     44699         0     44704         0
     44709         0     44714         0     44719         0     44724         0
     44729         0     44734         0     44739         0     44744         0
     44749         0     44754         0     44759         0     44764         0
     44769         0     44774         0     44779         0     44784         0
     44789         0     44794         0     44799         0     44804         0
     44809         0     44814         0     44819         0     44824         0
     44829         0     44834         0     44839         0     44844         0
     44849         0     44854         0     44859         0     44864         0
     44869         0     44874         0     44879         0     44884         0
     44889         0     44894         0     44899         0     44904         0
     44909         0     44914         0     44919         0     44924         0
     44929         0     44934         0     44939         0     44944         0
     44949         0     44954         0     44959         0     44964         0
     44969         0     44974         0     44979         0     44984         0
     44989         0     44994         0     44999         0     45004         0
     45009         0     45014         0     45019         0     45024         0
     45029         0     45034         0     45039         0     45044         0
     45049         0     45054         0     45059         0     45064         0
     45069         0     45074         0     45079         0     45084         0
     45089         0     45094         0     45099         0     45104         0
     45109         0     45114         0     45119         0     45124         0
     45129         0     45134         0     45139         0     45144         0
     45149         0     45154         0     45159         0     45164         0
     45169         0     45174         0     45179         0     45184         0
     45189         0     45194         0     45199         0     45204         0
     45209         0     45214         0     45219         0     45224         0
     45229         0     45234         0     45239         0     45244         0
     45249         0     45254         0     45259         0     45264         0
     45269         0     45274         0     45279         0     45284         0
     45289         0     45294         0     45299         0     45304         0
     45309         0     45314         0     45319         0     45324         0
     45329         0     45334         0     45339         0     45344         0
     45349         0     45354         0     45359         0     45364         0
     45369         0     45374         0     45379         0     45384         0
     45389         0     45394         0     45399         0     45404         0
     45409         0     45414         0     45419         0     45424         0
     45429         0     45434         0     45439         0     45444         0
     45449         0     45454         0     45459         0     45464         0
     45469         0     45474         0     45479         0     45484         0
     45489         0     45494         0     45499         0     45504         0
     45509         0     45514         0     45519         0     45524         0
     45529         0     45534         0     45539         0     45544         0
     45549         0     45554         0     45559         0     45564         0
     45569         0     45574         0     45579         0     45584         0
     45589         0     45594         0     45599         0     45604         0
     45609         0     45614         0     45619         0     45624         0
     45629         0     45634         0     45639         0     45644         0
     45649         0     45654         0     45659         0     45664         0
     45669         0     45674         0     45679         0     45684         0
     45689         0     45694         0     45699         0     45704         0
     45709         0     45714         0     45719         0     45724         0
     45729         0     45734         0     45739         0     45744         0
     45749         0     45754         0     45759         0     45764         0
     45769         0     45774         0     45779         0     45784         0
     45789         0     45794         0     45799         0     45804         0
     45809         0     45814         0     45819         0     45824         0
     45829         0     45834         0     45839         0     45844         0
     45849         0     45854         0     45859         0     45864         0
     45869         0     45874         0     45879         0     45884         0
     45889         0     45894         0     45899         0     45904         0
     45909         0     45914         0     45919         0     45924         0
     45929         0     45934         0     45939         0     45944         0
     45949         0     45954         0     45959         0     45964         0
     45969         0     45974         0     45979         0     45984         0
     45989         0     45994         0     45999         0     46004         0
     46009         0     46014         0     46019         0     46024         0
     46029         0     46034         0     46039         0     46044         0
     46049         0     46054         0     46059         0     46064         0
     46069         0     46074         0     46079         0     46084         0
     46089         0     46094         0     46099         0     46104         0
     46109         0     46114         0     46119         0     46124         0
     46129         0     46134         0     46139         0     46144         0
     46149         0     46154         0     46159         0     46164         0
     46169         0     46174         0     46179         0     46184         0
     46189         0     46194         0     46199         0     46204         0
     46209         0     46214         0     46219         0     46224         0
     46229         0     46234         0     46239         0     46244         0
     46249         0     46254         0     46259         0     46264         0
     46269         0     46274         0     46279         0     46284         0
     46289         0     46294         0     46299         0     46304         0
     46309         0     46314         0     46319         0     46324         0
     46329         0     46334         0     46339         0     46344         0
     46349         0     46354         0     46359         0     46364         0
     46369         0     46374         0     46379         0     46384         0
     46389         0     46394         0     46399         0     46404         0
     46409         0     46414         0     46419         0     46424         0
     46429         0     46434         0     46439         0     46444         0
     46449         0     46454         0     46459         0     46464         0
     46469         0     46474         0     46479         0     46484         0
     46489         0     46494         0     46499         0     46504         0
     46509         0     46514         0     46519         0     46524         0
     46529         0     46534         0     46539         0     46544         0
     46549         0     46554         0     46559         0     46564         0
     46569         0     46574         0     46579         0     46584         0
     46589         0     46594         0     46599         0     46604         0
     46609         0     46614         0     46619         0     46624         0
     46629         0     46634         0     46639         0     46644         0
     46649         0     46654         0     46659         0     46664         0
     46669         0     46674         0     46679         0     46684         0
     46689         0     46694         0     46699         0     46704         0
     46709         0     46714         0     46719         0     46724         0
     46729         0     46734         0     46739         0     46744         0
     46749         0     46754         0     46759         0     46764         0
     46769         0     46774         0     46779         0     46784         0
     46789         0     46794         0     46799         0     46804         0
     46809         0     46814         0     46819         0     46824         0
     46829         0     46834         0     46839         0     46844         0
     46849         0     46854         0     46859         0     46864         0
     46869         0     46874         0     46879         0     46884         0
     46889         0     46894         0     46899         0     46904         0
     46909         0     46914         0     46919         0     46924         0
     46929         0     46934         0     46939         0     46944         0
     46949         0     46954         0     46959         0     46964         0
     46969         0     46974         0     46979         0     46984         0
     46989         0     46994         0     46999         0     47004         0
     47009         0     47014         0     47019         0     47024         0
     47029         0     47034         0     47039         0     47044         0
     47049         0     47054         0     47059         0     47064         0
     47069         0     47074         0     47079         0     47084         0
     47089         0     47094         0     47099         0     47104         0
     47109         0     47114         0     47119         0     47124         0
     47129         0     47134         0     47139         0     47144         0
     47149         0     47154         0     47159         0     47164         0
     47169         0     47174         0     47179         0     47184         0
     47189         0     47194         0     47199         0     47204         0
     47209         0     47214         0     47219         0     47224         0
     47229         0     47234         0     47239         0     47244         0
     47249         0     47254         0     47259         0     47264         0
     47269         0     47274         0     47279         0     47284         0
     47289         0     47294         0     47299         0     47304         0
     47309         0     47314         0     47319         0     47324         0
     47329         0     47334         0     47339         0     47344         0
     47349         0     47354         0     47359         0     47364         0
     47369         0     47374         0     47379         0     47384         0
     47389         0     47394         0     47399         0     47404         0
     47409         0     47414         0     47419         0     47424         0
     47429         0     47434         0     47439         0     47444         0
     47449         0     47454         0     47459         0     47464         0
     47469         0     47474         0     47479         0     47484         0
     47489         0     47494         0     47499         0     47504         0
     47509         0     47514         0     47519         0     47524         0
     47529         0     47534         0     47539         0     47544         0
     47549         0     47554         0     47559         0     47564         0
     47569         0     47574         0     47579         0     47584         0
     47589         0     47594         0     47599         0     47604         0
     47609         0     47614         0     47619         0     47624         0
     47629         0     47634         0     47639         0     47644         0
     47649         0     47654         0     47659         0     47664         0
     47669         0     47674         0     47679         0     47684         0
     47689         0     47694         0     47699         0     47704         0
     47709         0     47714         0     47719         0     47724         0
     47729         0     47734         0     47739         0     47744         0
     47749         0     47754         0     47759         0     47764         0
     47769         0     47774         0     47779         0     47784         0
     47789         0     47794         0     47799         0     47804         0
     47809         0     47814         0     47819         0     47824         0
     47829         0     47834         0     47839         0     47844         0
     47849         0     47854         0     47859         0     47864         0
     47869         0     47874         0     47879         0     47884         0
     47889         0     47894         0     47899         0     47904         0
     47909         0     47914         0     47919         0     47924         0
     47929         0     47934         0     47939         0     47944         0
     47949         0     47954         0     47959         0     47964         0
     47969         0     47974         0     47979         0     47984         0
     47989         0     47994         0     47999         0     48004         0
     48009         0     48014         0     48019         0     48024         0
     48029         0     48034         0     48039         0     48044         0
     48049         0     48054         0     48059         0     48064         0
     48069         0     48074         0     48079         0     48084         0
     48089         0     48094         0     48099         0     48104         0
     48109         0     48114         0     48119         0     48124         0
     48129         0     48134         0     48139         0     48144         0
     48149         0     48154         0     48159         0     48164         0
     48169         0     48174         0     48179         0     48184         0
     48189         0     48194         0     48199         0     48204         0
     48209         0     48214         0     48219         0     48224         0
     48229         0     48234         0     48239         0     48244         0
     48249         0     48254         0     48259         0     48264         0
     48269         0     48274         0     48279         0     48284         0
     48289         0     48294         0     48299         0     48304         0
     48309         0     48314         0     48319         0     48324         0
     48329         0     48334         0     48339         0     48344         0
     48349         0     48354         0     48359         0     48364         0
     48369         0     48374         0     48379         0     48384         0
     48389         0     48394         0     48399         0     48404         0
     48409         0     48414         0     48419         0     48424         0
     48429         0     48434         0     48439         0     48444         0
     48449         0     48454         0     48459         0     48464         0
     48469         0     48474         0     48479         0     48484         0
     48489         0     48494         0     48499         0     48504         0
     48509         0     48514         0     48519         0     48524         0
     48529         0     48534         0     48539         0     48544         0
     48549         0     48554         0     48559         0     48564         0
     48569         0     48574         0     48579         0     48584         0
     48589         0     48594         0     48599         0     48604         0
     48609         0     48614         0     48619         0     48624         0
     48629         0     48634         0     48639         0     48644         0
     48649         0     48654         0     48659         0     48664         0
     48669         0     48674         0     48679         0     48684         0
     48689         0     48694         0     48699         0     48704         0
     48709         0     48714         0     48719         0     48724         0
     48729         0     48734         0     48739         0     48744         0
     48749         0     48754         0     48759         0     48764         0
     48769         0     48774         0     48779         0     48784         0
     48789         0     48794         0     48799         0     48804         0
     48809         0     48814         0     48819         0     48824         0
     48829         0     48834         0     48839         0     48844         0
     48849         0     48854         0     48859         0     48864         0
     48869         0     48874         0     48879         0     48884         0
     48889         0     48894         0     48899         0     48904         0
     48909         0     48914         0     48919         0     48924         0
     48929         0     48934         0     48939         0     48944         0
     48949         0     48954         0     48959         0     48964         0
     48969         0     48974         0     48979         0     48984         0
     48989         0     48994         0     48999         0     49004         0
     49009         0     49014         0     49019         0     49024         0
     49029         0     49034         0     49039         0     49044         0
     49049         0     49054         0     49059         0     49064         0
     49069         0     49074         0     49079         0     49084         0
     49089         0     49094         0     49099         0     49104         0
     49109         0     49114         0     49119         0     49124         0
     49129         0     49134         0     49139         0     49144         0
     49149         0     49154         0     49159         0     49164         0
     49169         0     49174         0     49179         0     49184         0
     49189         0     49194         0     49199         0     49204         0
     49209         0     49214         0     49219         0     49224         0
     49229         0     49234         0     49239         0     49244         0
     49249         0     49254         0     49259         0     49264         0
     49269         0     49274         0     49279         0     49284         0
     49289         0     49294         0     49299         0     49304         0
     49309         0     49314         0     49319         0     49324         0
     49329         0     49334         0     49339         0     49344         0
     49349         0     49354         0     49359         0     49364         0
     49369         0     49374         0     49379         0     49384         0
     49389         0     49394         0     49399         0     49404         0
     49409         0     49414         0     49419         0     49424         0
     49429         0     49434         0     49439         0     49444         0
     49449         0     49454         0     49459         0     49464         0
     49469         0     49474         0     49479         0     49484         0
     49489         0     49494         0     49499         0     49504         0
     49509         0     49514         0     49519         0     49524         0
     49529         0     49534         0     49539         0     49544         0
     49549         0     49554         0     49559         0     49564         0
     49569         0     49574         0     49579         0     49584         0
     49589         0     49594         0     49599         0     49604         0
     49609         0     49614         0     49619         0     49624         0
     49629         0     49634         0     49639         0     49644         0
     49649         0     49654         0     49659         0     49664         0
     49669         0     49674         0     49679         0     49684         0
     49689         0     49694         0     49699         0     49704         0
     49709         0     49714         0     49719         0     49724         0
     49729         0     49734         0     49739         0     49744         0
     49749         0     49754         0     49759         0     49764         0
     49769         0     49774         0     49779         0     49784         0
     49789         0     49794         0     49799         0     49804         0
     49809         0     49814         0     49819         0     49824         0
     49829         0     49834         0     49839         0     49844         0
     49849         0     49854         0     49859         0     49864         0
     49869         0     49874         0     49879         0     49884         0
     49889         0     49894         0     49899         0     49904         0
     49909         0     49914         0     49919         0     49924         0
     49929         0     49934         0     49939         0     49944         0
     49949         0     49954         0     49959         0     49964         0
     49969         0     49974         0     49979         0     49984         0
     49989         0     49994         0     49999         0     50004         0
     50009         0     50014         0     50019         0     50024         0
     50029         0     50034         0     50039         0     50044         0
     50049         0     50054         0     50059         0     50064         0
     50069         0     50074         0     50079         0     50084         0
     50089         0     50094         0     50099         0     50104         0
     50109         0     50114         0     50119         0     50124         0
     50129         0     50134         0     50139         0     50144         0
     50149         0     50154         0     50159         0     50164         0
     50169         0     50174         0     50179         0     50184         0
     50189         0     50194         0     50199         0     50204         0
     50209         0     50214         0     50219         0     50224         0
     50229         0     50234         0     50239         0     50244         0
     50249         0     50254         0     50259         0     50264         0
     50269         0     50274         0     50279         0     50284         0
     50289         0     50294         0     50299         0     50304         0
     50309         0     50314         0     50319         0     50324         0
     50329         0     50334         0     50339         0     50344         0
     50349         0     50354         0     50359         0     50364         0
     50369         0     50374         0     50379         0     50384         0
     50389         0     50394         0     50399         0     50404         0
     50409         0     50414         0     50419         0     50424         0
     50429         0     50434         0     50439         0     50444         0
     50449         0     50454         0     50459         0     50464         0
     50469         0     50474         0     50479         0     50484         0
     50489         0     50494         0     50499         0     50504         0
     50509         0     50514         0     50519         0     50524         0
     50529         0     50534         0     50539         0     50544         0
     50549         0     50554         0     50559         0     50564         0
     50569         0     50574         0     50579         0     50584         0
     50589         0     50594         0     50599         0     50604         0
     50609         0     50614         0     50619         0     50624         0
     50629         0     50634         0     50639         0     50644         0
     50649         0     50654         0     50659         0     50664         0
     50669         0     50674         0     50679         0     50684         0
     50689         0     50694         0     50699         0     50704         0
     50709         0     50714         0     50719         0     50724         0
     50729         0     50734         0     50739         0     50744         0
     50749         0     50754         0     50759         0     50764         0
     50769         0     50774         0     50779         0     50784         0
     50789         0     50794         0     50799         0     50804         0
     50809         0     50814         0     50819         0     50824         0
     50829         0     50834         0     50839         0     50844         0
     50849         0     50854         0     50859         0     50864         0
     50869         0     50874         0     50879         0     50884         0
     50889         0     50894         0     50899         0     50904         0
     50909         0     50914         0     50919         0     50924         0
     50929         0     50934         0     50939         0     50944         0
     50949         0     50954         0     50959         0     50964         0
     50969         0     50974         0     50979         0     50984         0
     50989         0     50994         0     50999         0     51004         0
     51009         0     51014         0     51019         0     51024         0
     51029         0     51034         0     51039         0     51044         0
     51049         0     51054         0     51059         0     51064         0
     51069         0     51074         0     51079         0     51084         0
     51089         0     51094         0     51099         0     51104         0
     51109         0     51114         0     51119         0     51124         0
     51129         0     51134         0     51139         0     51144         0
     51149         0     51154         0     51159         0     51164         0
     51169         0     51174         0     51179         0     51184         0
     51189         0     51194         0     51199         0     51204         0
     51209         0     51214         0     51219         0     51224         0
     51229         0     51234         0     51239         0     51244         0
     51249         0     51254         0     51259         0     51264         0
     51269         0     51274         0     51279         0     51284         0
     51289         0     51294         0     51299         0     51304         0
     51309         0     51314         0     51319         0     51324         0
     51329         0     51334         0     51339         0     51344         0
     51349         0     51354         0     51359         0     51364         0
     51369         0     51374         0     51379         0     51384         0
     51389         0     51394         0     51399         0     51404         0

         0 !NNB

         0         0         0         0         0         0         0         0
         0         0         0         0         0         0         0         0
         0         0         0         0         0         0         0         0
         0         0         0         0         0         0         0         0
         0         0         0         0         0         0         0         0
         0         0         0         0         0         0         0         0
         0         0         0         0         0         0         0         0
         0         0         0         0         0         0         0         0
         0         0         0         0         0         0         0         0
         0         0         0         0         0         0         0         0
         0         0         0         0         0         0         0         0
         0         0         0         0         0         0         0         0
         0         0         0         0         0         0         0         0
         0         0         0         0         0         0         0         0
         0         0         0         0         0         0         0         0
         0         0         0         0         0         0         0         0
         0         0         0         0         0         0         0         0
         0         0         0         0         0         0         0         0
         0         0         0         0         0         0         0         0
         0         0         0         0         0         0         0         0
         0         0         0         0         0         0         0         0
         0         0         0         0         0         0         0         0
         0         0         0         0         0         0         0         0
         0         0         0         0         0         0         0         0
         0         0         0         0         0         0         0         0
         0         0         0         0         0         0         0         0
         0         0         0         0         0         0         0         0
         0         0         0         0         0         0         0         0
         0         0         0         0         0         0         0         0
         0         0         0         0         0         0         0         0
         0         0         0         0         0         0         0         0
         0         0         0         0         0         0         0         0
         0         0         0         0         0         0         0         0
         0         0         0         0         0         0         0         0
         0         0         0         0         0         0         0         0
         0         0         0         0         0         0         0         0
         0         0         0         0         0         0         0         0
         0         0         0         0         0         0         0         0
         0         0         0         0         0         0         0         0
         0         0         0         0         0         0         0         0
         0         0         0         0         0         0         0         0
         0         0         0         0         0         0         0         0
         0         0         0         0         0         0         0         0
         0         0         0         0         0         0         0         0
         0         0         0         0         0         0         0         0
         0         0         0         0         0         0         0         0
         0         0         0         0         0         0         0         0
         0         0         0         0         0         0         0         0
         0         0         0         0         0         0         0         0
         0         0         0         0         0         0         0         0
         0         0         0         0         0         0         0         0
         0         0         0         0         0         0         0         0
         0         0         0         0         0         0         0         0
         0         0         0         0         0         0         0         0
         0         0         0         0         0         0         0         0
         0         0         0         0         0         0         0         0
         0         0         0         0         0         0         0         0
         0         0         0         0         0         0         0         0
         0         0         0         0         0         0         0         0
         0         0         0         0         0         0         0         0
         0         0         0         0         0         0         0         0
         0         0         0         0         0         0         0         0
         0         0         0         0         0         0         0         0
         0         0         0         0         0         0         0         0
         0         0         0         0         0         0         0         0
         0         0         0         0         0         0         0         0
         0         0         0         0         0         0         0         0
         0         0         0         0         0         0         0         0
         0         0         0         0         0         0         0         0
         0         0         0         0         0         0         0         0
         0         0         0         0         0         0         0         0
         0         0         0         0         0         0         0         0
         0         0         0         0         0         0         0         0
         0         0         0         0         0         0         0         0
         0         0         0         0         0         0         0         0
         0         0         0         0         0         0         0         0
         0         0         0         0         0         0         0         0
         0         0         0         0         0         0         0         0
         0         0         0         0         0         0         0         0
         0         0         0         0         0         0         0         0
         0         0         0         0         0         0         0         0
         0         0         0         0         0         0         0         0
         0         0         0         0         0         0         0         0
         0         0         0         0         0         0         0         0
         0         0         0         0         0         0         0         0
         0         0         0         0         0         0         0         0
         0         0         0         0         0         0         0         0
         0         0         0         0         0         0         0         0
         0         0         0         0         0         0         0         0
         0         0         0         0         0         0         0         0
         0         0         0         0         0         0         0         0
         0         0         0         0         0         0         0         0
         0         0         0         0         0         0         0         0
         0         0         0         0         0         0         0         0
         0         0         0         0         0         0         0         0
         0         0         0         0         0         0         0         0
         0         0         0         0         0         0         0         0
         0         0         0         0         0         0         0         0
         0         0         0         0         0         0         0         0
         0         0         0         0         0         0         0         0
         0         0         0         0         0         0         0         0
         0         0         0         0         0         0         0         0
         0         0         0         0         0         0         0         0
         0         0         0         0         0         0         0         0
         0         0         0         0         0         0         0         0
         0         0         0         0         0         0         0         0
         0         0         0         0         0         0         0         0
         0         0         0         0         0         0         0         0
         0         0         0         0         0         0         0         0
         0         0         0         0         0         0         0         0
         0         0         0         0         0         0         0         0
         0         0         0         0         0         0         0         0
         0         0         0         0         0         0         0         0
         0         0         0         0         0         0         0         0
         0         0         0         0         0         0         0         0
         0         0         0         0         0         0         0         0
         0         0         0         0         0         0         0         0
         0         0         0         0         0         0         0         0
         0         0         0         0         0         0         0         0
         0         0         0         0         0         0         0         0
         0         0         0         0         0         0         0         0
         0         0         0         0         0         0         0         0
         0         0         0         0         0         0         0         0
         0         0         0         0         0         0         0         0
         0         0         0         0         0         0         0         0
         0         0         0         0         0         0         0         0
         0         0         0         0         0         0         0         0
         0         0         0         0         0         0         0         0
         0         0         0         0         0         0         0         0
         0         0         0         0         0         0         0         0
         0         0         0         0         0         0         0         0
         0         0         0         0         0         0         0         0
         0         0         0         0         0         0         0         0
         0         0         0         0         0         0         0         0
         0         0         0         0         0         0         0         0
         0         0         0         0         0         0         0         0
         0         0         0         0         0         0         0         0
         0         0         0         0         0         0         0         0
         0         0         0         0         0         0         0         0
         0         0         0         0         0         0         0         0
         0         0         0         0         0         0         0         0
         0         0         0         0         0         0         0         0
         0         0         0         0         0         0         0         0
         0         0         0         0         0         0         0         0
         0         0         0         0         0         0         0         0
         0         0         0         0         0         0         0         0
         0         0         0         0         0         0         0         0
         0         0         0         0         0         0         0         0
         0         0         0         0         0         0         0         0
         0         0         0         0         0         0         0         0
         0         0         0         0         0         0         0         0
         0         0         0         0         0         0         0         0
         0         0         0         0         0         0         0         0
         0         0         0         0         0         0         0         0
         0         0         0         0         0         0         0         0
         0         0         0         0         0         0         0         0
         0         0         0         0         0         0         0         0
         0         0         0         0         0         0         0         0
         0         0         0         0         0         0         0         0
         0         0         0         0         0         0         0         0
         0         0         0         0         0         0         0         0
         0         0         0         0         0         0         0         0
         0         0         0         0         0         0         0         0
         0         0         0         0         0         0         0         0
         0         0         0         0         0         0         0         0
         0         0         0         0         0         0         0         0
         0         0         0         0         0         0         0         0
         0         0         0         0         0         0         0         0
         0         0         0         0         0         0         0         0
         0         0         0         0         0         0         0         0
         0         0         0         0         0         0         0         0
         0         0         0         0         0         0         0         0
         0         0         0         0         0         0         0         0
         0         0         0         0         0         0         0         0
         0         0         0         0         0         0         0         0
         0         0         0         0         0         0         0         0
         0         0         0         0         0         0         0         0
         0         0         0         0         0         0         0         0
         0         0         0         0         0         0         0         0
         0         0         0         0         0         0         0         0
         0         0         0         0         0         0         0         0
         0         0         0         0         0         0         0         0
         0         0         0         0         0         0         0         0
         0         0         0         0         0         0         0         0
         0         0         0         0         0         0         0         0
         0         0         0         0         0         0         0         0
         0         0         0         0         0         0         0         0
         0         0         0         0         0         0         0         0
         0         0         0         0         0         0         0         0
         0         0         0         0         0         0         0         0
         0         0         0         0         0         0         0         0
         0         0         0         0         0         0         0         0
         0         0         0         0         0         0         0         0
         0         0         0         0         0         0         0         0
         0         0         0         0         0         0         0         0
         0         0         0         0         0         0         0         0
         0         0         0         0         0         0         0         0
         0         0         0         0         0         0         0         0
         0         0         0         0         0         0         0         0
         0         0         0         0         0         0         0         0
         0         0         0         0         0         0         0         0
         0         0         0         0         0         0         0         0
         0         0         0         0         0         0         0         0
         0         0         0         0         0         0         0         0
         0         0         0         0         0         0         0         0
         0         0         0         0         0         0         0         0
         0         0         0         0         0         0         0         0
         0         0         0         0         0         0         0         0
         0         0         0         0         0         0         0         0
         0         0         0         0         0         0         0         0
         0         0         0         0         0         0         0         0
         0         0         0         0         0         0         0         0
         0         0         0         0         0         0         0         0
         0         0         0         0         0         0         0         0
         0         0         0         0         0         0         0         0
         0         0         0         0         0         0         0         0
         0         0         0         0         0         0         0         0
         0         0         0         0         0         0         0         0
         0         0         0         0         0         0         0         0
         0         0         0         0         0         0         0         0
         0         0         0         0         0         0         0         0
         0         0         0         0         0         0         0         0
         0         0         0         0         0         0         0         0
         0         0         0         0         0         0         0         0
         0         0         0         0         0         0         0         0
         0         0         0         0         0         0         0         0
         0         0         0         0         0         0         0         0
         0         0         0         0         0         0         0         0
         0         0         0         0         0         0         0         0
         0         0         0         0         0         0         0         0
         0         0         0         0         0         0         0         0
         0         0         0         0         0         0         0         0
         0         0         0         0         0         0         0         0
         0         0         0         0         0         0         0         0
         0         0         0         0         0         0         0         0
         0         0         0         0         0         0         0         0
         0         0         0         0         0         0         0         0
         0         0         0         0         0         0         0         0
         0         0         0         0         0         0         0         0
         0         0         0         0         0         0         0         0
         0         0         0         0         0         0         0         0
         0         0         0         0         0         0         0         0
         0         0         0         0         0         0         0         0
         0         0         0         0         0         0         0         0
         0         0         0         0         0         0         0         0
         0         0         0         0         0         0         0         0
         0         0         0         0         0         0         0         0
         0         0         0         0         0         0         0         0
         0         0         0         0         0         0         0         0
         0         0         0         0         0         0         0         0
         0         0         0         0         0         0         0         0
         0         0         0         0         0         0         0         0
         0         0         0         0         0         0         0         0
         0         0         0         0         0         0         0         0
         0         0         0         0         0         0         0         0
         0         0         0         0         0         0         0         0
         0         0         0         0         0         0         0         0
         0         0         0         0         0         0         0         0
         0         0         0         0         0         0         0         0
         0         0         0         0         0         0         0         0
         0         0         0         0         0         0         0         0
         0         0         0         0         0         0         0         0
         0         0         0         0         0         0         0         0
         0         0         0         0         0         0         0         0
         0         0         0         0         0         0         0         0
         0         0         0         0         0         0         0         0
         0         0         0         0         0         0         0         0
         0         0         0         0         0         0         0         0
         0         0         0         0         0         0         0         0
         0         0         0         0         0         0         0         0
         0         0         0         0         0         0         0         0
         0         0         0         0         0         0         0         0
         0         0         0         0         0         0         0         0
         0         0         0         0         0         0         0         0
         0         0         0         0         0         0         0         0
         0         0         0         0         0         0         0         0
         0         0         0         0         0         0         0         0
         0         0         0         0         0         0         0         0
         0         0         0         0         0         0         0         0
         0         0         0         0         0         0         0         0
         0         0         0         0         0         0         0         0
         0         0         0         0         0         0         0         0
         0         0         0         0         0         0         0         0
         0         0         0         0         0         0         0         0
         0         0         0         0         0         0         0         0
         0         0         0         0         0         0         0         0
         0         0         0         0         0         0         0         0
         0         0         0         0         0         0         0         0
         0         0         0         0         0         0         0         0
         0         0         0         0         0         0         0         0
         0         0         0         0         0         0         0         0
         0         0         0         0         0         0         0         0
         0         0         0         0         0         0         0         0
         0         0         0         0         0         0         0         0
         0         0         0         0         0         0         0         0
         0         0         0         0         0         0         0         0
         0         0         0         0         0         0         0         0
         0         0         0         0         0         0         0         0
         0         0         0         0         0         0         0         0
         0         0         0         0         0         0         0         0
         0         0         0         0         0         0         0         0
         0         0         0         0         0         0         0         0
         0         0         0         0         0         0         0         0
         0         0         0         0         0         0         0         0
         0         0         0         0         0         0         0         0
         0         0         0         0         0         0         0         0
         0         0         0         0         0         0         0         0
         0         0         0         0         0         0         0         0
         0         0         0         0         0         0         0         0
         0         0         0         0         0         0         0         0
         0         0         0         0         0         0         0         0
         0         0         0         0         0         0         0         0
         0         0         0         0         0         0         0         0
         0         0         0         0         0         0         0         0
         0         0         0         0         0         0         0         0
         0         0         0         0         0         0         0         0
         0         0         0         0         0         0         0         0
         0         0         0         0         0         0         0         0
         0         0         0         0         0         0         0         0
         0         0         0         0         0         0         0         0
         0         0         0         0         0         0         0         0
         0         0         0         0         0         0         0         0
         0         0         0         0         0         0         0         0
         0         0         0         0         0         0         0         0
         0         0         0         0         0         0         0         0
         0         0         0         0         0         0         0         0
         0         0         0         0         0         0         0         0
         0         0         0         0         0         0         0         0
         0         0         0         0         0         0         0         0
         0         0         0         0         0         0         0         0
         0         0         0         0         0         0         0         0
         0         0         0         0         0         0         0         0
         0         0         0         0         0         0         0         0
         0         0         0         0         0         0         0         0
         0         0         0         0         0         0         0         0
         0         0         0         0         0         0         0         0
         0         0         0         0         0         0         0         0
         0         0         0         0         0         0         0         0
         0         0         0         0         0         0         0         0
         0         0         0         0         0         0         0         0
         0         0         0         0         0         0         0         0
         0         0         0         0         0         0         0         0
         0         0         0         0         0         0         0         0
         0         0         0         0         0         0         0         0
         0         0         0         0         0         0         0         0
         0         0         0         0         0         0         0         0
         0         0         0         0         0         0         0         0
         0         0         0         0         0         0         0         0
         0         0         0         0         0         0         0         0
         0         0         0         0         0         0         0         0
         0         0         0         0         0         0         0         0
         0         0         0         0         0         0         0         0
         0         0         0         0         0         0         0         0
         0         0         0         0         0         0         0         0
         0         0         0         0         0         0         0         0
         0         0         0         0         0         0         0         0
         0         0         0         0         0         0         0         0
         0         0         0         0         0         0         0         0
         0         0         0         0         0         0         0         0
         0         0         0         0         0         0         0         0
         0         0         0         0         0         0         0         0
         0         0         0         0         0         0         0         0
         0         0         0         0         0         0         0         0
         0         0         0         0         0         0         0         0
         0         0         0         0         0         0         0         0
         0         0         0         0         0         0         0         0
         0         0         0         0         0         0         0         0
         0         0         0         0         0         0         0         0
         0         0         0         0         0         0         0         0
         0         0         0         0         0         0         0         0
         0         0         0         0         0         0         0         0
         0         0         0         0         0         0         0         0
         0         0         0         0         0         0         0         0
         0         0         0         0         0         0         0         0
         0         0         0         0         0         0         0         0
         0         0         0         0         0         0         0         0
         0         0         0         0         0         0         0         0
         0         0         0         0         0         0         0         0
         0         0         0         0         0         0         0         0
         0         0         0         0         0         0         0         0
         0         0         0         0         0         0         0         0
         0         0         0         0         0         0         0         0
         0         0         0         0         0         0         0         0
         0         0         0         0         0         0         0         0
         0         0         0         0         0         0         0         0
         0         0         0         0         0         0         0         0
         0         0         0         0         0         0         0         0
         0         0         0         0         0         0         0         0
         0         0         0         0         0         0         0         0
         0         0         0         0         0         0         0         0
         0         0         0         0         0         0         0         0
         0         0         0         0         0         0         0         0
         0         0         0         0         0         0         0         0
         0         0         0         0         0         0         0         0
         0         0         0         0         0         0         0         0
         0         0         0         0         0         0         0         0
         0         0         0         0         0         0         0         0
         0         0         0         0         0         0         0         0
         0         0         0         0         0         0         0         0
         0         0         0         0         0         0         0         0
         0         0         0         0         0         0         0         0
         0         0         0         0         0         0         0         0
         0         0         0         0         0         0         0         0
         0         0         0         0         0         0         0         0
         0         0         0         0         0         0         0         0
         0         0         0         0         0         0         0         0
         0         0         0         0         0         0         0         0
         0         0         0         0         0         0         0         0
         0         0         0         0         0         0         0         0
         0         0         0         0         0         0         0         0
         0         0         0         0         0         0         0         0
         0         0         0         0         0         0         0         0
         0         0         0         0         0         0         0         0
         0         0         0         0         0         0         0         0
         0         0         0         0         0         0         0         0
         0         0         0         0         0         0         0         0
         0         0         0         0         0         0         0         0
         0         0         0         0         0         0         0         0
         0         0         0         0         0         0         0         0
         0         0         0         0         0         0         0         0
         0         0         0         0         0         0         0         0
         0         0         0         0         0         0         0         0
         0         0         0         0         0         0         0         0
         0         0         0         0         0         0         0         0
         0         0         0         0         0         0         0         0
         0         0         0         0         0         0         0         0
         0         0         0         0         0         0         0         0
         0         0         0         0         0         0         0         0
         0         0         0         0         0         0         0         0
         0         0         0         0         0         0         0         0
         0         0         0         0         0         0         0         0
         0         0         0         0         0         0         0         0
         0         0         0         0         0         0         0         0
         0         0         0         0         0         0         0         0
         0         0         0         0         0         0         0         0
         0         0         0         0         0         0         0         0
         0         0         0         0         0         0         0         0
         0         0         0         0         0         0         0         0
         0         0         0         0         0         0         0         0
         0         0         0         0         0         0         0         0
         0         0         0         0         0         0         0         0
         0         0         0         0         0         0         0         0
         0         0         0         0         0         0         0         0
         0         0         0         0         0         0         0         0
         0         0         0         0         0         0         0         0
         0         0         0         0         0         0         0         0
         0         0         0         0         0         0         0         0
         0         0         0         0         0         0         0         0
         0         0         0         0         0         0         0         0
         0         0         0         0         0         0         0         0
         0         0         0         0         0         0         0         0
         0         0         0         0         0         0         0         0
         0         0         0         0         0         0         0         0
         0         0         0         0         0         0         0         0
         0         0         0         0         0         0         0         0
         0         0         0         0         0         0         0         0
         0         0         0         0         0         0         0         0
         0         0         0         0         0         0         0         0
         0         0         0         0         0         0         0         0
         0         0         0         0         0         0         0         0
         0         0         0         0         0         0         0         0
         0         0         0         0         0         0         0         0
         0         0         0         0         0         0         0         0
         0         0         0         0         0         0         0         0
         0         0         0         0         0         0         0         0
         0         0         0         0         0         0         0         0
         0         0         0         0         0         0         0         0
         0         0         0         0         0         0         0         0
         0         0         0         0         0         0         0         0
         0         0         0         0         0         0         0         0
         0         0         0         0         0         0         0         0
         0         0         0         0         0         0         0         0
         0         0         0         0         0         0         0         0
         0         0         0         0         0         0         0         0
         0         0         0         0         0         0         0         0
         0         0         0         0         0         0         0         0
         0         0         0         0         0         0         0         0
         0         0         0         0         0         0         0         0
         0         0         0         0         0         0         0         0
         0         0         0         0         0         0         0         0
         0         0         0         0         0         0         0         0
         0         0         0         0         0         0         0         0
         0         0         0         0         0         0         0         0
         0         0         0         0         0         0         0         0
         0         0         0         0         0         0         0         0
         0         0         0         0         0         0         0         0
         0         0         0         0         0         0         0         0
         0         0         0         0         0         0         0         0
         0         0         0         0         0         0         0         0
         0         0         0         0         0         0         0         0
         0         0         0         0         0         0         0         0
         0         0         0         0         0         0         0         0
         0         0         0         0         0         0         0         0
         0         0         0         0         0         0         0         0
         0         0         0         0         0         0         0         0
         0         0         0         0         0         0         0         0
         0         0         0         0         0         0         0         0
         0         0         0         0         0         0         0         0
         0         0         0         0         0         0         0         0
         0         0         0         0         0         0         0         0
         0         0         0         0         0         0         0         0
         0         0         0         0         0         0         0         0
         0         0         0         0         0         0         0         0
         0         0         0         0         0         0         0         0
         0         0         0         0         0         0         0         0
         0         0         0         0         0         0         0         0
         0         0         0         0         0         0         0         0
         0         0         0         0         0         0         0         0
         0         0         0         0         0         0         0         0
         0         0         0         0         0         0         0         0
         0         0         0         0         0         0         0         0
         0         0         0         0         0         0         0         0
         0         0         0         0         0         0         0         0
         0         0         0         0         0         0         0         0
         0         0         0         0         0         0         0         0
         0         0         0         0         0         0         0         0
         0         0         0         0         0         0         0         0
         0         0         0         0         0         0         0         0
         0         0         0         0         0         0         0         0
         0         0         0         0         0         0         0         0
         0         0         0         0         0         0         0         0
         0         0         0         0         0         0         0         0
         0         0         0         0         0         0         0         0
         0         0         0         0         0         0         0         0
         0         0         0         0         0         0         0         0
         0         0         0         0         0         0         0         0
         0         0         0         0         0         0         0         0
         0         0         0         0         0         0         0         0
         0         0         0         0         0         0         0         0
         0         0         0         0         0         0         0         0
         0         0         0         0         0         0         0         0
         0         0         0         0         0         0         0         0
         0         0         0         0         0         0         0         0
         0         0         0         0         0         0         0         0
         0         0         0         0         0         0         0         0
         0         0         0         0         0         0         0         0
         0         0         0         0         0         0         0         0
         0         0         0         0         0         0         0         0
         0         0         0         0         0         0         0         0
         0         0         0         0         0         0         0         0
         0         0         0         0         0         0         0         0
         0         0         0         0         0         0         0         0
         0         0         0         0         0         0         0         0
         0         0         0         0         0         0         0         0
         0         0         0         0         0         0         0         0
         0         0         0         0         0         0         0         0
         0         0         0         0         0         0         0         0
         0         0         0         0         0         0         0         0
         0         0         0         0         0         0         0         0
         0         0         0         0         0         0         0         0
         0         0         0         0         0         0         0         0
         0         0         0         0         0         0         0         0
         0         0         0         0         0         0         0         0
         0         0         0         0         0         0         0         0
         0         0         0         0         0         0         0         0
         0         0         0         0         0         0         0         0
         0         0         0         0         0         0         0         0
         0         0         0         0         0         0         0         0
         0         0         0         0         0         0         0         0
         0         0         0         0         0         0         0         0
         0         0         0         0         0         0         0         0
         0         0         0         0         0         0         0         0
         0         0         0         0         0         0         0         0
         0         0         0         0         0         0         0         0
         0         0         0         0         0         0         0         0
         0         0         0         0         0         0         0         0
         0         0         0         0         0         0         0         0
         0         0         0         0         0         0         0         0
         0         0         0         0         0         0         0         0
         0         0         0         0         0         0         0         0
         0         0         0         0         0         0         0         0
         0         0         0         0         0         0         0         0
         0         0         0         0         0         0         0         0
         0         0         0         0         0         0         0         0
         0         0         0         0         0         0         0         0
         0         0         0         0         0         0         0         0
         0         0         0         0         0         0         0         0
         0         0         0         0         0         0         0         0
         0         0         0         0         0         0         0         0
         0         0         0         0         0         0         0         0
         0         0         0         0         0         0         0         0
         0         0         0         0         0         0         0         0
         0         0         0         0         0         0         0         0
         0         0         0         0         0         0         0         0
         0         0         0         0         0         0         0         0
         0         0         0         0         0         0         0         0
         0         0         0         0         0         0         0         0
         0         0         0         0         0         0         0         0
         0         0         0         0         0         0         0         0
         0         0         0         0         0         0         0         0
         0         0         0         0         0         0         0         0
         0         0         0         0         0         0         0         0
         0         0         0         0         0         0         0         0
         0         0         0         0         0         0         0         0
         0         0         0         0         0         0         0         0
         0         0         0         0         0         0         0         0
         0         0         0         0         0         0         0         0
         0         0         0         0         0         0         0         0
         0         0         0         0         0         0         0         0
         0         0         0         0         0         0         0         0
         0         0         0         0         0         0         0         0
         0         0         0         0         0         0         0         0
         0         0         0         0         0         0         0         0
         0         0         0         0         0         0         0         0
         0         0         0         0         0         0         0         0
         0         0         0         0         0         0         0         0
         0         0         0         0         0         0         0         0
         0         0         0         0         0         0         0         0
         0         0         0         0         0         0         0         0
         0         0         0         0         0         0         0         0
         0         0         0         0         0         0         0         0
         0         0         0         0         0         0         0         0
         0         0         0         0         0         0         0         0
         0         0         0         0         0         0         0         0
         0         0         0         0         0         0         0         0
         0         0         0         0         0         0         0         0
         0         0         0         0         0         0         0         0
         0         0         0         0         0         0         0         0
         0         0         0         0         0         0         0         0
         0         0         0         0         0         0         0         0
         0         0         0         0         0         0         0         0
         0         0         0         0         0         0         0         0
         0         0         0         0         0         0         0         0
         0         0         0         0         0         0         0         0
         0         0         0         0         0         0         0         0
         0         0         0         0         0         0         0         0
         0         0         0         0         0         0         0         0
         0         0         0         0         0         0         0         0
         0         0         0         0         0         0         0         0
         0         0         0         0         0         0         0         0
         0         0         0         0         0         0         0         0
         0         0         0         0         0         0         0         0
         0         0         0         0         0         0         0         0
         0         0         0         0         0         0         0         0
         0         0         0         0         0         0         0         0
         0         0         0         0         0         0         0         0
         0         0         0         0         0         0         0         0
         0         0         0         0         0         0         0         0
         0         0         0         0         0         0         0         0
         0         0         0         0         0         0         0         0
         0         0         0         0         0         0         0         0
         0         0         0         0         0         0         0         0
         0         0         0         0         0         0         0         0
         0         0         0         0         0         0         0         0
         0         0         0         0         0         0         0         0
         0         0         0         0         0         0         0         0
         0         0         0         0         0         0         0         0
         0         0         0         0         0         0         0         0
         0         0         0         0         0         0         0         0
         0         0         0         0         0         0         0         0
         0         0         0         0         0         0         0         0
         0         0         0         0         0         0         0         0
         0         0         0         0         0         0         0         0
         0         0         0         0         0         0         0         0
         0         0         0         0         0         0         0         0
         0         0         0         0         0         0         0         0
         0         0         0         0         0         0         0         0
         0         0         0         0         0         0         0         0
         0         0         0         0         0         0         0         0
         0         0         0         0         0         0         0         0
         0         0         0         0         0         0         0         0
         0         0         0         0         0         0         0         0
         0         0         0         0         0         0         0         0
         0         0         0         0         0         0         0         0
         0         0         0         0         0         0         0         0
         0         0         0         0         0         0         0         0
         0         0         0         0         0         0         0         0
         0         0         0         0         0         0         0         0
         0         0         0         0         0         0         0         0
         0         0         0         0         0         0         0         0
         0         0         0         0         0         0         0         0
         0         0         0         0         0         0         0         0
         0         0         0         0         0         0         0         0
         0         0         0         0         0         0         0         0
         0         0         0         0         0         0         0         0
         0         0         0         0         0         0         0         0
         0         0         0         0         0         0         0         0
         0         0         0         0         0         0         0         0
         0         0         0         0         0         0         0         0
         0         0         0         0         0         0         0         0
         0         0         0         0         0         0         0         0
         0         0         0         0         0         0         0         0
         0         0         0         0         0         0         0         0
         0         0         0         0         0         0         0         0
         0         0         0         0         0         0         0         0
         0         0         0         0         0         0         0         0
         0         0         0         0         0         0         0         0
         0         0         0         0         0         0         0         0
         0         0         0         0         0         0         0         0
         0         0         0         0         0         0         0         0
         0         0         0         0         0         0         0         0
         0         0         0         0         0         0         0         0
         0         0         0         0         0         0         0         0
         0         0         0         0         0         0         0         0
         0         0         0         0         0         0         0         0
         0         0         0         0         0         0         0         0
         0         0         0         0         0         0         0         0
         0         0         0         0         0         0         0         0
         0         0         0         0         0         0         0         0
         0         0         0         0         0         0         0         0
         0         0         0         0         0         0         0         0
         0         0         0         0         0         0         0         0
         0         0         0         0         0         0         0         0
         0         0         0         0         0         0         0         0
         0         0         0         0         0         0         0         0
         0         0         0         0         0         0         0         0
         0         0         0         0         0         0         0         0
         0         0         0         0         0         0         0         0
         0         0         0         0         0         0         0         0
         0         0         0         0         0         0         0         0
         0         0         0         0         0         0         0         0
         0         0         0         0         0         0         0         0
         0         0         0         0         0         0         0         0
         0         0         0         0         0         0         0         0
         0         0         0         0         0         0         0         0
         0         0         0         0         0         0         0         0
         0         0         0         0         0         0         0         0
         0         0         0         0         0         0         0         0
         0         0         0         0         0         0         0         0
         0         0         0         0         0         0         0         0
         0         0         0         0         0         0         0         0
         0         0         0         0         0         0         0         0
         0         0         0         0         0         0         0         0
         0         0         0         0         0         0         0         0
         0         0         0         0         0         0         0         0
         0         0         0         0         0         0         0         0
         0         0         0         0         0         0         0         0
         0         0         0         0         0         0         0         0
         0         0         0         0         0         0         0         0
         0         0         0         0         0         0         0         0
         0         0         0         0         0         0         0         0
         0         0         0         0         0         0         0         0
         0         0         0         0         0         0         0         0
         0         0         0         0         0         0         0         0
         0         0         0         0         0         0         0         0
         0         0         0         0         0         0         0         0
         0         0         0         0         0         0         0         0
         0         0         0         0         0         0         0         0
         0         0         0         0         0         0         0         0
         0         0         0         0         0         0         0         0
         0         0         0         0         0         0         0         0
         0         0         0         0         0         0         0         0
         0         0         0         0         0         0         0         0
         0         0         0         0         0         0         0         0
         0         0         0         0         0         0         0         0
         0         0         0         0         0         0         0         0
         0         0         0         0         0         0         0         0
         0         0         0         0         0         0         0         0
         0         0         0         0         0         0         0         0
         0         0         0         0         0         0         0         0
         0         0         0         0         0         0         0         0
         0         0         0         0         0         0         0         0
         0         0         0         0         0         0         0         0
         0         0         0         0         0         0         0         0
         0         0         0         0         0         0         0         0
         0         0         0         0         0         0         0         0
         0         0         0         0         0         0         0         0
         0         0         0         0         0         0         0         0
         0         0         0         0         0         0         0         0
         0         0         0         0         0         0         0         0
         0         0         0         0         0         0         0         0
         0         0         0         0         0         0         0         0
         0         0         0         0         0         0         0         0
         0         0         0         0         0         0         0         0
         0         0         0         0         0         0         0         0
         0         0         0         0         0         0         0         0
         0         0         0         0         0         0         0         0
         0         0         0         0         0         0         0         0
         0         0         0         0         0         0         0         0
         0         0         0         0         0         0         0         0
         0         0         0         0         0         0         0         0
         0         0         0         0         0         0         0         0
         0         0         0         0         0         0         0         0
         0         0         0         0         0         0         0         0
         0         0         0         0         0         0         0         0
         0         0         0         0         0         0         0         0
         0         0         0         0         0         0         0         0
         0         0         0         0         0         0         0         0
         0         0         0         0         0         0         0         0
         0         0         0         0         0         0         0         0
         0         0         0         0         0         0         0         0
         0         0         0         0         0         0         0         0
         0         0         0         0         0         0         0         0
         0         0         0         0         0         0         0         0
         0         0         0         0         0         0         0         0
         0         0         0         0         0         0         0         0
         0         0         0         0         0         0         0         0
         0         0         0         0         0         0         0         0
         0         0         0         0         0         0         0         0
         0         0         0         0         0         0         0         0
         0         0         0         0         0         0         0         0
         0         0         0         0         0         0         0         0
         0         0         0         0         0         0         0         0
         0         0         0         0         0         0         0         0
         0         0         0         0         0         0         0         0
         0         0         0         0         0         0         0         0
         0         0         0         0         0         0         0         0
         0         0         0         0         0         0         0         0
         0         0         0         0         0         0         0         0
         0         0         0         0         0         0         0         0
         0         0         0         0         0         0         0         0
         0         0         0         0         0         0         0         0
         0         0         0         0         0         0         0         0
         0         0         0         0         0         0         0         0
         0         0         0         0         0         0         0         0
         0         0         0         0         0         0         0         0
         0         0         0         0         0         0         0         0
         0         0         0         0         0         0         0         0
         0         0         0         0         0         0         0         0
         0         0         0         0         0         0         0         0
         0         0         0         0         0         0         0         0
         0         0         0         0         0         0         0         0
         0         0         0         0         0         0         0         0
         0         0         0         0         0         0         0         0
         0         0         0         0         0         0         0         0
         0         0         0         0         0         0         0         0
         0         0         0         0         0         0         0         0
         0         0         0         0         0         0         0         0
         0         0         0         0         0         0         0         0
         0         0         0         0         0         0         0         0
         0         0         0         0         0         0         0         0
         0         0         0         0         0         0         0         0
         0         0         0         0         0         0         0         0
         0         0         0         0         0         0         0         0
         0         0         0         0         0         0         0         0
         0         0         0         0         0         0         0         0
         0         0         0         0         0         0         0         0
         0         0         0         0         0         0         0         0
         0         0         0         0         0         0         0         0
         0         0         0         0         0         0         0         0
         0         0         0         0         0         0         0         0
         0         0         0         0         0         0         0         0
         0         0         0         0         0         0         0         0
         0         0         0         0         0         0         0         0
         0         0         0         0         0         0         0         0
         0         0         0         0         0         0         0         0
         0         0         0         0         0         0         0         0
         0         0         0         0         0         0         0         0
         0         0         0         0         0         0         0         0
         0         0         0         0         0         0         0         0
         0         0         0         0         0         0         0         0
         0         0         0         0         0         0         0         0
         0         0         0         0         0         0         0         0
         0         0         0         0         0         0         0         0
         0         0         0         0         0         0         0         0
         0         0         0         0         0         0         0         0
         0         0         0         0         0         0         0         0
         0         0         0         0         0         0         0         0
         0         0         0         0         0         0         0         0
         0         0         0         0         0         0         0         0
         0         0         0         0         0         0         0         0
         0         0         0         0         0         0         0         0
         0         0         0         0         0         0         0         0
         0         0         0         0         0         0         0         0
         0         0         0         0         0         0         0         0
         0         0         0         0         0         0         0         0
         0         0         0         0         0         0         0         0
         0         0         0         0         0         0         0         0
         0         0         0         0         0         0         0         0
         0         0         0         0         0         0         0         0
         0         0         0         0         0         0         0         0
         0         0         0         0         0         0         0         0
         0         0         0         0         0         0         0         0
         0         0         0         0         0         0         0         0
         0         0         0         0         0         0         0         0
         0         0         0         0         0         0         0         0
         0         0         0         0         0         0         0         0
         0         0         0         0         0         0         0         0
         0         0         0         0         0         0         0         0
         0         0         0         0         0         0         0         0
         0         0         0         0         0         0         0         0
         0         0         0         0         0         0         0         0
         0         0         0         0         0         0         0         0
         0         0         0         0         0         0         0         0
         0         0         0         0         0         0         0         0
         0         0         0         0         0         0         0         0
         0         0         0         0         0         0         0         0
         0         0         0         0         0         0         0         0
         0         0         0         0         0         0         0         0
         0         0         0         0         0         0         0         0
         0         0         0         0         0         0         0         0
         0         0         0         0         0         0         0         0
         0         0         0         0         0         0         0         0
         0         0         0         0         0         0         0         0
         0         0         0         0         0         0         0         0
         0         0         0         0         0         0         0         0
         0         0         0         0         0         0         0         0
         0         0         0         0         0         0         0         0
         0         0         0         0         0         0         0         0
         0         0         0         0         0         0         0         0
         0         0         0         0         0         0         0         0
         0         0         0         0         0         0         0         0
         0         0         0         0         0         0         0         0
         0         0         0         0         0         0         0         0
         0         0         0         0         0         0         0         0
         0         0         0         0         0         0         0         0
         0         0         0         0         0         0         0         0
         0         0         0         0         0         0         0         0
         0         0         0         0         0         0         0         0
         0         0         0         0         0         0         0         0
         0         0         0         0         0         0         0         0
         0         0         0         0         0         0         0         0
         0         0         0         0         0         0         0         0
         0         0         0         0         0         0         0         0
         0         0         0         0         0         0         0         0
         0         0         0         0         0         0         0         0
         0         0         0         0         0         0         0         0
         0         0         0         0         0         0         0         0
         0         0         0         0         0         0         0         0
         0         0         0         0         0         0         0         0
         0         0         0         0         0         0         0         0
         0         0         0         0         0         0         0         0
         0         0         0         0         0         0         0         0
         0         0         0         0         0         0         0         0
         0         0         0         0         0         0         0         0
         0         0         0         0         0         0         0         0
         0         0         0         0         0         0         0         0
         0         0         0         0         0         0         0         0
         0         0         0         0         0         0         0         0
         0         0         0         0         0         0         0         0
         0         0         0         0         0         0         0         0
         0         0         0         0         0         0         0         0
         0         0         0         0         0         0         0         0
         0         0         0         0         0         0         0         0
         0         0         0         0         0         0         0         0
         0         0         0         0         0         0         0         0
         0         0         0         0         0         0         0         0
         0         0         0         0         0         0         0         0
         0         0         0         0         0         0         0         0
         0         0         0         0         0         0         0         0
         0         0         0         0         0         0         0         0
         0         0         0         0         0         0         0         0
         0         0         0         0         0         0         0         0
         0         0         0         0         0         0         0         0
         0         0         0         0         0         0         0         0
         0         0         0         0         0         0         0         0
         0         0         0         0         0         0         0         0
         0         0         0         0         0         0         0         0
         0         0         0         0         0         0         0         0
         0         0         0         0         0         0         0         0
         0         0         0         0         0         0         0         0
         0         0         0         0         0         0         0         0
         0         0         0         0         0         0         0         0
         0         0         0         0         0         0         0         0
         0         0         0         0         0         0         0         0
         0         0         0         0         0         0         0         0
         0         0         0         0         0         0         0         0
         0         0         0         0         0         0         0         0
         0         0         0         0         0         0         0         0
         0         0         0         0         0         0         0         0
         0         0         0         0         0         0         0         0
         0         0         0         0         0         0         0         0
         0         0         0         0         0         0         0         0
         0         0         0         0         0         0         0         0
         0         0         0         0         0         0         0         0
         0         0         0         0         0         0         0         0
         0         0         0         0         0         0         0         0
         0         0         0         0         0         0         0         0
         0         0         0         0         0         0         0         0
         0         0         0         0         0         0         0         0
         0         0         0         0         0         0         0         0
         0         0         0         0         0         0         0         0
         0         0         0         0         0         0         0         0
         0         0         0         0         0         0         0         0
         0         0         0         0         0         0         0         0
         0         0         0         0         0         0         0         0
         0         0         0         0         0         0         0         0
         0         0         0         0         0         0         0         0
         0         0         0         0         0         0         0         0
         0         0         0         0         0         0         0         0
         0         0         0         0         0         0         0         0
         0         0         0         0         0         0         0         0
         0         0         0         0         0         0         0         0
         0         0         0         0         0         0         0         0
         0         0         0         0         0         0         0         0
         0         0         0         0         0         0         0         0
         0         0         0         0         0         0         0         0
         0         0         0         0         0         0         0         0
         0         0         0         0         0         0         0         0
         0         0         0         0         0         0         0         0
         0         0         0         0         0         0         0         0
         0         0         0         0         0         0         0         0
         0         0         0         0         0         0         0         0
         0         0         0         0         0         0         0         0
         0         0         0         0         0         0         0         0
         0         0         0         0         0         0         0         0
         0         0         0         0         0         0         0         0
         0         0         0         0         0         0         0         0
         0         0         0         0         0         0         0         0
         0         0         0         0         0         0         0         0
         0         0         0         0         0         0         0         0
         0         0         0         0         0         0         0         0
         0         0         0         0         0         0         0         0
         0         0         0         0         0         0         0         0
         0         0         0         0         0         0         0         0
         0         0         0         0         0         0         0         0
         0         0         0         0         0         0         0         0
         0         0         0         0         0         0         0         0
         0         0         0         0         0         0         0         0
         0         0         0         0         0         0         0         0
         0         0         0         0         0         0         0         0
         0         0         0         0         0         0         0         0
         0         0         0         0         0         0         0         0
         0         0         0         0         0         0         0         0
         0         0         0         0         0         0         0         0
         0         0         0         0         0         0         0         0
         0         0         0         0         0         0         0         0
         0         0         0         0         0         0         0         0
         0         0         0         0         0         0         0         0
         0         0         0         0         0         0         0         0
         0         0         0         0         0         0         0         0
         0         0         0         0         0         0         0         0
         0         0         0         0         0         0         0         0
         0         0         0         0         0         0         0         0
         0         0         0         0         0         0         0         0
         0         0         0         0         0         0         0         0
         0         0         0         0         0         0         0         0
         0         0         0         0         0         0         0         0
         0         0         0         0         0         0         0         0
         0         0         0         0         0         0         0         0
         0         0         0         0         0         0         0         0
         0         0         0         0         0         0         0         0
         0         0         0         0         0         0         0         0
         0         0         0         0         0         0         0         0
         0         0         0         0         0         0         0         0
         0         0         0         0         0         0         0         0
         0         0         0         0         0         0         0         0
         0         0         0         0         0         0         0         0
         0         0         0         0         0         0         0         0
         0         0         0         0         0         0         0         0
         0         0         0         0         0         0         0         0
         0         0         0         0         0         0         0         0
         0         0         0         0         0         0         0         0
         0         0         0         0         0         0         0         0
         0         0         0         0         0         0         0         0
         0         0         0         0         0         0         0         0
         0         0         0         0         0         0         0         0
         0         0         0         0         0         0         0         0
         0         0         0         0         0         0         0         0
         0         0         0         0         0         0         0         0
         0         0         0         0         0         0         0         0
         0         0         0         0         0         0         0         0
         0         0         0         0         0         0         0         0
         0         0         0         0         0         0         0         0
         0         0         0         0         0         0         0         0
         0         0         0         0         0         0         0         0
         0         0         0         0         0         0         0         0
         0         0         0         0         0         0         0         0
         0         0         0         0         0         0         0         0
         0         0         0         0         0         0         0         0
         0         0         0         0         0         0         0         0
         0         0         0         0         0         0         0         0
         0         0         0         0         0         0         0         0
         0         0         0         0         0         0         0         0
         0         0         0         0         0         0         0         0
         0         0         0         0         0         0         0         0
         0         0         0         0         0         0         0         0
         0         0         0         0         0         0         0         0
         0         0         0         0         0         0         0         0
         0         0         0         0         0         0         0         0
         0         0         0         0         0         0         0         0
         0         0         0         0         0         0         0         0
         0         0         0         0         0         0         0         0
         0         0         0         0         0         0         0         0
         0         0         0         0         0         0         0         0
         0         0         0         0         0         0         0         0
         0         0         0         0         0         0         0         0
         0         0         0         0         0         0         0         0
         0         0         0         0         0         0         0         0
         0         0         0         0         0         0         0         0
         0         0         0         0         0         0         0         0
         0         0         0         0         0         0         0         0
         0         0         0         0         0         0         0         0
         0         0         0         0         0         0         0         0
         0         0         0         0         0         0         0         0
         0         0         0         0         0         0         0         0
         0         0         0         0         0         0         0         0
         0         0         0         0         0         0         0         0
         0         0         0         0         0         0         0         0
         0         0         0         0         0         0         0         0
         0         0         0         0         0         0         0         0
         0         0         0         0         0         0         0         0
         0         0         0         0         0         0         0         0
         0         0         0         0         0         0         0         0
         0         0         0         0         0         0         0         0
         0         0         0         0         0         0         0         0
         0         0         0         0         0         0         0         0
         0         0         0         0         0         0         0         0
         0         0         0         0         0         0         0         0
         0         0         0         0         0         0         0         0
         0         0         0         0         0         0         0         0
         0         0         0         0         0         0         0         0
         0         0         0         0         0         0         0         0
         0         0         0         0         0         0         0         0
         0         0         0         0         0         0         0         0
         0         0         0         0         0         0         0         0
         0         0         0         0         0         0         0         0
         0         0         0         0         0         0         0         0
         0         0         0         0         0         0         0         0
         0         0         0         0         0         0         0         0
         0         0         0         0         0         0         0         0
         0         0         0         0         0         0         0         0
         0         0         0         0         0         0         0         0
         0         0         0         0         0         0         0         0
         0         0         0         0         0         0         0         0
         0         0         0         0         0         0         0         0
         0         0         0         0         0         0         0         0
         0         0         0         0         0         0         0         0
         0         0         0         0         0         0         0         0
         0         0         0         0         0         0         0         0
         0         0         0         0         0         0         0         0
         0         0         0         0         0         0         0         0
         0         0         0         0         0         0         0         0
         0         0         0         0         0         0         0         0
         0         0         0         0         0         0         0         0
         0         0         0         0         0         0         0         0
         0         0         0         0         0         0         0         0
         0         0         0         0         0         0         0         0
         0         0         0         0         0         0         0         0
         0         0         0         0         0         0         0         0
         0         0         0         0         0         0         0         0
         0         0         0         0         0         0         0         0
         0         0         0         0         0         0         0         0
         0         0         0         0         0         0         0         0
         0         0         0         0         0         0         0         0
         0         0         0         0         0         0         0         0
         0         0         0         0         0         0         0         0
         0         0         0         0         0         0         0         0
         0         0         0         0         0         0         0         0
         0         0         0         0         0         0         0         0
         0         0         0         0         0         0         0         0
         0         0         0         0         0         0         0         0
         0         0         0         0         0         0         0         0
         0         0         0         0         0         0         0         0
         0         0         0         0         0         0         0         0
         0         0         0         0         0         0         0         0
         0         0         0         0         0         0         0         0
         0         0         0         0         0         0         0         0
         0         0         0         0         0         0         0         0
         0         0         0         0         0         0         0         0
         0         0         0         0         0         0         0         0
         0         0         0         0         0         0         0         0
         0         0         0         0         0         0         0         0
         0         0         0         0         0         0         0         0
         0         0         0         0         0         0         0         0
         0         0         0         0         0         0         0         0
         0         0         0         0         0         0         0         0
         0         0         0         0         0         0         0         0
         0         0         0         0         0         0         0         0
         0         0         0         0         0         0         0         0
         0         0         0         0         0         0         0         0
         0         0         0         0         0         0         0         0
         0         0         0         0         0         0         0         0
         0         0         0         0         0         0         0         0
         0         0         0         0         0         0         0         0
         0         0         0         0         0         0         0         0
         0         0         0         0         0         0         0         0
         0         0         0         0         0         0         0         0
         0         0         0         0         0         0         0         0
         0         0         0         0         0         0         0         0
         0         0         0         0         0         0         0         0
         0         0         0         0         0         0         0         0
         0         0         0         0         0         0         0         0
         0         0         0         0         0         0         0         0
         0         0         0         0         0         0         0         0
         0         0         0         0         0         0         0         0
         0         0         0         0         0         0         0         0
         0         0         0         0         0         0         0         0
         0         0         0         0         0         0         0         0
         0         0         0         0         0         0         0         0
         0         0         0         0         0         0         0         0
         0         0         0         0         0         0         0         0
         0         0         0         0         0         0         0         0
         0         0         0         0         0         0         0         0
         0         0         0         0         0         0         0         0
         0         0         0         0         0         0         0         0
         0         0         0         0         0         0         0         0
         0         0         0         0         0         0         0         0
         0         0         0         0         0         0         0         0
         0         0         0         0         0         0         0         0
         0         0         0         0         0         0         0         0
         0         0         0         0         0         0         0         0
         0         0         0         0         0         0         0         0
         0         0         0         0         0         0         0         0
         0         0         0         0         0         0         0         0
         0         0         0         0         0         0         0         0
         0         0         0         0         0         0         0         0
         0         0         0         0         0         0         0         0
         0         0         0         0         0         0         0         0
         0         0         0         0         0         0         0         0
         0         0         0         0         0         0         0         0
         0         0         0         0         0         0         0         0
         0         0         0         0         0         0         0         0
         0         0         0         0         0         0         0         0
         0         0         0         0         0         0         0         0
         0         0         0         0         0         0         0         0
         0         0         0         0         0         0         0         0
         0         0         0         0         0         0         0         0
         0         0         0         0         0         0         0         0
         0         0         0         0         0         0         0         0
         0         0         0         0         0         0         0         0
         0         0         0         0         0         0         0         0
         0         0         0         0         0         0         0         0
         0         0         0         0         0         0         0         0
         0         0         0         0         0         0         0         0
         0         0         0         0         0         0         0         0
         0         0         0         0         0         0         0         0
         0         0         0         0         0         0         0         0
         0         0         0         0         0         0         0         0
         0         0         0         0         0         0         0         0
         0         0         0         0         0         0         0         0
         0         0         0         0         0         0         0         0
         0         0         0         0         0         0         0         0
         0         0         0         0         0         0         0         0
         0         0         0         0         0         0         0         0
         0         0         0         0         0         0         0         0
         0         0         0         0         0         0         0         0
         0         0         0         0         0         0         0         0
         0         0         0         0         0         0         0         0
         0         0         0         0         0         0         0         0
         0         0         0         0         0         0         0         0
         0         0         0         0         0         0         0         0
         0         0         0         0         0         0         0         0
         0         0         0         0         0         0         0         0
         0         0         0         0         0         0         0         0
         0         0         0         0         0         0         0         0
         0         0         0         0         0         0         0         0
         0         0         0         0         0         0         0         0
         0         0         0         0         0         0         0         0
         0         0         0         0         0         0         0         0
         0         0         0         0         0         0         0         0
         0         0         0         0         0         0         0         0
         0         0         0         0         0         0         0         0
         0         0         0         0         0         0         0         0
         0         0         0         0         0         0         0         0
         0         0         0         0         0         0         0         0
         0         0         0         0         0         0         0         0
         0         0         0         0         0         0         0         0
         0         0         0         0         0         0         0         0
         0         0         0         0         0         0         0         0
         0         0         0         0         0         0         0         0
         0         0         0         0         0         0         0         0
         0         0         0         0         0         0         0         0
         0         0         0         0         0         0         0         0
         0         0         0         0         0         0         0         0
         0         0         0         0         0         0         0         0
         0         0         0         0         0         0         0         0
         0         0         0         0         0         0         0         0
         0         0         0         0         0         0         0         0
         0         0         0         0         0         0         0         0
         0         0         0         0         0         0         0         0
         0         0         0         0         0         0         0         0
         0         0         0         0         0         0         0         0
         0         0         0         0         0         0         0         0
         0         0         0         0         0         0         0         0
         0         0         0         0         0         0         0         0
         0         0         0         0         0         0         0         0
         0         0         0         0         0         0         0         0
         0         0         0         0         0         0         0         0
         0         0         0         0         0         0         0         0
         0         0         0         0         0         0         0         0
         0         0         0         0         0         0         0         0
         0         0         0         0         0         0         0         0
         0         0         0         0         0         0         0         0
         0         0         0         0         0         0         0         0
         0         0         0         0         0         0         0         0
         0         0         0         0         0         0         0         0
         0         0         0         0         0         0         0         0
         0         0         0         0         0         0         0         0
         0         0         0         0         0         0         0         0
         0         0         0         0         0         0         0         0
         0         0         0         0         0         0         0         0
         0         0         0         0         0         0         0         0
         0         0         0         0         0         0         0         0
         0         0         0         0         0         0         0         0
         0         0         0         0         0         0         0         0
         0         0         0         0         0         0         0         0
         0         0         0         0         0         0         0         0
         0         0         0         0         0         0         0         0
         0         0         0         0         0         0         0         0
         0         0         0         0         0         0         0         0
         0         0         0         0         0         0         0         0
         0         0         0         0         0         0         0         0
         0         0         0         0         0         0         0         0
         0         0         0         0         0         0         0         0
         0         0         0         0         0         0         0         0
         0         0         0         0         0         0         0         0
         0         0         0         0         0         0         0         0
         0         0         0         0         0         0         0         0
         0         0         0         0         0         0         0         0
         0         0         0         0         0         0         0         0
         0         0         0         0         0         0         0         0
         0         0         0         0         0         0         0         0
         0         0         0         0         0         0         0         0
         0         0         0         0         0         0         0         0
         0         0         0         0         0         0         0         0
         0         0         0         0         0         0         0         0
         0         0         0         0         0         0         0         0
         0         0         0         0         0         0         0         0
         0         0         0         0         0         0         0         0
         0         0         0         0         0         0         0         0
         0         0         0         0         0         0         0         0
         0         0         0         0         0         0         0         0
         0         0         0         0         0         0         0         0
         0         0         0         0         0         0         0         0
         0         0         0         0         0         0         0         0
         0         0         0         0         0         0         0         0
         0         0         0         0         0         0         0         0
         0         0         0         0         0         0         0         0
         0         0         0         0         0         0         0         0
         0         0         0         0         0         0         0         0
         0         0         0         0         0         0         0         0
         0         0         0         0         0         0         0         0
         0         0         0         0         0         0         0         0
         0         0         0         0         0         0         0         0
         0         0         0         0         0         0         0         0
         0         0         0         0         0         0         0         0
         0         0         0         0         0         0         0         0
         0         0         0         0         0         0         0         0
         0         0         0         0         0         0         0         0
         0         0         0         0         0         0         0         0
         0         0         0         0         0         0         0         0
         0         0         0         0         0         0         0         0
         0         0         0         0         0         0         0         0
         0         0         0         0         0         0         0         0
         0         0         0         0         0         0         0         0
         0         0         0         0         0         0         0         0
         0         0         0         0         0         0         0         0
         0         0         0         0         0         0         0         0
         0         0         0         0         0         0         0         0
         0         0         0         0         0         0         0         0
         0         0         0         0         0         0         0         0
         0         0         0         0         0         0         0         0
         0         0         0         0         0         0         0         0
         0         0         0         0         0         0         0         0
         0         0         0         0         0         0         0         0
         0         0         0         0         0         0         0         0
         0         0         0         0         0         0         0         0
         0         0         0         0         0         0         0         0
         0         0         0         0         0         0         0         0
         0         0         0         0         0         0         0         0
         0         0         0         0         0         0         0         0
         0         0         0         0         0         0         0         0
         0         0         0         0         0         0         0         0
         0         0         0         0         0         0         0         0
         0         0         0         0         0         0         0         0
         0         0         0         0         0         0         0         0
         0         0         0         0         0         0         0         0
         0         0         0         0         0         0         0         0
         0         0         0         0         0         0         0         0
         0         0         0         0         0         0         0         0
         0         0         0         0         0         0         0         0
         0         0         0         0         0         0         0         0
         0         0         0         0         0         0         0         0
         0         0         0         0         0         0         0         0
         0         0         0         0         0         0         0         0
         0         0         0         0         0         0         0         0
         0         0         0         0         0         0         0         0
         0         0         0         0         0         0         0         0
         0         0         0         0         0         0         0         0
         0         0         0         0         0         0         0         0
         0         0         0         0         0         0         0         0
         0         0         0         0         0         0         0         0
         0         0         0         0         0         0         0         0
         0         0         0         0         0         0         0         0
         0         0         0         0         0         0         0         0
         0         0         0         0         0         0         0         0
         0         0         0         0         0         0         0         0
         0         0         0         0         0         0         0         0
         0         0         0         0         0         0         0         0
         0         0         0         0         0         0         0         0
         0         0         0         0         0         0         0         0
         0         0         0         0         0         0         0         0
         0         0         0         0         0         0         0         0
         0         0         0         0         0         0         0         0
         0         0         0         0         0         0         0         0
         0         0         0         0         0         0         0         0
         0         0         0         0         0         0         0         0
         0         0         0         0         0         0         0         0
         0         0         0         0         0         0         0         0
         0         0         0         0         0         0         0         0
         0         0         0         0         0         0         0         0
         0         0         0         0         0         0         0         0
         0         0         0         0         0         0         0         0
         0         0         0         0         0         0         0         0
         0         0         0         0         0         0         0         0
         0         0         0         0         0         0         0         0
         0         0         0         0         0         0         0         0
         0         0         0         0         0         0         0         0
         0         0         0         0         0         0         0         0
         0         0         0         0         0         0         0         0
         0         0         0         0         0         0         0         0
         0         0         0         0         0         0         0         0
         0         0         0         0         0         0         0         0
         0         0         0         0         0         0         0         0
         0         0         0         0         0         0         0         0
         0         0         0         0         0         0         0         0
         0         0         0         0         0         0         0         0
         0         0         0         0         0         0         0         0
         0         0         0         0         0         0         0         0
         0         0         0         0         0         0         0         0
         0         0         0         0         0         0         0         0
         0         0         0         0         0         0         0         0
         0         0         0         0         0         0         0         0
         0         0         0         0         0         0         0         0
         0         0         0         0         0         0         0         0
         0         0         0         0         0         0         0         0
         0         0         0         0         0         0         0         0
         0         0         0         0         0         0         0         0
         0         0         0         0         0         0         0         0
         0         0         0         0         0         0         0         0
         0         0         0         0         0         0         0         0
         0         0         0         0         0         0         0         0
         0         0         0         0         0         0         0         0
         0         0         0         0         0         0         0         0
         0         0         0         0         0         0         0         0
         0         0         0         0         0         0         0         0
         0         0         0         0         0         0         0         0
         0         0         0         0         0         0         0         0
         0         0         0         0         0         0         0         0
         0         0         0         0         0         0         0         0
         0         0         0         0         0         0         0         0
         0         0         0         0         0         0         0         0
         0         0         0         0         0         0         0         0
         0         0         0         0         0         0         0         0
         0         0         0         0         0         0         0         0
         0         0         0         0         0         0         0         0
         0         0         0         0         0         0         0         0
         0         0         0         0         0         0         0         0
         0         0         0         0         0         0         0         0
         0         0         0         0         0         0         0         0
         0         0         0         0         0         0         0         0
         0         0         0         0         0         0         0         0
         0         0         0         0         0         0         0         0
         0         0         0         0         0         0         0         0
         0         0         0         0         0         0         0         0
         0         0         0         0         0         0         0         0
         0         0         0         0         0         0         0         0
         0         0         0         0         0         0         0         0
         0         0         0         0         0         0         0         0
         0         0         0         0         0         0         0         0
         0         0         0         0         0         0         0         0
         0         0         0         0         0         0         0         0
         0         0         0         0         0         0         0         0
         0         0         0         0         0         0         0         0
         0         0         0         0         0         0         0         0
         0         0         0         0         0         0         0         0
         0         0         0         0         0         0         0         0
         0         0         0         0         0         0         0         0
         0         0         0         0         0         0         0         0
         0         0         0         0         0         0         0         0
         0         0         0         0         0         0         0         0
         0         0         0         0         0         0         0         0
         0         0         0         0         0         0         0         0
         0         0         0         0         0         0         0         0
         0         0         0         0         0         0         0         0
         0         0         0         0         0         0         0         0
         0         0         0         0         0         0         0         0
         0         0         0         0         0         0         0         0
         0         0         0         0         0         0         0         0
         0         0         0         0         0         0         0         0
         0         0         0         0         0         0         0         0
         0         0         0         0         0         0         0         0
         0         0         0         0         0         0         0         0
         0         0         0         0         0         0         0         0
         0         0         0         0         0         0         0         0
         0         0         0         0         0         0         0         0
         0         0         0         0         0         0         0         0
         0         0         0         0         0         0         0         0
         0         0         0         0         0         0         0         0
         0         0         0         0         0         0         0         0
         0         0         0         0         0         0         0         0
         0         0         0         0         0         0         0         0
         0         0         0         0         0         0         0         0
         0         0         0         0         0         0         0         0
         0         0         0         0         0         0         0         0
         0         0         0         0         0         0         0         0
         0         0         0         0         0         0         0         0
         0         0         0         0         0         0         0         0
         0         0         0         0         0         0         0         0
         0         0         0         0         0         0         0         0
         0         0         0         0         0         0         0         0
         0         0         0         0         0         0         0         0
         0         0         0         0         0         0         0         0
         0         0         0         0         0         0         0         0
         0         0         0         0         0         0         0         0
         0         0         0         0         0         0         0         0
         0         0         0         0         0         0         0         0
         0         0         0         0         0         0         0         0
         0         0         0         0         0         0         0         0
         0         0         0         0         0         0         0         0
         0         0         0         0         0         0         0         0
         0         0         0         0         0         0         0         0
         0         0         0         0         0         0         0         0
         0         0         0         0         0         0         0         0
         0         0         0         0         0         0         0         0
         0         0         0         0         0         0         0         0
         0         0         0         0         0         0         0         0
         0         0         0         0         0         0         0         0
         0         0         0         0         0         0         0         0
         0         0         0         0         0         0         0         0
         0         0         0         0         0         0         0         0
         0         0         0         0         0         0         0         0
         0         0         0         0         0         0         0         0
         0         0         0         0         0         0         0         0
         0         0         0         0         0         0         0         0
         0         0         0         0         0         0         0         0
         0         0         0         0         0         0         0         0
         0         0         0         0         0         0         0         0
         0         0         0         0         0         0         0         0
         0         0         0         0         0         0         0         0
         0         0         0         0         0         0         0         0
         0         0         0         0         0         0         0         0
         0         0         0         0         0         0         0         0
         0         0         0         0         0         0         0         0
         0         0         0         0         0         0         0         0
         0         0         0         0         0         0         0         0
         0         0         0         0         0         0         0         0
         0         0         0         0         0         0         0         0
         0         0         0         0         0         0         0         0
         0         0         0         0         0         0         0         0
         0         0         0         0         0         0         0         0
         0         0         0         0         0         0         0         0
         0         0         0         0         0         0         0         0
         0         0         0         0         0         0         0         0
         0         0         0         0         0         0         0         0
         0         0         0         0         0         0         0         0
         0         0         0         0         0         0         0         0
         0         0         0         0         0         0         0         0
         0         0         0         0         0         0         0         0
         0         0         0         0         0         0         0         0
         0         0         0         0         0         0         0         0
         0         0         0         0         0         0         0         0
         0         0         0         0         0         0         0         0
         0         0         0         0         0         0         0         0
         0         0         0         0         0         0         0         0
         0         0         0         0         0         0         0         0
         0         0         0         0         0         0         0         0
         0         0         0         0         0         0         0         0
         0         0         0         0         0         0         0         0
         0         0         0         0         0         0         0         0
         0         0         0         0         0         0         0         0
         0         0         0         0         0         0         0         0
         0         0         0         0         0         0         0         0
         0         0         0         0         0         0         0         0
         0         0         0         0         0         0         0         0
         0         0         0         0         0         0         0         0
         0         0         0         0         0         0         0         0
         0         0         0         0         0         0         0         0
         0         0         0         0         0         0         0         0
         0         0         0         0         0         0         0         0
         0         0         0         0         0         0         0         0
         0         0         0         0         0         0         0         0
         0         0         0         0         0         0         0         0
         0         0         0         0         0         0         0         0
         0         0         0         0         0         0         0         0
         0         0         0         0         0         0         0         0
         0         0         0         0         0         0         0         0
         0         0         0         0         0         0         0         0
         0         0         0         0         0         0         0         0
         0         0         0         0         0         0         0         0
         0         0         0         0         0         0         0         0
         0         0         0         0         0         0         0         0
         0         0         0         0         0         0         0         0
         0         0         0         0         0         0         0         0
         0         0         0         0         0         0         0         0
         0         0         0         0         0         0         0         0
         0         0         0         0         0         0         0         0
         0         0         0         0         0         0         0         0
         0         0         0         0         0         0         0         0
         0         0         0         0         0         0         0         0
         0         0         0         0         0         0         0         0
         0         0         0         0         0         0         0         0
         0         0         0         0         0         0         0         0
         0         0         0         0         0         0         0         0
         0         0         0         0         0         0         0         0
         0         0         0         0         0         0         0         0
         0         0         0         0         0         0         0         0
         0         0         0         0         0         0         0         0
         0         0         0         0         0         0         0         0
         0         0         0         0         0         0         0         0
         0         0         0         0         0         0         0         0
         0         0         0         0         0         0         0         0
         0         0         0         0         0         0         0         0
         0         0         0         0         0         0         0         0
         0         0         0         0         0         0         0         0
         0         0         0         0         0         0         0         0
         0         0         0         0         0         0         0         0
         0         0         0         0         0         0         0         0
         0         0         0         0         0         0         0         0
         0         0         0         0         0         0         0         0
         0         0         0         0         0         0         0         0
         0         0         0         0         0         0         0         0
         0         0         0         0         0         0         0         0
         0         0         0         0         0         0         0         0
         0         0         0         0         0         0         0         0
         0         0         0         0         0         0         0         0
         0         0         0         0         0         0         0         0
         0         0         0         0         0         0         0         0
         0         0         0         0         0         0         0         0
         0         0         0         0         0         0         0         0
         0         0         0         0         0         0         0         0
         0         0         0         0         0         0         0         0
         0         0         0         0         0         0         0         0
         0         0         0         0         0         0         0         0
         0         0         0         0         0         0         0         0
         0         0         0         0         0         0         0         0
         0         0         0         0         0         0         0         0
         0         0         0         0         0         0         0         0
         0         0         0         0         0         0         0         0
         0         0         0         0         0         0         0         0
         0         0         0         0         0         0         0         0
         0         0         0         0         0         0         0         0
         0         0         0         0         0         0         0         0
         0         0         0         0         0         0         0         0
         0         0         0         0         0         0         0         0
         0         0         0         0         0         0         0         0
         0         0         0         0         0         0         0         0
         0         0         0         0         0         0         0         0
         0         0         0         0         0         0         0         0
         0         0         0         0         0         0         0         0
         0         0         0         0         0         0         0         0
         0         0         0         0         0         0         0         0
         0         0         0         0         0         0         0         0
         0         0         0         0         0         0         0         0
         0         0         0         0         0         0         0         0
         0         0         0         0         0         0         0         0
         0         0         0         0         0         0         0         0
         0         0         0         0         0         0         0         0
         0         0         0         0         0         0         0         0
         0         0         0         0         0         0         0         0
         0         0         0         0         0         0         0         0
         0         0         0         0         0         0         0         0
         0         0         0         0         0         0         0         0
         0         0         0         0         0         0         0         0
         0         0         0         0         0         0         0         0
         0         0         0         0         0         0         0         0
         0         0         0         0         0         0         0         0
         0         0         0         0         0         0         0         0
         0         0         0         0         0         0         0         0
         0         0         0         0         0         0         0         0
         0         0         0         0         0         0         0         0
         0         0         0         0         0         0         0         0
         0         0         0         0         0         0         0         0
         0         0         0         0         0         0         0         0
         0         0         0         0         0         0         0         0
         0         0         0         0         0         0         0         0
         0         0         0         0         0         0         0         0
         0         0         0         0         0         0         0         0
         0         0         0         0         0         0         0         0
         0         0         0         0         0         0         0         0
         0         0         0         0         0         0         0         0
         0         0         0         0         0         0         0         0
         0         0         0         0         0         0         0         0
         0         0         0         0         0         0         0         0
         0         0         0         0         0         0         0         0
         0         0         0         0         0         0         0         0
         0         0         0         0         0         0         0         0
         0         0         0         0         0         0         0         0
         0         0         0         0         0         0         0         0
         0         0         0         0         0         0         0         0
         0         0         0         0         0         0         0         0
         0         0         0         0         0         0         0         0
         0         0         0         0         0         0         0         0
         0         0         0         0         0         0         0         0
         0         0         0         0         0         0         0         0
         0         0         0         0         0         0         0         0
         0         0         0         0         0         0         0         0
         0         0         0         0         0         0         0         0
         0         0         0         0         0         0         0         0
         0         0         0         0         0         0         0         0
         0         0         0         0         0         0         0         0
         0         0         0         0         0         0         0         0
         0         0         0         0         0         0         0         0
         0         0         0         0         0         0         0         0
         0         0         0         0         0         0         0         0
         0         0         0         0         0         0         0         0
         0         0         0         0         0         0         0         0
         0         0         0         0         0         0         0         0
         0         0         0         0         0         0         0         0
         0         0         0         0         0         0         0         0
         0         0         0         0         0         0         0         0
         0         0         0         0         0         0         0         0
         0         0         0         0         0         0         0         0
         0         0         0         0         0         0         0         0
         0         0         0         0         0         0         0         0
         0         0         0         0         0         0         0         0
         0         0         0         0         0         0         0         0
         0         0         0         0         0         0         0         0
         0         0         0         0         0         0         0         0
         0         0         0         0         0         0         0         0
         0         0         0         0         0         0         0         0
         0         0         0         0         0         0         0         0
         0         0         0         0         0         0         0         0
         0         0         0         0         0         0         0         0
         0         0         0         0         0         0         0         0
         0         0         0         0         0         0         0         0
         0         0         0         0         0         0         0         0
         0         0         0         0         0         0         0         0
         0         0         0         0         0         0         0         0
         0         0         0         0         0         0         0         0
         0         0         0         0         0         0         0         0
         0         0         0         0         0         0         0         0
         0         0         0         0         0         0         0         0
         0         0         0         0         0         0         0         0
         0         0         0         0         0         0         0         0
         0         0         0         0         0         0         0         0
         0         0         0         0         0         0         0         0
         0         0         0         0         0         0         0         0
         0         0         0         0         0         0         0         0
         0         0         0         0         0         0         0         0
         0         0         0         0         0         0         0         0
         0         0         0         0         0         0         0         0
         0         0         0         0         0         0         0         0
         0         0         0         0         0         0         0         0
         0         0         0         0         0         0         0         0
         0         0         0         0         0         0         0         0
         0         0         0         0         0         0         0         0
         0         0         0         0         0         0         0         0
         0         0         0         0         0         0         0         0
         0         0         0         0         0         0         0         0
         0         0         0         0         0         0         0         0
         0         0         0         0         0         0         0         0
         0         0         0         0         0         0         0         0
         0         0         0         0         0         0         0         0
         0         0         0         0         0         0         0         0
         0         0         0         0         0         0         0         0
         0         0         0         0         0         0         0         0
         0         0         0         0         0         0         0         0
         0         0         0         0         0         0         0         0
         0         0         0         0         0         0         0         0
         0         0         0         0         0         0         0         0
         0         0         0         0         0         0         0         0
         0         0         0         0         0         0         0         0
         0         0         0         0         0         0         0         0
         0         0         0         0         0         0         0         0
         0         0         0         0         0         0         0         0
         0         0         0         0         0         0         0         0
         0         0         0         0         0         0         0         0
         0         0         0         0         0         0         0         0
         0         0         0         0         0         0         0         0
         0         0         0         0         0         0         0         0
         0         0         0         0         0         0         0         0
         0         0         0         0         0         0         0         0
         0         0         0         0         0         0         0         0
         0         0         0         0         0         0         0         0
         0         0         0         0         0         0         0         0
         0         0         0         0         0         0         0         0
         0         0         0         0         0         0         0         0
         0         0         0         0         0         0         0         0
         0         0         0         0         0         0         0         0
         0         0         0         0         0         0         0         0
         0         0         0         0         0         0         0         0
         0         0         0         0         0         0         0         0
         0         0         0         0         0         0         0         0
         0         0         0         0         0         0         0         0
         0         0         0         0         0         0         0         0
         0         0         0         0         0         0         0         0
         0         0         0         0         0         0         0         0
         0         0         0         0         0         0         0         0
         0         0         0         0         0         0         0         0
         0         0         0         0         0         0         0         0
         0         0         0         0         0         0         0         0
         0         0         0         0         0         0         0         0
         0         0         0         0         0         0         0         0
         0         0         0         0         0         0         0         0
         0         0         0         0         0         0         0         0
         0         0         0         0         0         0         0         0
         0         0         0         0         0         0         0         0
         0         0         0         0         0         0         0         0
         0         0         0         0         0         0         0         0
         0         0         0         0         0         0         0         0
         0         0         0         0         0         0         0         0
         0         0         0         0         0         0         0         0
         0         0         0         0         0         0         0         0
         0         0         0         0         0         0         0         0
         0         0         0         0         0         0         0         0
         0         0         0         0         0         0         0         0
         0         0         0         0         0         0         0         0
         0         0         0         0         0         0         0         0
         0         0         0         0         0         0         0         0
         0         0         0         0         0         0         0         0
         0         0         0         0         0         0         0         0
         0         0         0         0         0         0         0         0
         0         0         0         0         0         0         0         0
         0         0         0         0         0         0         0         0
         0         0         0         0         0         0         0         0
         0         0         0         0         0         0         0         0
         0         0         0         0         0         0         0         0
         0         0         0         0         0         0         0         0
         0         0         0         0         0         0         0         0
         0         0         0         0         0         0         0         0
         0         0         0         0         0         0         0         0
         0         0         0         0         0         0         0         0
         0         0         0         0         0         0         0         0
         0         0         0         0         0         0         0         0
         0         0         0         0         0         0         0         0
         0         0         0         0         0         0         0         0
         0         0         0         0         0         0         0         0
         0         0         0         0         0         0         0         0
         0         0         0         0         0         0         0         0
         0         0         0         0         0         0         0         0
         0         0         0         0         0         0         0         0
         0         0         0         0         0         0         0         0
         0         0         0         0         0         0         0         0
         0         0         0         0         0         0         0         0
         0         0         0         0         0         0         0         0
         0         0         0         0         0         0         0         0
         0         0         0         0         0         0         0         0
         0         0         0         0         0         0         0         0
         0         0         0         0         0         0         0         0
         0         0         0         0         0         0         0         0
         0         0         0         0         0         0         0         0
         0         0         0         0         0         0         0         0
         0         0         0         0         0         0         0         0
         0         0         0         0         0         0         0         0
         0         0         0         0         0         0         0         0
         0         0         0         0         0         0         0         0
         0         0         0         0         0         0         0         0
         0         0         0         0         0         0         0         0
         0         0         0         0         0         0         0         0
         0         0         0         0         0         0         0         0
         0         0         0         0         0         0         0         0
         0         0         0         0         0         0         0         0
         0         0         0         0         0         0         0         0
         0         0         0         0         0         0         0         0
         0         0         0         0         0         0         0         0
         0         0         0         0         0         0         0         0
         0         0         0         0         0         0         0         0
         0         0         0         0         0         0         0         0
         0         0         0         0         0         0         0         0
         0         0         0         0         0         0         0         0
         0         0         0         0         0         0         0         0
         0         0         0         0         0         0         0         0
         0         0         0         0         0         0         0         0
         0         0         0         0         0         0         0         0
         0         0         0         0         0         0         0         0
         0         0         0         0         0         0         0         0
         0         0         0         0         0         0         0         0
         0         0         0         0         0         0         0         0
         0         0         0         0         0         0         0         0
         0         0         0         0         0         0         0         0
         0         0         0         0         0         0         0         0
         0         0         0         0         0         0         0         0
         0         0         0         0         0         0         0         0
         0         0         0         0         0         0         0         0
         0         0         0         0         0         0         0         0
         0         0         0         0         0         0         0         0
         0         0         0         0         0         0         0         0
         0         0         0         0         0         0         0         0
         0         0         0         0         0         0         0         0
         0         0         0         0         0         0         0         0
         0         0         0         0         0         0         0         0
         0         0         0         0         0         0         0         0
         0         0         0         0         0         0         0         0
         0         0         0         0         0         0         0         0
         0         0         0         0         0         0         0         0
         0         0         0         0         0         0         0         0
         0         0         0         0         0         0         0         0
         0         0         0         0         0         0         0         0
         0         0         0         0         0         0         0         0
         0         0         0         0         0         0         0         0
         0         0         0         0         0         0         0         0
         0         0         0         0         0         0         0         0
         0         0         0         0         0         0         0         0
         0         0         0         0         0         0         0         0
         0         0         0         0         0         0         0         0
         0         0         0         0         0         0         0         0
         0         0         0         0         0         0         0         0
         0         0         0         0         0         0         0         0
         0         0         0         0         0         0         0         0
         0         0         0         0         0         0         0         0
         0         0         0         0         0         0         0         0
         0         0         0         0         0         0         0         0
         0         0         0         0         0         0         0         0
         0         0         0         0         0         0         0         0
         0         0         0         0         0         0         0         0
         0         0         0         0         0         0         0         0
         0         0         0         0         0         0         0         0
         0         0         0         0         0         0         0         0
         0         0         0         0         0         0         0         0
         0         0         0         0         0         0         0         0
         0         0         0         0         0         0         0         0
         0         0         0         0         0         0         0         0
         0         0         0         0         0         0         0         0
         0         0         0         0         0         0         0         0
         0         0         0         0         0         0         0         0
         0         0         0         0         0         0         0         0
         0         0         0         0         0         0         0         0
         0         0         0         0         0         0         0         0
         0         0         0         0         0         0         0         0
         0         0         0         0         0         0         0         0
         0         0         0         0         0         0         0         0
         0         0         0         0         0         0         0         0
         0         0         0         0         0         0         0         0
         0         0         0         0         0         0         0         0
         0         0         0         0         0         0         0         0
         0         0         0         0         0         0         0         0
         0         0         0         0         0         0         0         0
         0         0         0         0         0         0         0         0
         0         0         0         0         0         0         0         0
         0         0         0         0         0         0         0         0
         0         0         0         0         0         0         0         0
         0         0         0         0         0         0         0         0
         0         0         0         0         0         0         0         0
         0         0         0         0         0         0         0         0
         0         0         0         0         0         0         0         0
         0         0         0         0         0         0         0         0
         0         0         0         0         0         0         0         0
         0         0         0         0         0         0         0         0
         0         0         0         0         0         0         0         0
         0         0         0         0         0         0         0         0
         0         0         0         0         0         0         0         0
         0         0         0         0         0         0         0         0
         0         0         0         0         0         0         0         0
         0         0         0         0         0         0         0         0
         0         0         0         0         0         0         0         0
         0         0         0         0         0         0         0         0
         0         0         0         0         0         0         0         0
         0         0         0         0         0         0         0         0
         0         0         0         0         0         0         0         0
         0         0         0         0         0         0         0         0
         0         0         0         0         0         0         0         0
         0         0         0         0         0         0         0         0
         0         0         0         0         0         0         0         0
         0         0         0         0         0         0         0         0
         0         0         0         0         0         0         0         0
         0         0         0         0         0         0         0         0
         0         0         0         0         0         0         0         0
         0         0         0         0         0         0         0         0
         0         0         0         0         0         0         0         0
         0         0         0         0         0         0         0         0
         0         0         0         0         0         0         0         0
         0         0         0         0         0         0         0         0
         0         0         0         0         0         0         0         0
         0         0         0         0         0         0         0         0
         0         0         0         0         0         0         0         0
         0         0         0         0         0         0         0         0
         0         0         0         0         0         0         0         0
         0         0         0         0         0         0         0         0
         0         0         0         0         0         0         0         0
         0         0         0         0         0         0         0         0
         0         0         0         0         0         0         0         0
         0         0         0         0         0         0         0         0
         0         0         0         0         0         0         0         0
         0         0         0         0         0         0         0         0
         0         0         0         0         0         0         0         0
         0         0         0         0         0         0         0         0
         0         0         0         0         0         0         0         0
         0         0         0         0         0         0         0         0
         0         0         0         0         0         0         0         0
         0         0         0         0         0         0         0         0
         0         0         0         0         0         0         0         0
         0         0         0         0         0         0         0         0
         0         0         0         0         0         0         0         0
         0         0         0         0         0         0         0         0
         0         0         0         0         0         0         0         0
         0         0         0         0         0         0         0         0
         0         0         0         0         0         0         0         0
         0         0         0         0         0         0         0         0
         0         0         0         0         0         0         0         0
         0         0         0         0         0         0         0         0
         0         0         0         0         0         0         0         0
         0         0         0         0         0         0         0         0
         0         0         0         0         0         0         0         0
         0         0         0         0         0         0         0         0
         0         0         0         0         0         0         0         0
         0         0         0         0         0         0         0         0
         0         0         0         0         0         0         0         0
         0         0         0         0         0         0         0         0
         0         0         0         0         0         0         0         0
         0         0         0         0         0         0         0         0
         0         0         0         0         0         0         0         0
         0         0         0         0         0         0         0         0
         0         0         0         0         0         0         0         0
         0         0         0         0         0         0         0         0
         0         0         0         0         0         0         0         0
         0         0         0         0         0         0         0         0
         0         0         0         0         0         0         0         0
         0         0         0         0         0         0         0         0
         0         0         0         0         0         0         0         0
         0         0         0         0         0         0         0         0
         0         0         0         0         0         0         0         0
         0         0         0         0         0         0         0         0
         0         0         0         0         0         0         0         0
         0         0         0         0         0         0         0         0
         0         0         0         0         0         0         0         0
         0         0         0         0         0         0         0         0
         0         0         0         0         0         0         0         0
         0         0         0         0         0         0         0         0
         0         0         0         0         0         0         0         0
         0         0         0         0         0         0         0         0
         0         0         0         0         0         0         0         0
         0         0         0         0         0         0         0         0
         0         0         0         0         0         0         0         0
         0         0         0         0         0         0         0         0
         0         0         0         0         0         0         0         0
         0         0         0         0         0         0         0         0
         0         0         0         0         0         0         0         0
         0         0         0         0         0         0         0         0
         0         0         0         0         0         0         0         0
         0         0         0         0         0         0         0         0
         0         0         0         0         0         0         0         0
         0         0         0         0         0         0         0         0
         0         0         0         0         0         0         0         0
         0         0         0         0         0         0         0         0
         0         0         0         0         0         0         0         0
         0         0         0         0         0         0         0         0
         0         0         0         0         0         0         0         0
         0         0         0         0         0         0         0         0
         0         0         0         0         0         0         0         0
         0         0         0         0         0         0         0         0
         0         0         0         0         0         0         0         0
         0         0         0         0         0         0         0         0
         0         0         0         0         0         0         0         0
         0         0         0         0         0         0         0         0
         0         0         0         0         0         0         0         0
         0         0         0         0         0         0         0         0
         0         0         0         0         0         0         0         0
         0         0         0         0         0         0         0         0
         0         0         0         0         0         0         0         0
         0         0         0         0         0         0         0         0
         0         0         0         0         0         0         0         0
         0         0         0         0         0         0         0         0
         0         0         0         0         0         0         0         0
         0         0         0         0         0         0         0         0
         0         0         0         0         0         0         0         0
         0         0         0         0         0         0         0         0
         0         0         0         0         0         0         0         0
         0         0         0         0         0         0         0         0
         0         0         0         0         0         0         0         0
         0         0         0         0         0         0         0         0
         0         0         0         0         0         0         0         0
         0         0         0         0         0         0         0         0
         0         0         0         0         0         0         0         0
         0         0         0         0         0         0         0         0
         0         0         0         0         0         0         0         0
         0         0         0         0         0         0         0         0
         0         0         0         0         0         0         0         0
         0         0         0         0         0         0         0         0
         0         0         0         0         0         0         0         0
         0         0         0         0         0         0         0         0
         0         0         0         0         0         0         0         0
         0         0         0         0         0         0         0         0
         0         0         0         0         0         0         0         0
         0         0         0         0         0         0         0         0
         0         0         0         0         0         0         0         0
         0         0         0         0         0         0         0         0
         0         0         0         0         0         0         0         0
         0         0         0         0         0         0         0         0
         0         0         0         0         0         0         0         0
         0         0         0         0         0         0         0         0
         0         0         0         0         0         0         0         0
         0         0         0         0         0         0         0         0
         0         0         0         0         0         0         0         0
         0         0         0         0         0         0         0         0
         0         0         0         0         0         0         0         0
         0         0         0         0         0         0         0         0
         0         0         0         0         0         0         0         0
         0         0         0         0         0         0         0         0
         0         0         0         0         0         0         0         0
         0         0         0         0         0         0         0         0
         0         0         0         0         0         0         0         0
         0         0         0         0         0         0         0         0
         0         0         0         0         0         0         0         0
         0         0         0         0         0         0         0         0
         0         0         0         0         0         0         0         0
         0         0         0         0         0         0         0         0
         0         0         0         0         0         0         0         0
         0         0         0         0         0         0         0         0
         0         0         0         0         0         0         0         0
         0         0         0         0         0         0         0         0
         0         0         0         0         0         0         0         0
         0         0         0         0         0         0         0         0
         0         0         0         0         0         0         0         0
         0         0         0         0         0         0         0         0
         0         0         0         0         0         0         0         0
         0         0         0         0         0         0         0         0
         0         0         0         0         0         0         0         0
         0         0         0         0         0         0         0         0
         0         0         0         0         0         0         0         0
         0         0         0         0         0         0         0         0
         0         0         0         0         0         0         0         0
         0         0         0         0         0         0         0         0
         0         0         0         0         0         0         0         0
         0         0         0         0         0         0         0         0
         0         0         0         0         0         0         0         0
         0         0         0         0         0         0         0         0
         0         0         0         0         0         0         0         0
         0         0         0         0         0         0         0         0
         0         0         0         0         0         0         0         0
         0         0         0         0         0         0         0         0
         0         0         0         0         0         0         0         0
         0         0         0         0         0         0         0         0
         0         0         0         0         0         0         0         0
         0         0         0         0         0         0         0         0
         0         0         0         0         0         0         0         0
         0         0         0         0         0         0         0         0
         0         0         0         0         0         0         0         0
         0         0         0         0         0         0         0         0
         0         0         0         0         0         0         0         0
         0         0         0         0         0         0         0         0
         0         0         0         0         0         0         0         0
         0         0         0         0         0         0         0         0
         0         0         0         0         0         0         0         0
         0         0         0         0         0         0         0         0
         0         0         0         0         0         0         0         0
         0         0         0         0         0         0         0         0
         0         0         0         0         0         0         0         0
         0         0         0         0         0         0         0         0
         0         0         0         0         0         0         0         0
         0         0         0         0         0         0         0         0
         0         0         0         0         0         0         0         0
         0         0         0         0         0         0         0         0
         0         0         0         0         0         0         0         0
         0         0         0         0         0         0         0         0
         0         0         0         0         0         0         0         0
         0         0         0         0         0         0         0         0
         0         0         0         0         0         0         0         0
         0         0         0         0         0         0         0         0
         0         0         0         0         0         0         0         0
         0         0         0         0         0         0         0         0
         0         0         0         0         0         0         0         0
         0         0         0         0         0         0         0         0
         0         0         0         0         0         0         0         0
         0         0         0         0         0         0         0         0
         0         0         0         0         0         0         0         0
         0         0         0         0         0         0         0         0
         0         0         0         0         0         0         0         0
         0         0         0         0         0         0         0         0
         0         0         0         0         0         0         0         0
         0         0         0         0         0         0         0         0
         0         0         0         0         0         0         0         0
         0         0         0         0         0         0         0         0
         0         0         0         0         0         0         0         0
         0         0         0         0         0         0         0         0
         0         0         0         0         0         0         0         0
         0         0         0         0         0         0         0         0
         0         0         0         0         0         0         0         0
         0         0         0         0         0         0         0         0
         0         0         0         0         0         0         0         0
         0         0         0         0         0         0         0         0
         0         0         0         0         0         0         0         0
         0         0         0         0         0         0         0         0
         0         0         0         0         0         0         0         0
         0         0         0         0         0         0         0         0
         0         0         0         0         0         0         0         0
         0         0         0         0         0         0         0         0
         0         0         0         0         0         0         0         0
         0         0         0         0         0         0         0         0
         0         0         0         0         0         0         0         0
         0         0         0         0         0         0         0         0
         0         0         0         0         0         0         0         0
         0         0         0         0         0         0         0         0
         0         0         0         0         0         0         0         0
         0         0         0         0         0         0         0         0
         0         0         0         0         0         0         0         0
         0         0         0         0         0         0         0         0
         0         0         0         0         0         0         0         0
         0         0         0         0         0         0         0         0
         0         0         0         0         0         0         0         0
         0         0         0         0         0         0         0         0
         0         0         0         0         0         0         0         0
         0         0         0         0         0         0         0         0
         0         0         0         0         0         0         0         0
         0         0         0         0         0         0         0         0
         0         0         0         0         0         0         0         0
         0         0         0         0         0         0         0         0
         0         0         0         0         0         0         0         0
         0         0         0         0         0         0         0         0
         0         0         0         0         0         0         0         0
         0         0         0         0         0         0         0         0
         0         0         0         0         0         0         0         0
         0         0         0         0         0         0         0         0
         0         0         0         0         0         0         0         0
         0         0         0         0         0         0         0         0
         0         0         0         0         0         0         0         0
         0         0         0         0         0         0         0         0
         0         0         0         0         0         0         0         0
         0         0         0         0         0         0         0         0
         0         0         0         0         0         0         0         0
         0         0         0         0         0         0         0         0
         0         0         0         0         0         0         0         0
         0         0         0         0         0         0         0         0
         0         0         0         0         0         0         0         0
         0         0         0         0         0         0         0         0
         0         0         0         0         0         0         0         0
         0         0         0         0         0         0         0         0
         0         0         0         0         0         0         0         0
         0         0         0         0         0         0         0         0
         0         0         0         0         0         0         0         0
         0         0         0         0         0         0         0         0
         0         0         0         0         0         0         0         0
         0         0         0         0         0         0         0         0
         0         0         0         0         0         0         0         0
         0         0         0         0         0         0         0         0
         0         0         0         0         0         0         0         0
         0         0         0         0         0         0         0         0
         0         0         0         0         0         0         0         0
         0         0         0         0         0         0         0         0
         0         0         0         0         0         0         0         0
         0         0         0         0         0         0         0         0
         0         0         0         0         0         0         0         0
         0         0         0         0         0         0         0         0
         0         0         0         0         0         0         0         0
         0         0         0         0         0         0         0         0
         0         0         0         0         0         0         0         0
         0         0         0         0         0         0         0         0
         0         0         0         0         0         0         0         0
         0         0         0         0         0         0         0         0
         0         0         0         0         0         0         0         0
         0         0         0         0         0         0         0         0
         0         0         0         0         0         0         0         0
         0         0         0         0         0         0         0         0
         0         0         0         0         0         0         0         0
         0         0         0         0         0         0         0         0
         0         0         0         0         0         0         0         0
         0         0         0         0         0         0         0         0
         0         0         0         0         0         0         0         0
         0         0         0         0         0         0         0         0
         0         0         0         0         0         0         0         0
         0         0         0         0         0         0         0         0
         0         0         0         0         0         0         0         0
         0         0         0         0         0         0         0         0
         0         0         0         0         0         0         0         0
         0         0         0         0         0         0         0         0
         0         0         0         0         0         0         0         0
         0         0         0         0         0         0         0         0
         0         0         0         0         0         0         0         0
         0         0         0         0         0         0         0         0
         0         0         0         0         0         0         0         0
         0         0         0         0         0         0         0         0
         0         0         0         0         0         0         0         0
         0         0         0         0         0         0         0         0
         0         0         0         0         0         0         0         0
         0         0         0         0         0         0         0         0
         0         0         0         0         0         0         0         0
         0         0         0         0         0         0         0         0
         0         0         0         0         0         0         0         0
         0         0         0         0         0         0         0         0
         0         0         0         0         0         0         0         0
         0         0         0         0         0         0         0         0
         0         0         0         0         0         0         0         0
         0         0         0         0         0         0         0         0
         0         0         0         0         0         0         0         0
         0         0         0         0         0         0         0         0
         0         0         0         0         0         0         0         0
         0         0         0         0         0         0         0         0
         0         0         0         0         0         0         0         0
         0         0         0         0         0         0         0         0
         0         0         0         0         0         0         0         0
         0         0         0         0         0         0         0         0
         0         0         0         0         0         0         0         0
         0         0         0         0         0         0         0         0
         0         0         0         0         0         0         0         0
         0         0         0         0         0         0         0         0
         0         0         0         0         0         0         0         0
         0         0         0         0         0         0         0         0
         0         0         0         0         0         0         0         0
         0         0         0         0         0         0         0         0
         0         0         0         0         0         0         0         0
         0         0         0         0         0         0         0         0
         0         0         0         0         0         0         0         0
         0         0         0         0         0         0         0         0
         0         0         0         0         0         0         0         0
         0         0         0         0         0         0         0         0
         0         0         0         0         0         0         0         0
         0         0         0         0         0         0         0         0
         0         0         0         0         0         0         0         0
         0         0         0         0         0         0         0         0
         0         0         0         0         0         0         0         0
         0         0         0         0         0         0         0         0
         0         0         0         0         0         0         0         0
         0         0         0         0         0         0         0         0
         0         0         0         0         0         0         0         0
         0         0         0         0         0         0         0         0
         0         0         0         0         0         0         0         0
         0         0         0         0         0         0         0         0
         0         0         0         0         0         0         0         0
         0         0         0         0         0         0         0         0
         0         0         0         0         0         0         0         0
         0         0         0         0         0         0         0         0
         0         0         0         0         0         0         0         0
         0         0         0         0         0         0         0         0
         0         0         0         0         0         0         0         0
         0         0         0         0         0         0         0         0
         0         0         0         0         0         0         0         0
         0         0         0         0         0         0         0         0
         0         0         0         0         0         0         0         0
         0         0         0         0         0         0         0         0
         0         0         0         0         0         0         0         0
         0         0         0         0         0         0         0         0
         0         0         0         0         0         0         0         0
         0         0         0         0         0         0         0         0
         0         0         0         0         0         0         0         0
         0         0         0         0         0         0         0         0
         0         0         0         0         0         0         0         0
         0         0         0         0         0         0         0         0
         0         0         0         0         0         0         0         0
         0         0         0         0         0         0         0         0
         0         0         0         0         0         0         0         0
         0         0         0         0         0         0         0         0
         0         0         0         0         0         0         0         0
         0         0         0         0         0         0         0         0
         0         0         0         0         0         0         0         0
         0         0         0         0         0         0         0         0
         0         0         0         0         0         0         0         0
         0         0         0         0         0         0         0         0
         0         0         0         0         0         0         0         0
         0         0         0         0         0         0         0         0
         0         0         0         0         0         0         0         0
         0         0         0         0         0         0         0         0
         0         0         0         0         0         0         0         0
         0         0         0         0         0         0         0         0
         0         0         0         0         0         0         0         0
         0         0         0         0         0         0         0         0
         0         0         0         0         0         0         0         0
         0         0         0         0         0         0         0         0
         0         0         0         0         0         0         0         0
         0         0         0         0         0         0         0         0
         0         0         0         0         0         0         0         0
         0         0         0         0         0         0         0         0
         0         0         0         0         0         0         0         0
         0         0         0         0         0         0         0         0
         0         0         0         0         0         0         0         0
         0         0         0         0         0         0         0         0
         0         0         0         0         0         0         0         0
         0         0         0         0         0         0         0         0
         0         0         0         0         0         0         0         0
         0         0         0         0         0         0         0         0
         0         0         0         0         0         0         0         0
         0         0         0         0         0         0         0         0
         0         0         0         0         0         0         0         0
         0         0         0         0         0         0         0         0
         0         0         0         0         0         0         0         0
         0         0         0         0         0         0         0         0
         0         0         0         0         0         0         0         0
         0         0         0         0         0         0         0         0
         0         0         0         0         0         0         0         0
         0         0         0         0         0         0         0         0
         0         0         0         0         0         0         0         0
         0         0         0         0         0         0         0         0
         0         0         0         0         0         0         0         0
         0         0         0         0         0         0         0         0
         0         0         0         0         0         0         0         0
         0         0         0         0         0         0         0         0
         0         0         0         0         0         0         0         0
         0         0         0         0         0         0         0         0
         0         0         0         0         0         0         0         0
         0         0         0         0         0         0         0         0
         0         0         0         0         0         0         0         0
         0         0         0         0         0         0         0         0
         0         0         0         0         0         0         0         0
         0         0         0         0         0         0         0         0
         0         0         0         0         0         0         0         0
         0         0         0         0         0         0         0         0
         0         0         0         0         0         0         0         0
         0         0         0         0         0         0         0         0
         0         0         0         0         0         0         0         0
         0         0         0         0         0         0         0         0
         0         0         0         0         0         0         0         0
         0         0         0         0         0         0         0         0
         0         0         0         0         0         0         0         0
         0         0         0         0         0         0         0         0
         0         0         0         0         0         0         0         0
         0         0         0         0         0         0         0         0
         0         0         0         0         0         0         0         0
         0         0         0         0         0         0         0         0
         0         0         0         0         0         0         0         0
         0         0         0         0         0         0         0         0
         0         0         0         0         0         0         0         0
         0         0         0         0         0         0         0         0
         0         0         0         0         0         0         0         0
         0         0         0         0         0         0         0         0
         0         0         0         0         0         0         0         0
         0         0         0         0         0         0         0         0
         0         0         0         0         0         0         0         0
         0         0         0         0         0         0         0         0
         0         0         0         0         0         0         0         0
         0         0         0         0         0         0         0         0
         0         0         0         0         0         0         0         0
         0         0         0         0         0         0         0         0
         0         0         0         0         0         0         0         0
         0         0         0         0         0         0         0         0
         0         0         0         0         0         0         0         0
         0         0         0         0         0         0         0         0
         0         0         0         0         0         0         0         0
         0         0         0         0         0         0         0         0
         0         0         0         0         0         0         0         0
         0         0         0         0         0         0         0         0
         0         0         0         0         0         0         0         0
         0         0         0         0         0         0         0         0
         0         0         0         0         0         0         0         0
         0         0         0         0         0         0         0         0
         0         0         0         0         0         0         0         0
         0         0         0         0         0         0         0         0
         0         0         0         0         0         0         0         0
         0         0         0         0         0         0         0         0
         0         0         0         0         0         0         0         0
         0         0         0         0         0         0         0         0
         0         0         0         0         0         0         0         0
         0         0         0         0         0         0         0         0
         0         0         0         0         0         0         0         0
         0         0         0         0         0         0         0         0
         0         0         0         0         0         0         0         0
         0         0         0         0         0         0         0         0
         0         0         0         0         0         0         0         0
         0         0         0         0         0         0         0         0
         0         0         0         0         0         0         0         0
         0         0         0         0         0         0         0         0
         0         0         0         0         0         0         0         0
         0         0         0         0         0         0         0         0
         0         0         0         0         0         0         0         0
         0         0         0         0         0         0         0         0
         0         0         0         0         0         0         0         0
         0         0         0         0         0         0         0         0
         0         0         0         0         0         0         0         0
         0         0         0         0         0         0         0         0
         0         0         0         0         0         0         0         0
         0         0         0         0         0         0         0         0
         0         0         0         0         0         0         0         0
         0         0         0         0         0         0         0         0
         0         0         0         0         0         0         0         0
         0         0         0         0         0         0         0         0
         0         0         0         0         0         0         0         0
         0         0         0         0         0         0         0         0
         0         0         0         0         0         0         0         0
         0         0         0         0         0         0         0         0
         0         0         0         0         0         0         0         0
         0         0         0         0         0         0         0         0
         0         0         0         0         0         0         0         0
         0         0         0         0         0         0         0         0
         0         0         0         0         0         0         0         0
         0         0         0         0         0         0         0         0
         0         0         0         0         0         0         0         0
         0         0         0         0         0         0         0         0
         0         0         0         0         0         0         0         0
         0         0         0         0         0         0         0         0
         0         0         0         0         0         0         0         0
         0         0         0         0         0         0         0         0
         0         0         0         0         0         0         0         0
         0         0         0         0         0         0         0         0
         0         0         0         0         0         0         0         0
         0         0         0         0         0         0         0         0
         0         0         0         0         0         0         0         0
         0         0         0         0         0         0         0         0
         0         0         0         0         0         0         0         0
         0         0         0         0         0         0         0         0
         0         0         0         0         0         0         0         0
         0         0         0         0         0         0         0         0
         0         0         0         0         0         0         0         0
         0         0         0         0         0         0         0         0
         0         0         0         0         0         0         0         0
         0         0         0         0         0         0         0         0
         0         0         0         0         0         0         0         0
         0         0         0         0         0         0         0         0
         0         0         0         0         0         0         0         0
         0         0         0         0         0         0         0         0
         0         0         0         0         0         0         0         0
         0         0         0         0         0         0         0         0
         0         0         0         0         0         0         0         0
         0         0         0         0         0         0         0         0
         0         0         0         0         0         0         0         0
         0         0         0         0         0         0         0         0
         0         0         0         0         0         0         0         0
         0         0         0         0         0         0         0         0
         0         0         0         0         0         0         0         0
         0         0         0         0         0         0         0         0
         0         0         0         0         0         0         0         0
         0         0         0         0         0         0         0         0
         0         0         0         0         0         0         0         0
         0         0         0         0         0         0         0         0
         0         0         0         0         0         0         0         0
         0         0         0         0         0         0         0         0
         0         0         0         0         0         0         0         0
         0         0         0         0         0         0         0         0
         0         0         0         0         0         0         0         0
         0         0         0         0         0         0         0         0
         0         0         0         0         0         0         0         0
         0         0         0         0         0         0         0         0
         0         0         0         0         0         0         0         0
         0         0         0         0         0         0         0         0
         0         0         0         0         0         0         0         0
         0         0         0         0         0         0         0         0
         0         0         0         0         0         0         0         0
         0         0         0         0         0         0         0         0
         0         0         0         0         0         0         0         0
         0         0         0         0         0         0         0         0
         0         0         0         0         0         0         0         0
         0         0         0         0         0         0         0         0
         0         0         0         0         0         0         0         0
         0         0         0         0         0         0         0         0
         0         0         0         0         0         0         0         0
         0         0         0         0         0         0         0         0
         0         0         0         0         0         0         0         0
         0         0         0         0         0         0         0         0
         0         0         0         0         0         0         0         0
         0         0         0         0         0         0         0         0
         0         0         0         0         0         0         0         0
         0         0         0         0         0         0         0         0
         0         0         0         0         0         0         0         0
         0         0         0         0         0         0         0         0
         0         0         0         0         0         0         0         0
         0         0         0         0         0         0         0         0
         0         0         0         0         0         0         0         0
         0         0         0         0         0         0         0         0
         0         0         0         0         0         0         0         0
         0         0         0         0         0         0         0         0
         0         0         0         0         0         0         0         0
         0         0         0         0         0         0         0         0
         0         0         0         0         0         0         0         0
         0         0         0         0         0         0         0         0
         0         0         0         0         0         0         0         0
         0         0         0         0         0         0         0         0
         0         0         0         0         0         0         0         0
         0         0         0         0         0         0         0         0
         0         0         0         0         0         0         0         0
         0         0         0         0         0         0         0         0
         0         0         0         0         0         0         0         0
         0         0         0         0         0         0         0         0
         0         0         0         0         0         0         0         0
         0         0         0         0         0         0         0         0
         0         0         0         0         0         0         0         0
         0         0         0         0         0         0         0         0
         0         0         0         0         0         0         0         0
         0         0         0         0         0         0         0         0
         0         0         0         0         0         0         0         0
         0         0         0         0         0         0         0         0
         0         0         0         0         0         0         0         0
         0         0         0         0         0         0         0         0
         0         0         0         0         0         0         0         0
         0         0         0         0         0         0         0         0
         0         0         0         0         0         0         0         0
         0         0         0         0         0         0         0         0
         0         0         0         0         0         0         0         0
         0         0         0         0         0         0         0         0
         0         0         0         0         0         0         0         0
         0         0         0         0         0         0         0         0
         0         0         0         0         0         0         0         0
         0         0         0         0         0         0         0         0
         0         0         0         0         0         0         0         0
         0         0         0         0         0         0         0         0
         0         0         0         0         0         0         0         0
         0         0         0         0         0         0         0         0
         0         0         0         0         0         0         0         0
         0         0         0         0         0         0         0         0
         0         0         0         0         0         0         0         0
         0         0         0         0         0         0         0         0
         0         0         0         0         0         0         0         0
         0         0         0         0         0         0         0         0
         0         0         0         0         0         0         0         0
         0         0         0         0         0         0         0         0
         0         0         0         0         0         0         0         0
         0         0         0         0         0         0         0         0
         0         0         0         0         0         0         0         0
         0         0         0         0         0         0         0         0
         0         0         0         0         0         0         0         0
         0         0         0         0         0         0         0         0
         0         0         0         0         0         0         0         0
         0         0         0         0         0         0         0         0
         0         0         0         0         0         0         0         0
         0         0         0         0         0         0         0         0
         0         0         0         0         0         0         0         0
         0         0         0         0         0         0         0         0
         0         0         0         0         0         0         0         0
         0         0         0         0         0         0         0         0
         0         0         0         0         0         0         0         0
         0         0         0         0         0         0         0         0
         0         0         0         0         0         0         0         0
         0         0         0         0         0         0         0         0
         0         0         0         0         0         0         0         0
         0         0         0         0         0         0         0         0
         0         0         0         0         0         0         0         0
         0         0         0         0         0         0         0         0
         0         0         0         0         0         0         0         0
         0         0         0         0         0         0         0         0
         0         0         0         0         0         0         0         0
         0         0         0         0         0         0         0         0
         0         0         0         0         0         0         0         0
         0         0         0         0         0         0         0         0
         0         0         0         0         0         0         0         0
         0         0         0         0         0         0         0         0
         0         0         0         0         0         0         0         0
         0         0         0         0         0         0         0         0
         0         0         0         0         0         0         0         0
         0         0         0         0         0         0         0         0
         0         0         0         0         0         0         0         0
         0         0         0         0         0         0         0         0
         0         0         0         0         0         0         0         0
         0         0         0         0         0         0         0         0
         0         0         0         0         0         0         0         0
         0         0         0         0         0         0         0         0
         0         0         0         0         0         0         0         0
         0         0         0         0         0         0         0         0
         0         0         0         0         0         0         0         0
         0         0         0         0         0         0         0         0
         0         0         0         0         0         0         0         0
         0         0         0         0         0         0         0         0
         0         0         0         0         0         0         0         0
         0         0         0         0         0         0         0         0
         0         0         0         0         0         0         0         0
         0         0         0         0         0         0         0         0
         0         0         0         0         0         0         0         0
         0         0         0         0         0         0         0         0
         0         0         0         0         0         0         0         0
         0         0         0         0         0         0         0         0
         0         0         0         0         0         0         0         0
         0         0         0         0         0         0         0         0
         0         0         0         0         0         0         0         0
         0         0         0         0         0         0         0         0
         0         0         0         0         0         0         0         0
         0         0         0         0         0         0         0         0
         0         0         0         0         0         0         0         0
         0         0         0         0         0         0         0         0
         0         0         0         0         0         0         0         0
         0         0         0         0         0         0         0         0
         0         0         0         0         0         0         0         0
         0         0         0         0         0         0         0         0
         0         0         0         0         0         0         0         0
         0         0         0         0         0         0         0         0
         0         0         0         0         0         0         0         0
         0         0         0         0         0         0         0         0
         0         0         0         0         0         0         0         0
         0         0         0         0         0         0         0         0
         0         0         0         0         0         0         0         0
         0         0         0         0         0         0         0         0
         0         0         0         0         0         0         0         0
         0         0         0         0         0         0         0         0
         0         0         0         0         0         0         0         0
         0         0         0         0         0         0         0         0
         0         0         0         0         0         0         0         0
         0         0         0         0         0         0         0         0
         0         0         0         0         0         0         0         0
         0         0         0         0         0         0         0         0
         0         0         0         0         0         0         0         0
         0         0         0         0         0         0         0         0
         0         0         0         0         0         0         0         0
         0         0         0         0         0         0         0         0
         0         0         0         0         0         0         0         0
         0         0         0         0         0         0         0         0
         0         0         0         0         0         0         0         0
         0         0         0         0         0         0         0         0
         0         0         0         0         0         0         0         0
         0         0         0         0         0         0         0         0
         0         0         0         0         0         0         0         0
         0         0         0         0         0         0         0         0
         0         0         0         0         0         0         0         0
         0         0         0         0         0         0         0         0
         0         0         0         0         0         0         0         0
         0         0         0         0         0         0         0         0
         0         0         0         0         0         0         0         0
         0         0         0         0         0         0         0         0
         0         0         0         0         0         0         0         0
         0         0         0         0         0         0         0         0
         0         0         0         0         0         0         0         0
         0         0         0         0         0         0         0         0
         0         0         0         0         0         0         0         0
         0         0         0         0         0         0         0         0
         0         0         0         0         0         0         0         0
         0         0         0         0         0         0         0         0
         0         0         0         0         0         0         0         0
         0         0         0         0         0         0         0         0
         0         0         0         0         0         0         0         0
         0         0         0         0         0         0         0         0
         0         0         0         0         0         0         0         0
         0         0         0         0         0         0         0         0
         0         0         0         0         0         0         0         0
         0         0         0         0         0         0         0         0
         0         0         0         0         0         0         0         0
         0         0         0         0         0         0         0         0
         0         0         0         0         0         0         0         0
         0         0         0         0         0         0         0         0
         0         0         0         0         0         0         0         0
         0         0         0         0         0         0         0         0
         0         0         0         0         0         0         0         0
         0         0         0         0         0         0         0         0
         0         0         0         0         0         0         0         0
         0         0         0         0         0         0         0         0
         0         0         0         0         0         0         0         0
         0         0         0         0         0         0         0         0
         0         0         0         0         0         0         0         0
         0         0         0         0         0         0         0         0
         0         0         0         0         0         0         0         0
         0         0         0         0         0         0         0         0
         0         0         0         0         0         0         0         0
         0         0         0         0         0         0         0         0
         0         0         0         0         0         0         0         0
         0         0         0         0         0         0         0         0
         0         0         0         0         0         0         0         0
         0         0         0         0         0         0         0         0
         0         0         0         0         0         0         0         0
         0         0         0         0         0         0         0         0
         0         0         0         0         0         0         0         0
         0         0         0         0         0         0         0         0
         0         0         0         0         0         0         0         0
         0         0         0         0         0         0         0         0
         0         0         0         0         0         0         0         0
         0         0         0         0         0         0         0         0
         0         0         0         0         0         0         0         0
         0         0         0         0         0         0         0         0
         0         0         0         0         0         0         0         0
         0         0         0         0         0         0         0         0
         0         0         0         0         0         0         0         0
         0         0         0         0         0         0         0         0
         0         0         0         0         0         0         0         0
         0         0         0         0         0         0         0         0
         0         0         0         0         0         0         0         0
         0         0         0         0         0         0         0         0
         0         0         0         0         0         0         0         0
         0         0         0         0         0         0         0         0
         0         0         0         0         0         0         0         0
         0         0         0         0         0         0         0         0
         0         0         0         0         0         0         0         0
         0         0         0         0         0         0         0         0
         0         0         0         0         0         0         0         0
         0         0         0         0         0         0         0         0
         0         0         0         0         0         0         0         0
         0         0         0         0         0         0         0         0
         0         0         0         0         0         0         0         0
         0         0         0         0         0         0         0         0
         0         0         0         0         0         0         0         0
         0         0         0         0         0         0         0         0
         0         0         0         0         0         0         0         0
         0         0         0         0         0         0         0         0
         0         0         0         0         0         0         0         0
         0         0         0         0         0         0         0         0
         0         0         0         0         0         0         0         0
         0         0         0         0         0         0         0         0
         0         0         0         0         0         0         0         0
         0         0         0         0         0         0         0         0
         0         0         0         0         0         0         0         0
         0         0         0         0         0         0         0         0
         0         0         0         0         0         0         0         0
         0         0         0         0         0         0         0         0
         0         0         0         0         0         0         0         0
         0         0         0         0         0         0         0         0
         0         0         0         0         0         0         0         0
         0         0         0         0         0         0         0         0
         0         0         0         0         0         0         0         0
         0         0         0         0         0         0         0         0
         0         0         0         0         0         0         0         0
         0         0         0         0         0         0         0         0
         0         0         0         0         0         0         0         0
         0         0         0         0         0         0         0         0
         0         0         0         0         0         0         0         0
         0         0         0         0         0         0         0         0
         0         0         0         0         0         0         0         0
         0         0         0         0         0         0         0         0
         0         0         0         0         0         0         0         0
         0         0         0         0         0         0         0         0
         0         0         0         0         0         0         0         0
         0         0         0         0         0         0         0         0
         0         0         0         0         0         0         0         0
         0         0         0         0         0         0         0         0
         0         0         0         0         0         0         0         0
         0         0         0         0         0         0         0         0
         0         0         0         0         0         0         0         0
         0         0         0         0         0         0         0         0
         0         0         0         0         0         0         0         0
         0         0         0         0         0         0         0         0
         0         0         0         0         0         0         0         0
         0         0         0         0         0         0         0         0
         0         0         0         0         0         0         0         0
         0         0         0         0         0         0         0         0
         0         0         0         0         0         0         0         0
         0         0         0         0         0         0         0         0
         0         0         0         0         0         0         0         0
         0         0         0         0         0         0         0         0
         0         0         0         0         0         0         0         0
         0         0         0         0         0         0         0         0
         0         0         0         0         0         0         0         0
         0         0         0         0         0         0         0         0
         0         0         0         0         0         0         0         0
         0         0         0         0         0         0         0         0
         0         0         0         0         0         0         0         0
         0         0         0         0         0         0         0         0
         0         0         0         0         0         0         0         0
         0         0         0         0         0         0         0         0
         0         0         0         0         0         0         0         0
         0         0         0         0         0         0         0         0
         0         0         0         0         0         0         0         0
         0         0         0         0         0         0         0         0
         0         0         0         0         0         0         0         0
         0         0         0         0         0         0         0         0
         0         0         0         0         0         0         0         0
         0         0         0         0         0         0         0         0
         0         0         0         0         0         0         0         0
         0         0         0         0         0         0         0         0
         0         0         0         0         0         0         0         0
         0         0         0         0         0         0         0         0
         0         0         0         0         0         0         0         0
         0         0         0         0         0         0         0         0
         0         0         0         0         0         0         0         0
         0         0         0         0         0         0         0         0
         0         0         0         0         0         0         0         0
         0         0         0         0         0         0         0         0
         0         0         0         0         0         0         0         0
         0         0         0         0         0         0         0         0
         0         0         0         0         0         0         0         0
         0         0         0         0         0         0         0         0
         0         0         0         0         0         0         0         0
         0         0         0         0         0         0         0         0
         0         0         0         0         0         0         0         0
         0         0         0         0         0         0         0         0
         0         0         0         0         0         0         0         0
         0         0         0         0         0         0         0         0
         0         0         0         0         0         0         0         0
         0         0         0         0         0         0         0         0
         0         0         0         0         0         0         0         0
         0         0         0         0         0         0         0         0
         0         0         0         0         0         0         0         0
         0         0         0         0         0         0         0         0
         0         0         0         0         0         0         0         0
         0         0         0         0         0         0         0         0
         0         0         0         0         0         0         0         0
         0         0         0         0         0         0         0         0
         0         0         0         0         0         0         0         0
         0         0         0         0         0         0         0         0
         0         0         0         0         0         0         0         0
         0         0         0         0         0         0         0         0
         0         0         0         0         0         0         0         0
         0         0         0         0         0         0         0         0
         0         0         0         0         0         0         0         0
         0         0         0         0         0         0         0         0
         0         0         0         0         0         0         0         0
         0         0         0         0         0         0         0         0
         0         0         0         0         0         0         0         0
         0         0         0         0         0         0         0         0
         0         0         0         0         0         0         0         0
         0         0         0         0         0         0         0         0
         0         0         0         0         0         0         0         0
         0         0         0         0         0         0         0         0
         0         0         0         0         0         0         0         0
         0         0         0         0         0         0         0         0
         0         0         0         0         0         0         0         0
         0         0         0         0         0         0         0         0
         0         0         0         0         0         0         0         0
         0         0         0         0         0         0         0         0
         0         0         0         0         0         0         0         0
         0         0         0         0         0         0         0         0
         0         0         0         0         0         0         0         0
         0         0         0         0         0         0         0         0
         0         0         0         0         0         0         0         0
         0         0         0         0         0         0         0         0
         0         0         0         0         0         0         0         0
         0         0         0         0         0         0         0         0
         0         0         0         0         0         0         0         0
         0         0         0         0         0         0         0         0
         0         0         0         0         0         0         0         0
         0         0         0         0         0         0         0         0
         0         0         0         0         0         0         0         0
         0         0         0         0         0         0         0         0
         0         0         0         0         0         0         0         0
         0         0         0         0         0         0         0         0
         0         0         0         0         0         0         0         0
         0         0         0         0         0         0         0         0
         0         0         0         0         0         0         0         0
         0         0         0         0         0         0         0         0
         0         0         0         0         0         0         0         0
         0         0         0         0         0         0         0         0
         0         0         0         0         0         0         0         0
         0         0         0         0         0         0         0         0
         0         0         0         0         0         0         0         0
         0         0         0         0         0         0         0         0
         0         0         0         0         0         0         0         0
         0         0         0         0         0         0         0         0
         0         0         0         0         0         0         0         0
         0         0         0         0         0         0         0         0
         0         0         0         0         0         0         0         0
         0         0         0         0         0         0         0         0
         0         0         0         0         0         0         0         0
         0         0         0         0         0         0         0         0
         0         0         0         0         0         0         0         0
         0         0         0         0         0         0         0         0
         0         0         0         0         0         0         0         0
         0         0         0         0         0         0         0         0
         0         0         0         0         0         0         0         0
         0         0         0         0         0         0         0         0
         0         0         0         0         0         0         0         0
         0         0         0         0         0         0         0         0
         0         0         0         0         0         0         0         0
         0         0         0         0         0         0         0         0
         0         0         0         0         0         0         0         0
         0         0         0         0         0         0         0         0
         0         0         0         0         0         0         0         0
         0         0         0         0         0         0         0         0
         0         0         0         0         0         0         0         0
         0         0         0         0         0         0         0         0
         0         0         0         0         0         0         0         0
         0         0         0         0         0         0         0         0
         0         0         0         0         0         0         0         0
         0         0         0         0         0         0         0         0
         0         0         0         0         0         0         0         0
         0         0         0         0         0         0         0         0
         0         0         0         0         0         0         0         0
         0         0         0         0         0         0         0         0
         0         0         0         0         0         0         0         0
         0         0         0         0         0         0         0         0
         0         0         0         0         0         0         0         0
         0         0         0         0         0         0         0         0
         0         0         0         0         0         0         0         0
         0         0         0         0         0         0         0         0
         0         0         0         0         0         0         0         0
         0         0         0         0         0         0         0         0
         0         0         0         0         0         0         0         0
         0         0         0         0         0         0         0         0
         0         0         0         0         0         0         0         0
         0         0         0         0         0         0         0         0
         0         0         0         0         0         0         0         0
         0         0         0         0         0         0         0         0
         0         0         0         0         0         0         0         0
         0         0         0         0         0         0         0         0
         0         0         0         0         0         0         0         0
         0         0         0         0         0         0         0         0
         0         0         0         0         0         0         0         0
         0         0         0         0         0         0         0         0
         0         0         0         0         0         0         0         0
         0         0         0         0         0         0         0         0
         0         0         0         0         0         0         0         0
         0         0         0         0         0         0         0         0
         0         0         0         0         0         0         0         0
         0         0         0         0         0         0         0         0
         0         0         0         0         0         0         0         0
         0         0         0         0         0         0         0         0
         0         0         0         0         0         0         0         0
         0         0         0         0         0         0         0         0
         0         0         0         0         0         0         0         0
         0         0         0         0         0         0         0         0
         0         0         0         0         0         0         0         0
         0         0         0         0         0         0         0         0
         0         0         0         0         0         0         0         0
         0         0         0         0         0         0         0         0
         0         0         0         0         0         0         0         0
         0         0         0         0         0         0         0         0
         0         0         0         0         0         0         0         0
         0         0         0         0         0         0         0         0
         0         0         0         0         0         0         0         0
         0         0         0         0         0         0         0         0
         0         0         0         0         0         0         0         0
         0         0         0         0         0         0         0         0
         0         0         0         0         0         0         0         0
         0         0         0         0         0         0         0         0
         0         0         0         0         0         0         0         0
         0         0         0         0         0         0         0         0
         0         0         0         0         0         0         0         0
         0         0         0         0         0         0         0         0
         0         0         0         0         0         0         0         0
         0         0         0         0         0         0         0         0
         0         0         0         0         0         0         0         0
         0         0         0         0         0         0         0         0
         0         0         0         0         0         0         0         0
         0         0         0         0         0         0         0         0
         0         0         0         0         0         0         0         0
         0         0         0         0         0         0         0         0
         0         0         0         0         0         0         0         0
         0         0         0         0         0         0         0         0
         0         0         0         0         0         0         0         0
         0         0         0         0         0         0         0         0
         0         0         0         0         0         0         0         0
         0         0         0         0         0         0         0         0
         0         0         0         0         0         0         0         0
         0         0         0         0         0         0         0         0
         0         0         0         0         0         0         0         0
         0         0         0         0         0         0         0         0
         0         0         0         0         0         0         0         0
         0         0         0         0         0         0         0         0
         0         0         0         0         0         0         0         0
         0         0         0         0         0         0         0         0
         0         0         0         0         0         0         0         0
         0         0         0         0         0         0         0         0
         0         0         0         0         0         0         0         0
         0         0         0         0         0         0         0         0
         0         0         0         0         0         0         0         0
         0         0         0         0         0         0         0         0
         0         0         0         0         0         0         0         0
         0         0         0         0         0         0         0         0
         0         0         0         0         0         0         0         0
         0         0         0         0         0         0         0         0
         0         0         0         0         0         0         0         0
         0         0         0         0         0         0         0         0
         0         0         0         0         0         0         0         0
         0         0         0         0         0         0         0         0
         0         0         0         0         0         0         0         0
         0         0         0         0         0         0         0         0
         0         0         0         0         0         0         0         0
         0         0         0         0         0         0         0         0
         0         0         0         0         0         0         0         0
         0         0         0         0         0         0         0         0
         0         0         0         0         0         0         0         0
         0         0         0         0         0         0         0         0
         0         0         0         0         0         0         0         0
         0         0         0         0         0         0         0         0
         0         0         0         0         0         0         0         0
         0         0         0         0         0         0         0         0
         0         0         0         0         0         0         0         0
         0         0         0         0         0         0         0         0
         0         0         0         0         0         0         0         0
         0         0         0         0         0         0         0         0
         0         0         0         0         0         0         0         0
         0         0         0         0         0         0         0         0
         0         0         0         0         0         0         0         0
         0         0         0         0         0         0         0         0
         0         0         0         0         0         0         0         0
         0         0         0         0         0         0         0         0
         0         0         0         0         0         0         0         0
         0         0         0         0         0         0         0         0
         0         0         0         0         0         0         0         0
         0         0         0         0         0         0         0         0
         0         0         0         0         0         0         0         0
         0         0         0         0         0         0         0         0
         0         0         0         0         0         0         0         0
         0         0         0         0         0         0         0         0
         0         0         0         0         0         0         0         0
         0         0         0         0         0         0         0         0
         0         0         0         0         0         0         0         0
         0         0         0         0         0         0         0         0
         0         0         0         0         0         0         0         0
         0         0         0         0         0         0         0         0
         0         0         0         0         0         0         0         0
         0         0         0         0         0         0         0         0
         0         0         0         0         0         0         0         0
         0         0         0         0         0         0         0         0
         0         0         0         0         0         0         0         0
         0         0         0         0         0         0         0         0
         0         0         0         0         0         0         0         0
         0         0         0         0         0         0         0         0
         0         0         0         0         0         0         0         0
         0         0         0         0         0         0         0         0
         0         0         0         0         0         0         0         0
         0         0         0         0         0         0         0         0
         0         0         0         0         0         0         0         0
         0         0         0         0         0         0         0         0
         0         0         0         0         0         0         0         0
         0         0         0         0         0         0         0         0
         0         0         0         0         0         0         0         0
         0         0         0         0         0         0         0         0
         0         0         0         0         0         0         0         0
         0         0         0         0         0         0         0         0
         0         0         0         0         0         0         0         0
         0         0         0         0         0         0         0         0
         0         0         0         0         0         0         0         0
         0         0         0         0         0         0         0         0
         0         0         0         0         0         0         0         0
         0         0         0         0         0         0         0         0
         0         0         0         0         0         0         0         0
         0         0         0         0         0         0         0         0
         0         0         0         0         0         0         0         0
         0         0         0         0         0         0         0         0
         0         0         0         0         0         0         0         0
         0         0         0         0         0         0         0         0
         0         0         0         0         0         0         0         0
         0         0         0         0         0         0         0         0
         0         0         0         0         0         0         0         0
         0         0         0         0         0         0         0         0
         0         0         0         0         0         0         0         0
         0         0         0         0         0         0         0         0
         0         0         0         0         0         0         0         0
         0         0         0         0         0         0         0         0
         0         0         0         0         0         0         0         0
         0         0         0         0         0         0         0         0
         0         0         0         0         0         0         0         0
         0         0         0         0         0         0         0         0
         0         0         0         0         0         0         0         0
         0         0         0         0         0         0         0         0
         0         0         0         0         0         0         0         0
         0         0         0         0         0         0         0         0
         0         0         0         0         0         0         0         0
         0         0         0         0         0         0         0         0
         0         0         0         0         0         0         0         0
         0         0         0         0         0         0         0         0
         0         0         0         0         0         0         0         0
         0         0         0         0         0         0         0         0
         0         0         0         0         0         0         0         0
         0         0         0         0         0         0         0         0
         0         0         0         0         0         0         0         0
         0         0         0         0         0         0         0         0
         0         0         0         0         0         0         0         0
         0         0         0         0         0         0         0         0
         0         0         0         0         0         0         0         0
         0         0         0         0         0         0         0         0
         0         0         0         0         0         0         0         0
         0         0         0         0         0         0         0         0
         0         0         0         0         0         0         0         0
         0         0         0         0         0         0         0         0
         0         0         0         0         0         0         0         0
         0         0         0         0         0         0         0         0
         0         0         0         0         0         0         0         0
         0         0         0         0         0         0         0         0
         0         0         0         0         0         0         0         0
         0         0         0         0         0         0         0         0
         0         0         0         0         0         0         0         0
         0         0         0         0         0         0         0         0
         0         0         0         0         0         0         0         0
         0         0         0         0         0         0         0         0
         0         0         0         0         0         0         0         0
         0         0         0         0         0         0         0         0
         0         0         0         0         0         0         0         0
         0         0         0         0         0         0         0         0
         0         0         0         0         0         0         0         0
         0         0         0         0         0         0         0         0
         0         0         0         0         0         0         0         0
         0         0         0         0         0         0         0         0
         0         0         0         0         0         0         0         0
         0         0         0         0         0         0         0         0
         0         0         0         0         0         0         0         0
         0         0         0         0         0         0         0         0
         0         0         0         0         0         0         0         0
         0         0         0         0         0         0         0         0
         0         0         0         0         0         0         0         0
         0         0         0         0         0         0         0         0
         0         0         0         0         0         0         0         0
         0         0         0         0         0         0         0         0
         0         0         0         0         0         0         0         0
         0         0         0         0         0         0         0         0
         0         0         0         0         0         0         0         0
         0         0         0         0         0         0         0         0
         0         0         0         0         0         0         0         0
         0         0         0         0         0         0         0         0
         0         0         0         0         0         0         0         0
         0         0         0         0         0         0         0         0
         0         0         0         0         0         0         0         0
         0         0         0         0         0         0         0         0
         0         0         0         0         0         0         0         0
         0         0         0         0         0         0         0         0
         0         0         0         0         0         0         0         0
         0         0         0         0         0         0         0         0
         0         0         0         0         0         0         0         0
         0         0         0         0         0         0         0         0
         0         0         0         0         0         0         0         0
         0         0         0         0         0         0         0         0
         0         0         0         0         0         0         0         0
         0         0         0         0         0         0         0         0
         0         0         0         0         0         0         0         0
         0         0         0         0         0         0         0         0
         0         0         0         0         0         0         0         0
         0         0         0         0         0         0         0         0
         0         0         0         0         0         0         0         0
         0         0         0         0         0         0         0         0
         0         0         0         0         0         0         0         0
         0         0         0         0         0         0         0         0
         0         0         0         0         0         0         0         0
         0         0         0         0         0         0         0         0
         0         0         0         0         0         0         0         0
         0         0         0         0         0         0         0         0
         0         0         0         0         0         0         0         0
         0         0         0         0         0         0         0         0
         0         0         0         0         0         0         0         0
         0         0         0         0         0         0         0         0
         0         0         0         0         0         0         0         0
         0         0         0         0         0         0         0         0
         0         0         0         0         0         0         0         0
         0         0         0         0         0         0         0         0
         0         0         0         0         0         0         0         0
         0         0         0         0         0         0         0         0
         0         0         0         0         0         0         0         0
         0         0         0         0         0         0         0         0
         0         0         0         0         0         0         0         0
         0         0         0         0         0         0         0         0
         0         0         0         0         0         0         0         0
         0         0         0         0         0         0         0         0
         0         0         0         0         0         0         0         0
         0         0         0         0         0         0         0         0
         0         0         0         0         0         0         0         0
         0         0         0         0         0         0         0         0
         0         0         0         0         0         0         0         0
         0         0         0         0         0         0         0         0
         0         0         0         0         0         0         0         0
         0         0         0         0         0         0         0         0
         0         0         0         0         0         0         0         0
         0         0         0         0         0         0         0         0
         0         0         0         0         0         0         0         0
         0         0         0         0         0         0         0         0
         0         0         0         0         0         0         0         0
         0         0         0         0         0         0         0         0
         0         0         0         0         0         0         0         0
         0         0         0         0         0         0         0         0
         0         0         0         0         0         0         0         0
         0         0         0         0         0         0         0         0
         0         0         0         0         0         0         0         0
         0         0         0         0         0         0         0         0
         0         0         0         0         0         0         0         0
         0         0         0         0         0         0         0         0
         0         0         0         0         0         0         0         0
         0         0         0         0         0         0         0         0
         0         0         0         0         0         0         0         0
         0         0         0         0         0         0         0         0
         0         0         0         0         0         0         0         0
         0         0         0         0         0         0         0         0
         0         0         0         0         0         0         0         0
         0         0         0         0         0         0         0         0
         0         0         0         0         0         0         0         0
         0         0         0         0         0         0         0         0
         0         0         0         0         0         0         0         0
         0         0         0         0         0         0         0         0
         0         0         0         0         0         0         0         0
         0         0         0         0         0         0         0         0
         0         0         0         0         0         0         0         0
         0         0         0         0         0         0         0         0
         0         0         0         0         0         0         0         0
         0         0         0         0         0         0         0         0
         0         0         0         0         0         0         0         0
         0         0         0         0         0         0         0         0
         0         0         0         0         0         0         0         0
         0         0         0         0         0         0         0         0
         0         0         0         0         0         0         0         0
         0         0         0         0         0         0         0         0
         0         0         0         0         0         0         0         0
         0         0         0         0         0         0         0         0
         0         0         0         0         0         0         0         0
         0         0         0         0         0         0         0         0
         0         0         0         0         0         0         0         0
         0         0         0         0         0         0         0         0
         0         0         0         0         0         0         0         0
         0         0         0         0         0         0         0         0
         0         0         0         0         0         0         0         0
         0         0         0         0         0         0         0         0
         0         0         0         0         0         0         0         0
         0         0         0         0         0         0         0         0
         0         0         0         0         0         0         0         0
         0         0         0         0         0         0         0         0
         0         0         0         0         0         0         0         0
         0         0         0         0         0         0         0         0
         0         0         0         0         0         0         0         0
         0         0         0         0         0         0         0         0
         0         0         0         0         0         0         0         0
         0         0         0         0         0         0         0         0
         0         0         0         0         0         0         0         0
         0         0         0         0         0         0         0         0
         0         0         0         0         0         0         0         0
         0         0         0         0         0         0         0         0
         0         0         0         0         0         0         0         0
         0         0         0         0         0         0         0         0
         0         0         0         0         0         0         0         0
         0         0         0         0         0         0         0         0
         0         0         0         0         0         0         0         0
         0         0         0         0         0         0         0         0
         0         0         0         0         0         0         0         0
         0         0         0         0         0         0         0         0
         0         0         0         0         0         0         0         0
         0         0         0         0         0         0         0         0
         0         0         0         0         0         0         0         0
         0         0         0         0         0         0         0         0
         0         0         0         0         0         0         0         0
         0         0         0         0         0         0         0         0
         0         0         0         0         0         0         0         0
         0         0         0         0         0         0         0         0
         0         0         0         0         0         0         0         0
         0         0         0         0         0         0         0         0
         0         0         0         0         0         0         0         0
         0         0         0         0         0         0         0         0
         0         0         0         0         0         0         0         0
         0         0         0         0         0         0         0         0
         0         0         0         0         0         0         0         0
         0         0         0         0         0         0         0         0
         0         0         0         0         0         0         0         0
         0         0         0         0         0         0         0         0
         0         0         0         0         0         0         0         0
         0         0         0         0         0         0         0         0
         0         0         0         0         0         0         0         0
         0         0         0         0         0         0         0         0
         0         0         0         0         0         0         0         0
         0         0         0         0         0         0         0         0
         0         0         0         0         0         0         0         0
         0         0         0         0         0         0         0         0
         0         0         0         0         0         0         0         0
         0         0         0         0         0         0         0         0
         0         0         0         0         0         0         0         0
         0         0         0         0         0         0         0         0
         0         0         0         0         0         0         0         0
         0         0         0         0         0         0         0         0
         0         0         0         0         0         0         0         0
         0         0         0         0         0         0         0         0
         0         0         0         0         0         0         0         0
         0         0         0         0         0         0         0         0
         0         0         0         0         0         0         0         0
         0         0         0         0         0         0         0         0
         0         0         0         0         0         0         0         0
         0         0         0         0         0         0         0         0
         0         0         0         0         0         0         0         0
         0         0         0         0         0         0         0         0
         0         0         0         0         0         0         0         0
         0         0         0         0         0         0         0         0
         0         0         0         0         0         0         0         0
         0         0         0         0         0         0         0         0
         0         0         0         0         0         0         0         0
         0         0         0         0         0         0         0         0
         0         0         0         0         0         0         0         0
         0         0         0         0         0         0         0         0
         0         0         0         0         0         0         0         0
         0         0         0         0         0         0         0         0
         0         0         0         0         0         0         0         0
         0         0         0         0         0         0         0         0
         0         0         0         0         0         0         0         0
         0         0         0         0         0         0         0         0
         0         0         0         0         0         0         0         0
         0         0         0         0         0         0         0         0
         0         0         0         0         0         0         0         0
         0         0         0         0         0         0         0         0
         0         0         0         0         0         0         0         0
         0         0         0         0         0         0         0         0
         0         0         0         0         0         0         0         0
         0         0         0         0         0         0         0         0
         0         0         0         0         0         0         0         0
         0         0         0         0         0         0         0         0
         0         0         0         0         0         0         0         0
         0         0         0         0         0         0         0         0
         0         0         0         0         0         0         0         0
         0         0         0         0         0         0         0         0
         0         0         0         0         0         0         0         0
         0         0         0         0         0         0         0         0
         0         0         0         0         0         0         0         0
         0         0         0         0         0         0         0         0
         0         0         0         0         0         0         0         0
         0         0         0         0         0         0         0         0
         0         0         0         0         0         0         0         0
         0         0         0         0         0         0         0         0
         0         0         0         0         0         0         0         0
         0         0         0         0         0         0         0         0
         0         0         0         0         0         0         0         0
         0         0         0         0         0         0         0         0
         0         0         0         0         0         0         0         0
         0         0         0         0         0         0         0         0
         0         0         0         0         0         0         0         0
         0         0         0         0         0         0         0         0
         0         0         0         0         0         0         0         0
         0         0         0         0         0         0         0         0
         0         0         0         0         0         0         0         0
         0         0         0         0         0         0         0         0
         0         0         0         0         0         0         0         0
         0         0         0         0         0         0         0         0
         0         0         0         0         0         0         0         0
         0         0         0         0         0         0         0         0
         0         0         0         0         0         0         0         0
         0         0         0         0         0         0         0         0
         0         0         0         0         0         0         0         0
         0         0         0         0         0         0         0         0
         0         0         0         0         0         0         0         0
         0         0         0         0         0         0         0         0
         0         0         0         0         0         0         0         0
         0         0         0         0         0         0         0         0
         0         0         0         0         0         0         0         0
         0         0         0         0         0         0         0         0
         0         0         0         0         0         0         0         0
         0         0         0         0         0         0         0         0
         0         0         0         0         0         0         0         0
         0         0         0         0         0         0         0         0
         0         0         0         0         0         0         0         0
         0         0         0         0         0         0         0         0
         0         0         0         0         0         0         0         0
         0         0         0         0         0         0         0         0
         0         0         0         0         0         0         0         0
         0         0         0         0         0         0         0         0
         0         0         0         0         0         0         0         0
         0         0         0         0         0         0         0         0
         0         0         0         0         0         0         0         0
         0         0         0         0         0         0         0         0
         0         0         0         0         0         0         0         0
         0         0         0         0         0         0         0         0
         0         0         0         0         0         0         0         0
         0         0         0         0         0         0         0         0
         0         0         0         0         0         0         0         0
         0         0         0         0         0         0         0         0
         0         0         0         0         0         0         0         0
         0         0         0         0         0         0         0         0
         0         0         0         0         0         0         0         0
         0         0         0         0         0         0         0         0
         0         0         0         0         0         0         0         0
         0         0         0         0         0         0         0         0
         0         0         0         0         0         0         0         0
         0         0         0         0         0         0         0         0
         0         0         0         0         0         0         0         0
         0         0         0         0         0         0         0         0
         0         0         0         0         0         0         0         0
         0         0         0         0         0         0         0         0
         0         0         0         0         0         0         0         0
         0         0         0         0         0         0         0         0
         0         0         0         0         0         0         0         0
         0         0         0         0         0         0         0         0
         0         0         0         0         0         0         0         0
         0         0         0         0         0         0         0         0
         0         0         0         0         0         0         0         0
         0         0         0         0         0         0         0         0
         0         0         0         0         0         0         0         0
         0         0         0         0         0         0         0         0
         0         0         0         0         0         0         0         0
         0         0         0         0         0         0         0         0
         0         0         0         0         0         0         0         0
         0         0         0         0         0         0         0         0
         0         0         0         0         0         0         0         0
         0         0         0         0         0         0         0         0
         0         0         0         0         0         0         0         0
         0         0         0         0         0         0         0         0
         0         0         0         0         0         0         0         0
         0         0         0         0         0         0         0         0
         0         0         0         0         0         0         0         0
         0         0         0         0         0         0         0         0
         0         0         0         0         0         0         0         0
         0         0         0         0         0         0         0         0
         0         0         0         0         0         0         0         0
         0         0         0         0         0         0         0         0
         0         0         0         0         0         0         0         0
         0         0         0         0         0         0         0         0
         0         0         0         0         0         0         0         0
         0         0         0         0         0         0         0         0
         0         0         0         0         0         0         0         0
         0         0         0         0         0         0         0         0
         0         0         0         0         0         0         0         0
         0         0         0         0         0         0         0         0
         0         0         0         0         0         0         0         0
         0         0         0         0         0         0         0         0
         0         0         0         0         0         0         0         0
         0         0         0         0         0         0         0         0
         0         0         0         0         0         0         0         0
         0         0         0         0         0         0         0         0
         0         0         0         0         0         0         0         0
         0         0         0         0         0         0         0         0
         0         0         0         0         0         0         0         0
         0         0         0         0         0         0         0         0
         0         0         0         0         0         0         0         0
         0         0         0         0         0         0         0         0
         0         0         0         0         0         0         0         0
         0         0         0         0         0         0         0         0
         0         0         0         0         0         0         0         0
         0         0         0         0         0         0         0         0
         0         0         0         0         0         0         0         0
         0         0         0         0         0         0         0         0
         0         0         0         0         0         0         0         0
         0         0         0         0         0         0         0         0
         0         0         0         0         0         0         0         0
         0         0         0         0         0         0         0         0
         0         0         0         0         0         0         0         0
         0         0         0         0         0         0         0         0
         0         0         0         0         0         0         0         0
         0         0         0         0         0         0         0         0
         0         0         0         0         0         0         0         0
         0         0         0         0         0         0         0         0
         0         0         0         0         0         0         0         0
         0         0         0         0         0         0         0         0
         0         0         0         0         0         0         0         0
         0         0         0         0         0         0         0         0
         0         0         0         0         0         0         0         0
         0         0         0         0         0         0         0         0
         0         0         0         0         0         0         0         0
         0         0         0         0         0         0         0         0
         0         0         0         0         0         0         0         0
         0         0         0         0         0         0         0         0
         0         0         0         0         0         0         0         0
         0         0         0         0         0         0         0         0
         0         0         0         0         0         0         0         0
         0         0         0         0         0         0         0         0
         0         0         0         0         0         0         0         0
         0         0         0         0         0         0         0         0
         0         0         0         0         0         0         0         0
         0         0         0         0         0         0         0         0
         0         0         0         0         0         0         0         0
         0         0         0         0         0         0         0         0
         0         0         0         0         0         0         0         0
         0         0         0         0         0         0         0         0
         0         0         0         0         0         0         0         0
         0         0         0         0         0         0         0         0
         0         0         0         0         0         0         0         0
         0         0         0         0         0         0         0         0
         0         0         0         0         0         0         0         0
         0         0         0         0         0         0         0         0
         0         0         0         0         0         0         0         0
         0         0         0         0         0         0         0         0
         0         0         0         0         0         0         0         0
         0         0         0         0         0         0         0         0
         0         0         0         0         0         0         0         0
         0         0         0         0         0         0         0         0
         0         0         0         0         0         0         0         0
         0         0         0         0         0         0         0         0
         0         0         0         0         0         0         0         0
         0         0         0         0         0         0         0         0
         0         0         0         0         0         0         0         0
         0         0         0         0         0         0         0         0
         0         0         0         0         0         0         0         0
         0         0         0         0         0         0         0         0
         0         0         0         0         0         0         0         0
         0         0         0         0         0         0         0         0
         0         0         0         0         0         0         0         0
         0         0         0         0         0         0         0         0
         0         0         0         0         0         0         0         0
         0         0         0         0         0         0         0         0
         0         0         0         0         0         0         0         0
         0         0         0         0         0         0         0         0
         0         0         0         0         0         0         0         0
         0         0         0         0         0         0         0         0
         0         0         0         0         0         0         0         0
         0         0         0         0         0         0         0         0
         0         0         0         0         0         0         0         0
         0         0         0         0         0         0         0         0
         0         0         0         0         0         0         0         0
         0         0         0         0         0         0         0         0
         0         0         0         0         0         0         0         0
         0         0         0         0         0         0         0         0
         0         0         0         0         0         0         0         0
         0         0         0         0         0         0         0         0
         0         0         0         0         0         0         0         0
         0         0         0         0         0         0         0         0
         0         0         0         0         0         0         0         0
         0         0         0         0         0         0         0         0
         0         0         0         0         0         0         0         0
         0         0         0         0         0         0         0         0
         0         0         0         0         0         0         0         0
         0         0         0         0         0         0         0         0
         0         0         0         0         0         0         0         0
         0         0         0         0         0         0         0         0
         0         0         0         0         0         0         0         0
         0         0         0         0         0         0         0         0
         0         0         0         0         0         0         0         0
         0         0         0         0         0         0         0         0
         0         0         0         0         0         0         0         0
         0         0         0         0         0         0         0         0
         0         0         0         0         0         0         0         0
         0         0         0         0         0         0         0         0
         0         0         0         0         0         0         0         0
         0         0         0         0         0         0         0         0
         0         0         0         0         0         0         0         0
         0         0         0         0         0         0         0         0
         0         0         0         0         0         0         0         0
         0         0         0         0         0         0         0         0
         0         0         0         0         0         0         0         0
         0         0         0         0         0         0         0         0
         0         0         0         0         0         0         0         0
         0         0         0         0         0         0         0         0
         0         0         0         0         0         0         0         0
         0         0         0         0         0         0         0         0
         0         0         0         0         0         0         0         0
         0         0         0         0         0         0         0         0
         0         0         0         0         0         0         0         0
         0         0         0         0         0         0         0         0
         0         0         0         0         0         0         0         0
         0         0         0         0         0         0         0         0
         0         0         0         0         0         0         0         0
         0         0         0         0         0         0         0         0
         0         0         0         0         0         0         0         0
         0         0         0         0         0         0         0         0
         0         0         0         0         0         0         0         0
         0         0         0         0         0         0         0         0
         0         0         0         0         0         0         0         0
         0         0         0         0         0         0         0         0
         0         0         0         0         0         0         0         0
         0         0         0         0         0         0         0         0
         0         0         0         0         0         0         0         0
         0         0         0         0         0         0         0         0
         0         0         0         0         0         0         0         0
         0         0         0         0         0         0         0         0
         0         0         0         0         0         0         0         0
         0         0         0         0         0         0         0         0
         0         0         0         0         0         0         0         0
         0         0         0         0         0         0         0         0
         0         0         0         0         0         0         0         0
         0         0         0         0         0         0         0         0
         0         0         0         0         0         0         0         0
         0         0         0         0         0         0         0         0
         0         0         0         0         0         0         0         0
         0         0         0         0         0         0         0         0
         0         0         0         0         0         0         0         0
         0         0         0         0         0         0         0         0
         0         0         0         0         0         0         0         0
         0         0         0         0         0         0         0         0
         0         0         0         0         0         0         0         0
         0         0         0         0         0         0         0         0
         0         0         0         0         0         0         0         0
         0         0         0         0         0         0         0         0
         0         0         0         0         0         0         0         0
         0         0         0         0         0         0         0         0
         0         0         0         0         0         0         0         0
         0         0         0         0         0         0         0         0
         0         0         0         0         0         0         0         0
         0         0         0         0         0         0         0         0
         0         0         0         0         0         0         0         0
         0         0         0         0         0         0         0         0
         0         0         0         0         0         0         0         0
         0         0         0         0         0         0         0         0
         0         0         0         0         0         0         0         0
         0         0         0         0         0         0         0         0
         0         0         0         0         0         0         0         0
         0         0         0         0         0         0         0         0
         0         0         0         0         0         0         0         0
         0         0         0         0         0         0         0         0
         0         0         0         0         0         0         0         0
         0         0         0         0         0         0         0         0
         0         0         0         0         0         0         0         0
         0         0         0         0         0         0         0         0
         0         0         0         0         0         0         0         0
         0         0         0         0         0         0         0         0
         0         0         0         0         0         0         0         0
         0         0         0         0         0         0         0         0
         0         0         0         0         0         0         0         0
         0         0         0         0         0         0         0         0
         0         0         0         0         0         0         0         0
         0         0         0         0         0         0         0         0
         0         0         0         0         0         0         0         0
         0         0         0         0         0         0         0         0
         0         0         0         0         0         0         0         0
         0         0         0         0         0         0         0         0
         0         0         0         0         0         0         0         0
         0         0         0         0         0         0         0         0
         0         0         0         0         0         0         0         0
         0         0         0         0         0         0         0         0
         0         0         0         0         0         0         0         0
         0         0         0         0         0         0         0         0
         0         0         0         0         0         0         0         0
         0         0         0         0         0         0         0         0
         0         0         0         0         0         0         0         0
         0         0         0         0         0         0         0         0
         0         0         0         0         0         0         0         0
         0         0         0         0         0         0         0         0
         0         0         0         0         0         0         0         0
         0         0         0         0         0         0         0         0
         0         0         0         0         0         0         0         0
         0         0         0         0         0         0         0         0
         0         0         0         0         0         0         0         0
         0         0         0         0         0         0         0         0
         0         0         0         0         0         0         0         0
         0         0         0         0         0         0         0         0
         0         0         0         0         0         0         0         0
         0         0         0         0         0         0         0         0
         0         0         0         0         0         0         0         0
         0         0         0         0         0         0         0         0
         0         0         0         0         0         0         0         0
         0         0         0         0         0         0         0         0
         0         0         0         0         0         0         0         0
         0         0         0         0         0         0         0         0
         0         0         0         0         0         0         0         0
         0         0         0         0         0         0         0         0
         0         0         0         0         0         0         0         0
         0         0         0         0         0         0         0         0
         0         0         0         0         0         0         0         0
         0         0         0         0         0         0         0         0
         0         0         0         0         0         0         0         0
         0         0         0         0         0         0         0         0
         0         0         0         0         0         0         0         0
         0         0         0         0         0         0         0         0
         0         0         0         0         0         0         0         0
         0         0         0         0         0         0         0         0
         0         0         0         0         0         0         0         0
         0         0         0         0         0         0         0         0
         0         0         0         0         0         0         0         0
         0         0         0         0         0         0         0         0
         0         0         0         0         0         0         0         0
         0         0         0         0         0         0         0         0
         0         0         0         0         0         0         0         0
         0         0         0         0         0         0         0         0
         0         0         0         0         0         0         0         0
         0         0         0         0         0         0         0         0
         0         0         0         0         0         0         0         0
         0         0         0         0         0         0         0         0
         0         0         0         0         0         0         0         0
         0         0         0         0         0         0         0         0
         0         0         0         0         0         0         0         0
         0         0         0         0         0         0         0         0
         0         0         0         0         0         0         0         0
         0         0         0         0         0         0         0         0
         0         0         0         0         0         0         0         0
         0         0         0         0         0         0         0         0
         0         0         0         0         0         0         0         0
         0         0         0         0         0         0         0         0
         0         0         0         0         0         0         0         0
         0         0         0         0         0         0         0         0
         0         0         0         0         0         0         0         0
         0         0         0         0         0         0         0         0
         0         0         0         0         0         0         0         0
         0         0         0         0         0         0         0         0
         0         0         0         0         0         0         0         0
         0         0         0         0         0         0         0         0
         0         0         0         0         0         0         0         0
         0         0         0         0         0         0         0         0
         0         0         0         0         0         0         0         0
         0         0         0         0         0         0         0         0
         0         0         0         0         0         0         0         0
         0         0         0         0         0         0         0         0
         0         0         0         0         0         0         0         0
         0         0         0         0         0         0         0         0
         0         0         0         0         0         0         0         0
         0         0         0         0         0         0         0         0
         0         0         0         0         0         0         0         0
         0         0         0         0         0         0         0         0
         0         0         0         0         0         0         0         0
         0         0         0         0         0         0         0         0
         0         0         0         0         0         0         0         0
         0         0         0         0         0         0         0         0
         0         0         0         0         0         0         0         0
         0         0         0         0         0         0         0         0
         0         0         0         0         0         0         0         0
         0         0         0         0         0         0         0         0
         0         0         0         0         0         0         0         0
         0         0         0         0         0         0         0         0
         0         0         0         0         0         0         0         0
         0         0         0         0         0         0         0         0
         0         0         0         0         0         0         0         0
         0         0         0         0         0         0         0         0
         0         0         0         0         0         0         0         0
         0         0         0         0         0         0         0         0
         0         0         0         0         0         0         0         0
         0         0         0         0         0         0         0         0
         0         0         0         0         0         0         0         0
         0         0         0         0         0         0         0         0
         0         0         0         0         0         0         0         0
         0         0         0         0         0         0         0         0
         0         0         0         0         0         0         0         0
         0         0         0         0         0         0         0         0
         0         0         0         0         0         0         0         0
         0         0         0         0         0         0         0         0
         0         0         0         0         0         0         0         0
         0         0         0         0         0         0         0         0
         0         0         0         0         0         0         0         0
         0         0         0         0         0         0         0         0
         0         0         0         0         0         0         0         0
         0         0         0         0         0         0         0         0
         0         0         0         0         0         0         0         0
         0         0         0         0         0         0         0         0
         0         0         0         0         0         0         0         0
         0         0         0         0         0         0         0         0
         0         0         0         0         0         0         0         0
         0         0         0         0         0         0         0         0
         0         0         0         0         0         0         0         0
         0         0         0         0         0         0         0         0
         0         0         0         0         0         0         0         0
         0         0         0         0         0         0         0         0
         0         0         0         0         0         0         0         0
         0         0         0         0         0         0         0         0
         0         0         0         0         0         0         0         0
         0         0         0         0         0         0         0         0
         0         0         0         0         0         0         0         0
         0         0         0         0         0         0         0         0
         0         0         0         0         0         0         0         0
         0         0         0         0         0         0         0         0
         0         0         0         0         0         0         0         0
         0         0         0         0         0         0         0         0
         0         0         0         0         0         0         0         0
         0         0         0         0         0         0         0         0
         0         0         0         0         0         0         0         0
         0         0         0         0         0         0         0         0
         0         0         0         0         0         0         0         0
         0         0         0         0         0         0         0         0
         0         0         0         0         0         0         0         0
         0         0         0         0         0         0         0         0
         0         0         0         0         0         0         0         0
         0         0         0         0         0         0         0         0
         0         0         0         0         0         0         0         0
         0         0         0         0         0         0         0         0
         0         0         0         0         0         0         0         0
         0         0         0         0         0         0         0         0
         0         0         0         0         0         0         0         0
         0         0         0         0         0         0         0         0
         0         0         0         0         0         0         0         0
         0         0         0         0         0         0         0         0
         0         0         0         0         0         0         0         0
         0         0         0         0         0         0         0         0
         0         0         0         0         0         0         0         0
         0         0         0         0         0         0         0         0
         0         0         0         0         0         0         0         0
         0         0         0         0         0         0         0         0
         0         0         0         0         0         0         0         0
         0         0         0         0         0         0         0         0
         0         0         0         0         0         0         0         0
         0         0         0         0         0         0         0         0
         0         0         0         0         0         0         0         0
         0         0         0         0         0         0         0         0
         0         0         0         0         0         0         0         0
         0         0         0         0         0         0         0         0
         0         0         0         0         0         0         0         0
         0         0         0         0         0         0         0         0
         0         0         0         0         0         0         0         0
         0         0         0         0         0         0         0         0
         0         0         0         0         0         0         0         0
         0         0         0         0         0         0         0         0
         0         0         0         0         0         0         0         0
         0         0         0         0         0         0         0         0
         0         0         0         0         0         0         0         0
         0         0         0         0         0         0         0         0
         0         0         0         0         0         0         0         0
         0         0         0         0         0         0         0         0
         0         0         0         0         0         0         0         0
         0         0         0         0         0         0         0         0
         0         0         0         0         0         0         0         0
         0         0         0         0         0         0         0         0
         0         0         0         0         0         0         0         0
         0         0         0         0         0         0         0         0
         0         0         0         0         0         0         0         0
         0         0         0         0         0         0         0         0
         0         0         0         0         0         0         0         0
         0         0         0         0         0         0         0         0
         0         0         0         0         0         0         0         0
         0         0         0         0         0         0         0         0
         0         0         0         0         0         0         0         0
         0         0         0         0         0         0         0         0
         0         0         0         0         0         0         0         0
         0         0         0         0         0         0         0         0
         0         0         0         0         0         0         0         0
         0         0         0         0         0         0         0         0
         0         0         0         0         0         0         0         0
         0         0         0         0         0         0         0         0
         0         0         0         0         0         0         0         0
         0         0         0         0         0         0         0         0
         0         0         0         0         0         0         0         0
         0         0         0         0         0         0         0         0
         0         0         0         0         0         0         0         0
         0         0         0         0         0         0         0         0
         0         0         0         0         0         0         0         0
         0         0         0         0         0         0         0         0
         0         0         0         0         0         0         0         0
         0         0         0         0         0         0         0         0
         0         0         0         0         0         0         0         0
         0         0         0         0         0         0         0         0
         0         0         0         0         0         0         0         0
         0         0         0         0         0         0         0         0
         0         0         0         0         0         0         0         0
         0         0         0         0         0         0         0         0
         0         0         0         0         0         0         0         0
         0         0         0         0         0         0         0         0
         0         0         0         0         0         0         0         0
         0         0         0         0         0         0         0         0
         0         0         0         0         0         0         0         0
         0         0         0         0         0         0         0         0
         0         0         0         0         0         0         0         0
         0         0         0         0         0         0         0         0
         0         0         0         0         0         0         0         0
         0         0         0         0         0         0         0         0
         0         0         0         0         0         0         0         0
         0         0         0         0         0         0         0         0
         0         0         0         0         0         0         0         0
         0         0         0         0         0         0         0         0
         0         0         0         0         0         0         0         0
         0         0         0         0         0         0         0         0
         0         0         0         0         0         0         0         0
         0         0         0         0         0         0         0         0
         0         0         0         0         0         0         0         0
         0         0         0         0         0         0         0         0
         0         0         0         0         0         0         0         0
         0         0         0         0         0         0         0         0
         0         0         0         0         0         0         0         0
         0         0         0         0         0         0         0         0
         0         0         0         0         0         0         0         0
         0         0         0         0         0         0         0         0
         0         0         0         0         0         0         0         0
         0         0         0         0         0         0         0         0
         0         0         0         0         0         0         0         0
         0         0         0         0         0         0         0         0
         0         0         0         0         0         0         0         0
         0         0         0         0         0         0         0         0
         0         0         0         0         0         0         0         0
         0         0         0         0         0         0         0         0
         0         0         0         0         0         0         0         0
         0         0         0         0         0         0         0         0
         0         0         0         0         0         0         0         0
         0         0         0         0         0         0         0         0
         0         0         0         0         0         0         0         0
         0         0         0         0         0         0         0         0
         0         0         0         0         0         0         0         0
         0         0         0         0         0         0         0         0
         0         0         0         0         0         0         0         0
         0         0         0         0         0         0         0         0
         0         0         0         0         0         0         0         0
         0         0         0         0         0         0         0         0
         0         0         0         0         0         0         0         0
         0         0         0         0         0         0         0         0
         0         0         0         0         0         0         0         0
         0         0         0         0         0         0         0         0
         0         0         0         0         0         0         0         0
         0         0         0         0         0         0         0         0
         0         0         0         0         0         0         0         0
         0         0         0         0         0         0         0         0
         0         0         0         0         0         0         0         0
         0         0         0         0         0         0         0         0
         0         0         0         0         0         0         0         0
         0         0         0         0         0         0         0         0
         0         0         0         0         0         0         0         0
         0         0         0         0         0         0         0         0
         0         0         0         0         0         0         0         0
         0         0         0         0         0         0         0         0
         0         0         0         0         0         0         0         0
         0         0         0         0         0         0         0         0
         0         0         0         0         0         0         0         0
         0         0         0         0         0         0         0         0
         0         0         0         0         0         0         0         0
         0         0         0         0         0         0         0         0
         0         0         0         0         0         0         0         0
         0         0         0         0         0         0         0         0
         0         0         0         0         0         0         0         0
         0         0         0         0         0         0         0         0
         0         0         0         0         0         0         0         0
         0         0         0         0         0         0         0         0
         0         0         0         0         0         0         0         0
         0         0         0         0         0         0         0         0
         0         0         0         0         0         0         0         0
         0         0         0         0         0         0         0         0
         0         0         0         0         0         0         0         0
         0         0         0         0         0         0         0         0
         0         0         0         0         0         0         0         0
         0         0         0         0         0         0         0         0
         0         0         0         0         0         0         0         0
         0         0         0         0         0         0         0         0
         0         0         0         0         0         0         0         0
         0         0         0         0         0         0         0         0
         0         0         0         0         0         0         0         0
         0         0         0         0         0         0         0         0
         0         0         0         0         0         0         0         0
         0         0         0         0         0         0         0         0
         0         0         0         0         0         0         0         0
         0         0         0         0         0         0         0         0
         0         0         0         0         0         0         0         0
         0         0         0         0         0         0         0         0
         0         0         0         0         0         0         0         0
         0         0         0         0         0         0         0         0
         0         0         0         0         0         0         0         0
         0         0         0         0         0         0         0         0
         0         0         0         0         0         0         0         0
         0         0         0         0         0         0         0         0
         0         0         0         0         0         0         0         0
         0         0         0         0         0         0         0         0
         0         0         0         0         0         0         0         0
         0         0         0         0         0         0         0         0
         0         0         0         0         0         0         0         0
         0         0         0         0         0         0         0         0
         0         0         0         0         0         0         0         0
         0         0         0         0         0         0         0         0
         0         0         0         0         0         0         0         0
         0         0         0         0         0         0         0         0
         0         0         0         0         0         0         0         0
         0         0         0         0         0         0         0         0
         0         0         0         0         0         0         0         0
         0         0         0         0         0         0         0         0
         0         0         0         0         0         0         0         0
         0         0         0         0         0         0         0         0
         0         0         0         0         0         0         0         0
         0         0         0         0         0         0         0         0
         0         0         0         0         0         0         0         0
         0         0         0         0         0         0         0         0
         0         0         0         0         0         0         0         0
         0         0         0         0         0         0         0         0
         0         0         0         0         0         0         0         0
         0         0         0         0         0         0         0         0
         0         0         0         0         0         0         0         0
         0         0         0         0         0         0         0         0
         0         0         0         0         0         0         0         0
         0         0         0         0         0         0         0         0
         0         0         0         0         0         0         0         0
         0         0         0         0         0         0         0         0
         0         0         0         0         0         0         0         0
         0         0         0         0         0         0         0         0
         0         0         0         0         0         0         0         0
         0         0         0         0         0         0         0         0
         0         0         0         0         0         0         0         0
         0         0         0         0         0         0         0         0
         0         0         0         0         0         0         0         0
         0         0         0         0         0         0         0         0
         0         0         0         0         0         0         0         0
         0         0         0         0         0         0         0         0
         0         0         0         0         0         0         0         0
         0         0         0         0         0         0         0         0
         0         0         0         0         0         0         0         0
         0         0         0         0         0         0         0         0
         0         0         0         0         0         0         0         0
         0         0         0         0         0         0         0         0
         0         0         0         0         0         0         0         0
         0         0         0         0         0         0         0         0
         0         0         0         0         0         0         0         0
         0         0         0         0         0         0         0         0
         0         0         0         0         0         0         0         0
         0         0         0         0         0         0         0         0
         0         0         0         0         0         0         0         0
         0         0         0         0         0         0         0         0
         0         0         0         0         0         0         0         0
         0         0         0         0         0         0         0         0
         0         0         0         0         0         0         0         0
         0         0         0         0         0         0         0         0
         0         0         0         0         0         0         0         0
         0         0         0         0         0         0         0         0
         0         0         0         0         0         0         0         0
         0         0         0         0         0         0         0         0
         0         0         0         0         0         0         0         0
         0         0         0         0         0         0         0         0
         0         0         0         0         0         0         0         0
         0         0         0         0         0         0         0         0
         0         0         0         0         0         0         0         0
         0         0         0         0         0         0         0         0
         0         0         0         0         0         0         0         0
         0         0         0         0         0         0         0         0
         0         0         0         0         0         0         0         0
         0         0         0         0         0         0         0         0
         0         0         0         0         0         0         0         0
         0         0         0         0         0         0         0         0
         0         0         0         0         0         0         0         0
         0         0         0         0         0         0         0         0
         0         0         0         0         0         0         0         0
         0         0         0         0         0         0         0         0
         0         0         0         0         0         0         0         0
         0         0         0         0         0         0         0         0
         0         0         0         0         0         0         0         0
         0         0         0         0         0         0         0         0
         0         0         0         0         0         0         0         0
         0         0         0         0         0         0         0         0
         0         0         0         0         0         0         0         0
         0         0         0         0         0         0         0         0
         0         0         0         0         0         0         0         0
         0         0         0         0         0         0         0         0
         0         0         0         0         0         0         0         0
         0         0         0         0         0         0         0         0
         0         0         0         0         0         0         0         0
         0         0         0         0         0         0         0         0
         0         0         0         0         0         0         0         0
         0         0         0         0         0         0         0         0
         0         0         0         0         0         0         0         0
         0         0         0         0         0         0         0         0
         0         0         0         0         0         0         0         0
         0         0         0         0         0         0         0         0
         0         0         0         0         0         0         0         0
         0         0         0         0         0         0         0         0
         0         0         0         0         0         0         0         0
         0         0         0         0         0         0         0         0
         0         0         0         0         0         0         0         0
         0         0         0         0         0         0         0         0
         0         0         0         0         0         0         0         0
         0         0         0         0         0         0         0         0
         0         0         0         0         0         0         0         0
         0         0         0         0         0         0         0         0
         0         0         0         0         0         0         0         0
         0         0         0         0         0         0         0         0
         0         0         0         0         0         0         0         0
         0         0         0         0         0         0         0         0
         0         0         0         0         0         0         0         0
         0         0         0         0         0         0         0         0
         0         0         0         0         0         0         0         0
         0         0         0         0         0         0         0         0
         0         0         0         0         0         0         0         0
         0         0         0         0         0         0         0         0
         0         0         0         0         0         0         0         0
         0         0         0         0         0         0         0         0
         0         0         0         0         0         0         0         0
         0         0         0         0         0         0         0         0
         0         0         0         0         0         0         0         0
         0         0         0         0         0         0         0         0
         0         0         0         0         0         0         0         0
         0         0         0         0         0         0         0         0
         0         0         0         0         0         0         0         0
         0         0         0         0         0         0         0         0
         0         0         0         0         0         0         0         0
         0         0         0         0         0         0         0         0
         0         0         0         0         0         0         0         0
         0         0         0         0         0         0         0         0
         0         0         0         0         0         0         0         0
         0         0         0         0         0         0         0         0
         0         0         0         0         0         0         0         0
         0         0         0         0         0         0         0         0
         0         0         0         0         0         0         0         0
         0         0         0         0         0         0         0         0
         0         0         0         0         0         0         0         0
         0         0         0         0         0         0         0         0
         0         0         0         0         0         0         0         0
         0         0         0         0         0         0         0         0
         0         0         0         0         0         0         0         0
         0         0         0         0         0         0         0         0
         0         0         0         0         0         0         0         0
         0         0         0         0         0         0         0         0
         0         0         0         0         0         0         0         0
         0         0         0         0         0         0         0         0
         0         0         0         0         0         0         0         0
         0         0         0         0         0         0         0         0
         0         0         0         0         0         0         0         0
         0         0         0         0         0         0         0         0
         0         0         0         0         0         0         0         0
         0         0         0         0         0         0         0         0
         0         0         0         0         0         0         0         0
         0         0         0         0         0         0         0         0
         0         0         0         0         0         0         0         0
         0         0         0         0         0         0         0         0
         0         0         0         0         0         0         0         0
         0         0         0         0         0         0         0         0
         0         0         0         0         0         0         0         0
         0         0         0         0         0         0         0         0
         0         0         0         0         0         0         0         0
         0         0         0         0         0         0         0         0
         0         0         0         0         0         0         0         0
         0         0         0         0         0         0         0         0
         0         0         0         0         0         0         0         0
         0         0         0         0         0         0         0         0
         0         0         0         0         0         0         0         0
         0         0         0         0         0         0         0         0
         0         0         0         0         0         0         0         0
         0         0         0         0         0         0         0         0
         0         0         0         0         0         0         0         0
         0         0         0         0         0         0         0         0
         0         0         0         0         0         0         0         0
         0         0         0         0         0         0         0         0
         0         0         0         0         0         0         0         0
         0         0         0         0         0         0         0         0
         0         0         0         0         0         0         0         0
         0         0         0         0         0         0         0         0
         0         0         0         0         0         0         0         0
         0         0         0         0         0         0         0         0
         0         0         0         0         0         0         0         0
         0         0         0         0         0         0         0         0
         0         0         0         0         0         0         0         0
         0         0         0         0         0         0         0         0
         0         0         0         0         0         0         0         0
         0         0         0         0         0         0         0         0
         0         0         0         0         0         0         0         0
         0         0         0         0         0         0         0         0
         0         0         0         0         0         0         0         0
         0         0         0         0         0         0         0         0
         0         0         0         0         0         0         0         0
         0         0         0         0         0         0         0         0
         0         0         0         0         0         0         0         0
         0         0         0         0         0         0         0         0
         0         0         0         0         0         0         0         0
         0         0         0         0         0         0         0         0
         0         0         0         0         0         0         0         0
         0         0         0         0         0         0         0         0
         0         0         0         0         0         0         0         0
         0         0         0         0         0         0         0         0
         0         0         0         0         0         0         0         0
         0         0         0         0         0         0         0         0
         0         0         0         0         0         0         0         0
         0         0         0         0         0         0         0         0
         0         0         0         0         0         0         0         0
         0         0         0         0         0         0         0         0
         0         0         0         0         0         0         0         0
         0         0         0         0         0         0         0         0
         0         0         0         0         0         0         0         0
         0         0         0         0         0         0         0         0
         0         0         0         0         0         0         0         0
         0         0         0         0         0         0         0         0
         0         0         0         0         0         0         0         0
         0         0         0         0         0         0         0         0
         0         0         0         0         0         0         0         0
         0         0         0         0         0         0         0         0
         0         0         0         0         0         0         0         0
         0         0         0         0         0         0         0         0
         0         0         0         0         0         0         0         0
         0         0         0         0         0         0         0         0
         0         0         0         0         0         0         0         0
         0         0         0         0         0         0         0         0
         0         0         0         0         0         0         0         0
         0         0         0         0         0         0         0         0
         0         0         0         0         0         0         0         0
         0         0         0         0         0         0         0         0
         0         0         0         0         0         0         0         0
         0         0         0         0         0         0         0         0
         0         0         0         0         0         0         0         0
         0         0         0         0         0         0         0         0
         0         0         0         0         0         0         0         0
         0         0         0         0         0         0         0         0
         0         0         0         0         0         0         0         0
         0         0         0         0         0         0         0         0
         0         0         0         0         0         0         0         0
         0         0         0         0         0         0         0         0
         0         0         0         0         0         0         0         0
         0         0         0         0         0         0         0         0
         0         0         0         0         0         0         0         0
         0         0         0         0         0         0         0         0
         0         0         0         0         0         0         0         0
         0         0         0         0         0         0         0         0
         0         0         0         0         0         0         0         0
         0         0         0         0         0         0         0         0
         0         0         0         0         0         0         0         0
         0         0         0         0         0         0         0         0
         0         0         0         0         0         0         0         0
         0         0         0         0         0         0         0         0
         0         0         0         0         0         0         0         0
         0         0         0         0         0         0         0         0
         0         0         0         0         0         0         0         0
         0         0         0         0         0         0         0         0
         0         0         0         0         0         0         0         0
         0         0         0         0         0         0         0         0
         0         0         0         0         0         0         0         0
         0         0         0         0         0         0         0         0
         0         0         0         0         0         0         0         0
         0         0         0         0         0         0         0         0
         0         0         0         0         0         0         0         0
         0         0         0         0         0         0         0         0
         0         0         0         0         0         0         0         0
         0         0         0         0         0         0         0         0
         0         0         0         0         0         0         0         0
         0         0         0         0         0         0         0         0
         0         0         0         0         0         0         0         0
         0         0         0         0         0         0         0         0
         0         0         0         0         0         0         0         0
         0         0         0         0         0         0         0         0
         0         0         0         0         0         0         0         0
         0         0         0         0         0         0         0         0
         0         0         0         0         0         0         0         0
         0         0         0         0         0         0         0         0
         0         0         0         0         0         0         0         0
         0         0         0         0         0         0         0         0
         0         0         0         0         0         0         0         0
         0         0         0         0         0         0         0         0
         0         0         0         0         0         0         0         0
         0         0         0         0         0         0         0         0
         0         0         0         0         0         0         0         0
         0         0         0         0         0         0         0         0
         0         0         0         0         0         0         0         0
         0         0         0         0         0         0         0         0
         0         0         0         0         0         0         0         0
         0         0         0         0         0         0         0         0
         0         0         0         0         0         0         0         0
         0         0         0         0         0         0         0         0
         0         0         0         0         0         0         0         0
         0         0         0         0         0         0         0         0
         0         0         0         0         0         0         0         0
         0         0         0         0         0         0         0         0
         0         0         0         0         0         0         0         0
         0         0         0         0         0         0         0         0
         0         0         0         0         0         0         0         0
         0         0         0         0         0         0         0         0
         0         0         0         0         0         0         0         0
         0         0         0         0         0         0         0         0
         0         0         0         0         0         0         0         0
         0         0         0         0         0         0         0         0
         0         0         0         0         0         0         0         0
         0         0         0         0         0         0         0         0
         0         0         0         0         0         0         0         0
         0         0         0         0         0         0         0         0
         0         0         0         0         0         0         0         0
         0         0         0         0         0         0         0         0
         0         0         0         0         0         0         0         0
         0         0         0         0         0         0         0         0
         0         0         0         0         0         0         0         0
         0         0         0         0         0         0         0         0
         0         0         0         0         0         0         0         0
         0         0         0         0         0         0         0         0
         0         0         0         0         0         0         0         0
         0         0         0         0         0         0         0         0
         0         0         0         0         0         0         0         0
         0         0         0         0         0         0         0         0
         0         0         0         0         0         0         0         0
         0         0         0         0         0         0         0         0
         0         0         0         0         0         0         0         0
         0         0         0         0         0         0         0         0
         0         0         0         0         0         0         0         0
         0         0         0         0         0         0         0         0
         0         0         0         0         0         0         0         0
         0         0         0         0         0         0         0         0
         0         0         0         0         0         0         0         0
         0         0         0         0         0         0         0         0
         0         0         0         0         0         0         0         0
         0         0         0         0         0         0         0         0
         0         0         0         0         0         0         0         0
         0         0         0         0         0         0         0         0
         0         0         0         0         0         0         0         0
         0         0         0         0         0         0         0         0
         0         0         0         0         0         0         0         0
         0         0         0         0         0         0         0         0
         0         0         0         0         0         0         0         0
         0         0         0         0         0         0         0         0
         0         0         0         0         0         0         0         0
         0         0         0         0         0         0         0         0
         0         0         0         0         0         0         0         0
         0         0         0         0         0         0         0         0
         0         0         0         0         0         0         0         0
         0         0         0         0         0         0         0         0
         0         0         0         0         0         0         0         0
         0         0         0         0         0         0         0         0
         0         0         0         0         0         0         0         0
         0         0         0         0         0         0         0         0
         0         0         0         0         0         0         0         0
         0         0         0         0         0         0         0         0
         0         0         0         0         0         0         0         0
         0         0         0         0         0         0         0         0
         0         0         0         0         0         0         0         0
         0         0         0         0         0         0         0         0
         0         0         0         0         0         0         0         0
         0         0         0         0         0         0         0         0
         0         0         0         0         0         0         0         0
         0         0         0         0         0         0         0         0
         0         0         0         0         0         0         0         0
         0         0         0         0         0         0         0         0
         0         0         0         0         0         0         0         0
         0         0         0         0         0         0         0         0
         0         0         0         0         0         0         0         0
         0         0         0         0         0         0         0         0
         0         0         0         0         0         0         0         0
         0         0         0         0         0         0         0         0
         0         0         0         0         0         0         0         0
         0         0         0         0         0         0         0         0
         0         0         0         0         0         0         0         0
         0         0         0         0         0         0         0         0
         0         0         0         0         0         0         0         0
         0         0         0         0         0         0         0         0
         0         0         0         0         0         0         0         0
         0         0         0         0         0         0         0         0
         0         0         0         0         0         0         0         0
         0         0         0         0         0         0         0         0
         0         0         0         0         0         0         0         0
         0         0         0         0         0         0         0         0
         0         0         0         0         0         0         0         0
         0         0         0         0         0         0         0         0
         0         0         0         0         0         0         0         0
         0         0         0         0         0         0         0         0
         0         0         0         0         0         0         0         0
         0         0         0         0         0         0         0         0
         0         0         0         0         0         0         0         0
         0         0         0         0         0         0         0         0
         0         0         0         0         0         0         0         0
         0         0         0         0         0         0         0         0
         0         0         0         0         0         0         0         0
         0         0         0         0         0         0         0         0
         0         0         0         0         0         0         0         0
         0         0         0         0         0         0         0         0
         0         0         0         0         0         0         0         0
         0         0         0         0         0         0         0         0
         0         0         0         0         0         0         0         0
         0         0         0         0         0         0         0         0
         0         0         0         0         0         0         0         0
         0         0         0         0         0         0         0         0
         0         0         0         0         0         0         0         0
         0         0         0         0         0         0         0         0
         0         0         0         0         0         0         0         0
         0         0         0         0         0         0         0         0
         0         0         0         0         0         0         0         0
         0         0         0         0         0         0         0         0
         0         0         0         0         0         0         0         0
         0         0         0         0         0         0         0         0
         0         0         0         0         0         0         0         0
         0         0         0         0         0         0         0         0
         0         0         0         0         0         0         0         0
         0         0         0         0         0         0         0         0
         0         0         0         0         0         0         0         0
         0         0         0         0         0         0         0         0
         0         0         0         0         0         0         0         0
         0         0         0         0         0         0         0         0
         0         0         0         0         0         0         0         0
         0         0         0         0         0         0         0         0
         0         0         0         0         0         0         0         0
         0         0         0         0         0         0         0         0
         0         0         0         0         0         0         0         0
         0         0         0         0         0         0         0         0
         0         0         0         0         0         0         0         0
         0         0         0         0         0         0         0         0
         0         0         0         0         0         0         0         0
         0         0         0         0         0         0         0         0
         0         0         0         0         0         0         0         0
         0         0         0         0         0         0         0         0
         0         0         0         0         0         0         0         0
         0         0         0         0         0         0         0         0
         0         0         0         0         0         0         0         0
         0         0         0         0         0         0         0         0
         0         0         0         0         0         0         0         0
         0         0         0         0         0         0         0         0
         0         0         0         0         0         0         0         0
         0         0         0         0         0         0         0         0
         0         0         0         0         0         0         0         0
         0         0         0         0         0         0         0         0
         0         0         0         0         0         0         0         0
         0         0         0         0         0         0         0         0
         0         0         0         0         0         0         0         0
         0         0         0         0         0         0         0         0
         0         0         0         0         0         0         0         0
         0         0         0         0         0         0         0         0
         0         0         0         0         0         0         0         0
         0         0         0         0         0         0         0         0
         0         0         0         0         0         0         0         0
         0         0         0         0         0         0         0         0
         0         0         0         0         0         0         0         0
         0         0         0         0         0         0         0         0
         0         0         0         0         0         0         0         0
         0         0         0         0         0         0         0         0
         0         0         0         0         0         0         0         0
         0         0         0         0         0         0         0         0
         0         0         0         0         0         0         0         0
         0         0         0         0         0         0         0         0
         0         0         0         0         0         0         0         0
         0         0         0         0         0         0         0         0
         0         0         0         0         0         0         0         0
         0         0         0         0         0         0         0         0
         0         0         0         0         0         0         0         0
         0         0         0         0         0         0         0         0
         0         0         0         0         0         0         0         0
         0         0         0         0         0         0         0         0
         0         0         0         0         0         0         0         0
         0         0         0         0         0         0         0         0
         0         0         0         0         0         0         0         0
         0         0         0         0         0         0         0         0
         0         0         0         0         0         0         0         0
         0         0         0         0         0         0         0         0
         0         0         0         0         0         0         0         0
         0         0         0         0         0         0         0         0
         0         0         0         0         0         0         0         0
         0         0         0         0         0         0         0         0
         0         0         0         0         0         0         0         0
         0         0         0         0         0         0         0         0
         0         0         0         0         0         0         0         0
         0         0         0         0         0         0         0         0
         0         0         0         0         0         0         0         0
         0         0         0         0         0         0         0         0
         0         0         0         0         0         0         0         0
         0         0         0         0         0         0         0         0
         0         0         0         0         0         0         0         0
         0         0         0         0         0         0         0         0
         0         0         0         0         0         0         0         0
         0         0         0         0         0         0         0         0
         0         0         0         0         0         0         0         0
         0         0         0         0         0         0         0         0
         0         0         0         0         0         0         0         0
         0         0         0         0         0         0         0         0
         0         0         0         0         0         0         0         0
         0         0         0         0         0         0         0         0
         0         0         0         0         0         0         0         0
         0         0         0         0         0         0         0         0
         0         0         0         0         0         0         0         0
         0         0         0         0         0         0         0         0
         0         0         0         0         0         0         0         0
         0         0         0         0         0         0         0         0
         0         0         0         0         0         0         0         0
         0         0         0         0         0         0         0         0
         0         0         0         0         0         0         0         0
         0         0         0         0         0         0         0         0
         0         0         0         0         0         0         0         0
         0         0         0         0         0         0         0         0
         0         0         0         0         0         0         0         0
         0         0         0         0         0         0         0         0
         0         0         0         0         0         0         0         0
         0         0         0         0         0         0         0         0
         0         0         0         0         0         0         0         0
         0         0         0         0         0         0         0         0
         0         0         0         0         0         0         0         0
         0         0         0         0         0         0         0         0
         0         0         0         0         0         0         0         0
         0         0         0         0         0         0         0         0
         0         0         0         0         0         0         0         0
         0         0         0         0         0         0         0         0
         0         0         0         0         0         0         0         0
         0         0         0         0         0         0         0         0
         0         0         0         0         0         0         0         0
         0         0         0         0         0         0         0         0
         0         0         0         0         0         0         0         0
         0         0         0         0         0         0         0         0
         0         0         0         0         0         0         0         0
         0         0         0         0         0         0         0         0
         0         0         0         0         0         0         0         0
         0         0         0         0         0         0         0         0
         0         0         0         0         0         0         0         0
         0         0         0         0         0         0         0         0
         0         0         0         0         0         0         0         0
         0         0         0         0         0         0         0         0
         0         0         0         0         0         0         0         0
         0         0         0         0         0         0         0         0
         0         0         0         0         0         0         0         0
         0         0         0         0         0         0         0         0
         0         0         0         0         0         0         0         0
         0         0         0         0         0         0         0         0
         0         0         0         0         0         0         0         0
         0         0         0         0         0         0         0         0
         0         0         0         0         0         0         0         0
         0         0         0         0         0         0         0         0
         0         0         0         0         0         0         0         0
         0         0         0         0         0         0         0         0
         0         0         0         0         0         0         0         0
         0         0         0         0         0         0         0         0
         0         0         0         0         0         0         0         0
         0         0         0         0         0         0         0         0
         0         0         0         0         0         0         0         0
         0         0         0         0         0         0         0         0
         0         0         0         0         0         0         0         0
         0         0         0         0         0         0         0         0
         0         0         0         0         0         0         0         0
         0         0         0         0         0         0         0         0
         0         0         0         0         0         0         0         0
         0         0         0         0         0         0         0         0
         0         0         0         0         0         0         0         0
         0         0         0         0         0         0         0         0
         0         0         0         0         0         0         0         0
         0         0         0         0         0         0         0         0
         0         0         0         0         0         0         0         0
         0         0         0         0         0         0         0         0
         0         0         0         0         0         0         0         0
         0         0         0         0         0         0         0         0
         0         0         0         0         0         0         0         0
         0         0         0         0         0         0         0         0
         0         0         0         0         0         0         0         0
         0         0         0         0         0         0         0         0
         0         0         0         0         0         0         0         0
         0         0         0         0         0         0         0         0
         0         0         0         0         0         0         0         0
         0         0         0         0         0         0         0         0
         0         0         0         0         0         0         0         0
         0         0         0         0         0         0         0         0
         0         0         0         0         0         0         0         0
         0         0         0         0         0         0         0         0
         0         0         0         0         0         0         0         0
         0         0         0         0         0         0         0         0
         0         0         0         0         0         0         0         0
         0         0         0         0         0         0         0         0
         0         0         0         0         0         0         0         0
         0         0         0         0         0         0         0         0
         0         0         0         0         0         0         0         0
         0         0         0         0         0         0         0         0
         0         0         0         0         0         0         0         0
         0         0         0         0         0         0         0         0
         0         0         0         0         0         0         0         0
         0         0         0         0         0         0         0         0
         0         0         0         0         0         0         0         0
         0         0         0         0         0         0         0         0
         0         0         0         0         0         0         0         0
         0         0         0         0         0         0         0         0
         0         0         0         0         0         0         0         0
         0         0         0         0         0         0         0         0
         0         0         0         0         0         0         0         0
         0         0         0         0         0         0         0         0
         0         0         0         0         0         0         0         0
         0         0         0         0         0         0         0         0
         0         0         0         0         0         0         0         0
         0         0         0         0         0         0         0         0
         0         0         0         0         0         0         0         0
         0         0         0         0         0         0         0         0
         0         0         0         0         0         0         0         0
         0         0         0         0         0         0         0         0
         0         0         0         0         0         0         0         0
         0         0         0         0         0         0         0         0
         0         0         0         0         0         0         0         0
         0         0         0         0         0         0         0         0
         0         0         0         0         0         0         0         0
         0         0         0         0         0         0         0         0
         0         0         0         0         0         0         0         0
         0         0         0         0         0         0         0         0
         0         0         0         0         0         0         0         0
         0         0         0         0         0         0         0         0
         0         0         0         0         0         0         0         0
         0         0         0         0         0         0         0         0
         0         0         0         0         0         0         0         0
         0         0         0         0         0         0         0         0
         0         0         0         0         0         0         0         0
         0         0         0         0         0         0         0         0
         0         0         0         0         0         0         0         0
         0         0         0         0         0         0         0         0
         0         0         0         0         0         0         0         0
         0         0         0         0         0         0         0         0
         0         0         0         0         0         0         0         0
         0         0         0         0         0         0         0         0
         0         0         0         0         0         0         0         0
         0         0         0         0         0         0         0         0
         0         0         0         0         0         0         0         0
         0         0         0         0         0         0         0         0
         0         0         0         0         0         0         0         0
         0         0         0         0         0         0         0         0
         0         0         0         0         0         0         0         0
         0         0         0         0         0         0         0         0
         0         0         0         0         0         0         0         0
         0         0         0         0         0         0         0         0
         0         0         0         0         0         0         0         0
         0         0         0         0         0         0         0         0
         0         0         0         0         0         0         0         0
         0         0         0         0         0         0         0         0
         0         0         0         0         0         0         0         0
         0         0         0         0         0         0         0         0
         0         0         0         0         0         0         0         0
         0         0         0         0         0         0         0         0
         0         0         0         0         0         0         0         0
         0         0         0         0         0         0         0         0
         0         0         0         0         0         0         0         0
         0         0         0         0         0         0         0         0
         0         0         0         0         0         0         0         0
         0         0         0         0         0         0         0         0
         0         0         0         0         0         0         0         0
         0         0         0         0         0         0         0         0
         0         0         0         0         0         0         0         0
         0         0         0         0         0         0         0         0
         0         0         0         0         0         0         0         0
         0         0         0         0         0         0         0         0
         0         0         0         0         0         0         0         0
         0         0         0         0         0         0         0         0
         0         0         0         0         0         0         0         0
         0         0         0         0         0         0         0         0
         0         0         0         0         0         0         0         0
         0         0         0         0         0         0         0         0
         0         0         0         0         0         0         0         0
         0         0         0         0         0         0         0         0
         0         0         0         0         0         0         0         0
         0         0         0         0         0         0         0         0
         0         0         0         0         0         0         0         0
         0         0         0         0         0         0         0         0
         0         0         0         0         0         0         0         0
         0         0         0         0         0         0         0         0
         0         0         0         0         0         0         0         0
         0         0         0         0         0         0         0         0
         0         0         0         0         0         0         0         0
         0         0         0         0         0         0         0         0
         0         0         0         0         0         0         0         0
         0         0         0         0         0         0         0         0
         0         0         0         0         0         0         0         0
         0         0         0         0         0         0         0         0
         0         0         0         0         0         0         0         0
         0         0         0         0         0         0         0         0
         0         0         0         0         0         0         0         0
         0         0         0         0         0         0         0         0
         0         0         0         0         0         0         0         0
         0         0         0         0         0         0         0         0
         0         0         0         0         0         0         0         0
         0         0         0         0         0         0         0         0
         0         0         0         0         0         0         0         0
         0         0         0         0         0         0         0         0
         0         0         0         0         0         0         0         0
         0         0         0         0         0         0         0         0
         0         0         0         0         0         0         0         0
         0         0         0         0         0         0         0         0
         0         0         0         0         0         0         0         0
         0         0         0         0         0         0         0         0
         0         0         0         0         0         0         0         0
         0         0         0         0         0         0         0         0
         0         0         0         0         0         0         0         0
         0         0         0         0         0         0         0         0
         0         0         0         0         0         0         0         0
         0         0         0         0         0         0         0         0
         0         0         0         0         0         0         0         0
         0         0         0         0         0         0         0         0
         0         0         0         0         0         0         0         0
         0         0         0         0         0         0         0         0
         0         0         0         0         0         0         0         0
         0         0         0         0         0         0         0         0
         0         0         0         0         0         0         0         0
         0         0         0         0         0         0         0         0
         0         0         0         0         0         0         0         0
         0         0         0         0         0         0         0         0
         0         0         0         0         0         0         0         0
         0         0         0         0         0         0         0         0
         0         0         0         0         0         0         0         0
         0         0         0         0         0         0         0         0
         0         0         0         0         0         0         0         0
         0         0         0         0         0         0         0         0
         0         0         0         0         0         0         0         0
         0         0         0         0         0         0         0         0
         0         0         0         0         0         0         0         0
         0         0         0         0         0         0         0         0
         0         0         0         0         0         0         0         0
         0         0         0         0         0         0         0         0
         0         0         0         0         0         0         0         0
         0         0         0         0         0         0         0         0
         0         0         0         0         0         0         0         0
         0         0         0         0         0         0         0         0
         0         0         0         0         0         0         0         0
         0         0         0         0         0         0         0         0
         0         0         0         0         0         0         0         0
         0         0         0         0         0         0         0         0
         0         0         0         0         0         0         0         0
         0         0         0         0         0         0         0         0
         0         0         0         0         0         0         0         0
         0         0         0         0         0         0         0         0
         0         0         0         0         0         0         0         0
         0         0         0         0         0         0         0         0
         0         0         0         0         0         0         0         0
         0         0         0         0         0         0         0         0
         0         0         0         0         0         0         0         0
         0         0         0         0         0         0         0         0
         0         0         0         0         0         0         0         0
         0         0         0         0         0         0         0         0
         0         0         0         0         0         0         0         0
         0         0         0         0         0         0         0         0
         0         0         0         0         0         0         0         0
         0         0         0         0         0         0         0         0
         0         0         0         0         0         0         0         0
         0         0         0         0         0         0         0         0
         0         0         0         0         0         0         0         0
         0         0         0         0         0         0         0         0
         0         0         0         0         0         0         0         0
         0         0         0         0         0         0         0         0
         0         0         0         0         0         0         0         0
         0         0         0         0         0         0         0         0
         0         0         0         0         0         0         0         0
         0         0         0         0         0         0         0         0
         0         0         0         0         0         0         0         0
         0         0         0         0         0         0         0         0
         0         0         0         0         0         0         0         0
         0         0         0         0         0         0         0         0
         0         0         0         0         0         0         0         0
         0         0         0         0         0         0         0         0
         0         0         0         0         0         0         0         0
         0         0         0         0         0         0         0         0
         0         0         0         0         0         0         0         0
         0         0         0         0         0         0         0         0
         0         0         0         0         0         0         0         0
         0         0         0         0         0         0         0         0
         0         0         0         0         0         0         0         0
         0         0         0         0         0         0         0         0
         0         0         0         0         0         0         0         0
         0         0         0         0         0         0         0         0
         0         0         0         0         0         0         0         0
         0         0         0         0         0         0         0         0
         0         0         0         0         0         0         0         0
         0         0         0         0         0         0         0         0
         0         0         0         0         0         0         0         0
         0         0         0         0         0         0         0         0
         0         0         0         0         0         0         0         0
         0         0         0         0         0         0         0         0
         0         0         0         0         0         0         0         0
         0         0         0         0         0         0         0         0
         0         0         0         0         0         0         0         0
         0         0         0         0         0         0         0         0
         0         0         0         0         0         0         0         0
         0         0         0         0         0         0         0         0
         0         0         0         0         0         0         0         0
         0         0         0         0         0         0         0         0
         0         0         0         0         0         0         0         0
         0         0         0         0         0         0         0         0
         0         0         0         0         0         0         0         0
         0         0         0         0         0         0         0         0
         0         0         0         0         0         0         0         0
         0         0         0         0         0         0         0         0
         0         0         0         0         0         0         0         0
         0         0         0         0         0         0         0         0
         0         0         0         0         0         0         0         0
         0         0         0         0         0         0         0         0
         0         0         0         0         0         0         0         0
         0         0         0         0         0         0         0         0
         0         0         0         0         0         0         0         0
         0         0         0         0         0         0         0         0
         0         0         0         0         0         0         0         0
         0         0         0         0         0         0         0         0
         0         0         0         0         0         0         0         0
         0         0         0         0         0         0         0         0
         0         0         0         0         0         0         0         0
         0         0         0         0         0         0         0         0
         0         0         0         0         0         0         0         0
         0         0         0         0         0         0         0         0
         0         0         0         0         0         0         0         0
         0         0         0         0         0         0         0         0
         0         0         0         0         0         0         0         0
         0         0         0         0         0         0         0         0
         0         0         0         0         0         0         0         0
         0         0         0         0         0         0         0         0
         0         0         0         0         0         0         0         0
         0         0         0         0         0         0         0         0
         0         0         0         0         0         0         0         0
         0         0         0         0         0         0         0         0
         0         0         0         0         0         0         0         0
         0         0         0         0         0         0         0         0
         0         0         0         0         0         0         0         0
         0         0         0         0         0         0         0         0
         0         0         0         0         0         0         0         0
         0         0         0         0         0         0         0         0
         0         0         0         0         0         0         0         0
         0         0         0         0         0         0         0         0
         0         0         0         0         0         0         0         0
         0         0         0         0         0         0         0         0
         0         0         0         0         0         0         0         0
         0         0         0         0         0         0         0         0
         0         0         0         0         0         0         0         0
         0         0         0         0         0         0         0         0
         0         0         0         0         0         0         0         0
         0         0         0         0         0         0         0         0
         0         0         0         0         0         0         0         0
         0         0         0         0         0         0         0         0
         0         0         0         0         0         0         0         0
         0         0         0         0         0         0         0         0
         0         0         0         0         0         0         0         0
         0         0         0         0         0         0         0         0
         0         0         0         0         0         0         0         0
         0         0         0         0         0         0         0         0
         0         0         0         0         0         0         0         0
         0         0         0         0         0         0         0         0
         0         0         0         0         0         0         0         0
         0         0         0         0         0         0         0         0
         0         0         0         0         0         0         0         0
         0         0         0         0         0         0         0         0
         0         0         0         0         0         0         0         0
         0         0         0         0         0         0         0         0
         0         0         0         0         0         0         0         0
         0         0         0         0         0         0         0         0
         0         0         0         0         0         0         0         0
         0         0         0         0         0         0         0         0
         0         0         0         0         0         0         0         0
         0         0         0         0         0         0         0         0
         0         0         0         0         0         0         0         0
         0         0         0         0         0         0         0         0
         0         0         0         0         0         0         0         0
         0         0         0         0         0         0         0         0
         0         0         0         0         0         0         0         0
         0         0         0         0         0         0         0         0
         0         0         0         0         0         0         0         0
         0         0         0         0         0         0         0         0
         0         0         0         0         0         0         0         0
         0         0         0         0         0         0         0         0
         0         0         0         0         0         0         0         0
         0         0         0         0         0         0         0         0
         0         0         0         0         0         0         0         0
         0         0         0         0         0         0         0         0
         0         0         0         0         0         0         0         0
         0         0         0         0         0         0         0         0
         0         0         0         0         0         0         0         0
         0         0         0         0         0         0         0         0
         0         0         0         0         0         0         0         0
         0         0         0         0         0         0         0         0
         0         0         0         0         0         0         0         0
         0         0         0         0         0         0         0         0
         0         0         0         0         0         0         0         0
         0         0         0         0         0         0         0         0
         0         0         0         0         0         0         0         0
         0         0         0         0         0         0         0         0
         0         0         0         0         0         0         0         0
         0         0         0         0         0         0         0         0
         0         0         0         0         0         0         0         0
         0         0         0         0         0         0         0         0
         0         0         0         0         0         0         0         0
         0         0         0         0         0         0         0         0
         0         0         0         0         0         0         0         0
         0         0         0         0         0         0         0         0
         0         0         0         0         0         0         0         0
         0         0         0         0         0         0         0         0
         0         0         0         0         0         0         0         0
         0         0         0         0         0         0         0         0
         0         0         0         0         0         0         0         0
         0         0         0         0         0         0         0         0
         0         0         0         0         0         0         0         0
         0         0         0         0         0         0         0         0
         0         0         0         0         0         0         0         0
         0         0         0         0         0         0         0         0
         0         0         0         0         0         0         0         0
         0         0         0         0         0         0         0         0
         0         0         0         0         0         0         0         0
         0         0         0         0         0         0         0         0
         0         0         0         0         0         0         0         0
         0         0         0         0         0         0         0         0
         0         0         0         0         0         0         0         0
         0         0         0         0         0         0         0         0
         0         0         0         0         0         0         0         0
         0         0         0         0         0         0         0         0
         0         0         0         0         0         0         0         0
         0         0         0         0         0         0         0         0
         0         0         0         0         0         0         0         0
         0         0         0         0         0         0         0         0
         0         0         0         0         0         0         0         0
         0         0         0         0         0         0         0         0
         0         0         0         0         0         0         0         0
         0         0         0         0         0         0         0         0
         0         0         0         0         0         0         0         0
         0         0         0         0         0         0         0         0
         0         0         0         0         0         0         0         0
         0         0         0         0         0         0         0         0
         0         0         0         0         0         0         0         0
         0         0         0         0         0         0         0         0
         0         0         0         0         0         0         0         0
         0         0         0         0         0         0         0         0
         0         0         0         0         0         0         0         0
         0         0         0         0         0         0         0         0
         0         0         0         0         0         0         0         0
         0         0         0         0         0         0         0         0
         0         0         0         0         0         0         0         0
         0         0         0         0         0         0         0         0
         0         0         0         0         0         0         0         0
         0         0         0         0         0         0         0         0
         0         0         0         0         0         0         0         0
         0         0         0         0         0         0         0         0
         0         0         0         0         0         0         0         0
         0         0         0         0         0         0         0         0
         0         0         0         0         0         0         0         0
         0         0         0         0         0         0         0         0
         0         0         0         0         0         0         0         0
         0         0         0         0         0         0         0         0
         0         0         0         0         0         0         0         0
         0         0         0         0         0         0         0         0
         0         0         0         0         0         0         0         0
         0         0         0         0         0         0         0         0
         0         0         0         0         0         0         0         0
         0         0         0         0         0         0         0         0
         0         0         0         0         0         0         0         0
         0         0         0         0         0         0         0         0
         0         0         0         0         0         0         0         0
         0         0         0         0         0         0         0         0
         0         0         0         0         0         0         0         0
         0         0         0         0         0         0         0         0
         0         0         0         0         0         0         0         0
         0         0         0         0         0         0         0         0
         0         0         0         0         0         0         0         0
         0         0         0         0         0         0         0         0
         0         0         0         0         0         0         0         0
         0         0         0         0         0         0         0         0
         0         0         0         0         0         0         0         0
         0         0         0         0         0         0         0         0
         0         0         0         0         0         0         0         0
         0         0         0         0         0         0         0         0
         0         0         0         0         0         0         0         0
         0         0         0         0         0         0         0         0
         0         0         0         0         0         0         0         0
         0         0         0         0         0         0         0         0
         0         0         0         0         0         0         0         0
         0         0         0         0         0         0         0         0
         0         0         0         0         0         0         0         0
         0         0         0         0         0         0         0         0
         0         0         0         0         0         0         0         0
         0         0         0         0         0         0         0         0
         0         0         0         0         0         0         0         0
         0         0         0         0         0         0         0         0
         0         0         0         0         0         0         0         0
         0         0         0         0         0         0         0         0
         0         0         0         0         0         0         0         0
         0         0         0         0         0         0         0         0
         0         0         0         0         0         0         0         0
         0         0         0         0         0         0         0         0
         0         0         0         0         0         0         0         0
         0         0         0         0         0         0         0         0
         0         0         0         0         0         0         0         0
         0         0         0         0         0         0         0         0
         0         0         0         0         0         0         0         0
         0         0         0         0         0         0         0         0
         0         0         0         0         0         0         0         0
         0         0         0         0         0         0         0         0
         0         0         0         0         0         0         0         0
         0         0         0         0         0         0         0         0
         0         0         0         0         0         0         0         0
         0         0         0         0         0         0         0         0
         0         0         0         0         0         0         0         0
         0         0         0         0         0         0         0         0
         0         0         0         0         0         0         0         0
         0         0         0         0         0         0         0         0
         0         0         0         0         0         0         0         0
         0         0         0         0         0         0         0         0
         0         0         0         0         0         0         0         0
         0         0         0         0         0         0         0         0
         0         0         0         0         0         0         0         0
         0         0         0         0         0         0         0         0
         0         0         0         0         0         0         0         0
         0         0         0         0         0         0         0         0
         0         0         0         0         0         0         0         0
         0         0         0         0         0         0         0         0
         0         0         0         0         0         0         0         0
         0         0         0         0         0         0         0         0
         0         0         0         0         0         0         0         0
         0         0         0         0         0         0         0         0
         0         0         0         0         0         0         0         0
         0         0         0         0         0         0         0         0
         0         0         0         0         0         0         0         0
         0         0         0         0         0         0         0         0
         0         0         0         0         0         0         0         0
         0         0         0         0         0         0         0         0
         0         0         0         0         0         0         0         0
         0         0         0         0         0         0         0         0
         0         0         0         0         0         0         0         0
         0         0         0         0         0         0         0         0
         0         0         0         0         0         0         0         0
         0         0         0         0         0         0         0         0
         0         0         0         0         0         0         0         0
         0         0         0         0         0         0         0         0
         0         0         0         0         0         0         0         0
         0         0         0         0         0         0         0         0
         0         0         0         0         0         0         0         0
         0         0         0         0         0         0         0         0
         0         0         0         0         0         0         0         0
         0         0         0         0         0         0         0         0
         0         0         0         0         0         0         0         0
         0         0         0         0         0         0         0         0
         0         0         0         0         0         0         0         0
         0         0         0         0         0         0         0         0
         0         0         0         0         0         0         0         0
         0         0         0         0         0         0         0         0
         0         0         0         0         0         0         0         0
         0         0         0         0         0         0         0         0
         0         0         0         0         0         0         0         0
         0         0         0         0         0         0         0         0
         0         0         0         0         0         0         0         0
         0         0         0         0         0         0         0         0
         0         0         0         0         0         0         0         0
         0         0         0         0         0         0         0         0
         0         0         0         0         0         0         0         0
         0         0         0         0         0         0         0         0
         0         0         0         0         0         0         0         0
         0         0         0         0         0         0         0         0
         0         0         0         0         0         0         0         0
         0         0         0         0         0         0         0         0
         0         0         0         0         0         0         0         0
         0         0         0         0         0         0         0         0
         0         0         0         0         0         0         0         0
         0         0         0         0         0         0         0         0
         0         0         0         0         0         0         0         0
         0         0         0         0         0         0         0         0
         0         0         0         0         0         0         0         0
         0         0         0         0         0         0         0         0
         0         0         0         0         0         0         0         0
         0         0         0         0         0         0         0         0
         0         0         0         0         0         0         0         0
         0         0         0         0         0         0         0         0
         0         0         0         0         0         0         0         0
         0         0         0         0         0         0         0         0
         0         0         0         0         0         0         0         0
         0         0         0         0         0         0         0         0
         0         0         0         0         0         0         0         0
         0         0         0         0         0         0         0         0
         0         0         0         0         0         0         0         0
         0         0         0         0         0         0         0         0
         0         0         0         0         0         0         0         0
         0         0         0         0         0         0         0         0
         0         0         0         0         0         0         0         0
         0         0         0         0         0         0         0         0
         0         0         0         0         0         0         0         0
         0         0         0         0         0         0         0         0
         0         0         0         0         0         0         0         0
         0         0         0         0         0         0         0         0
         0         0         0         0         0         0         0         0
         0         0         0         0         0         0         0         0
         0         0         0         0         0         0         0         0
         0         0         0         0         0         0         0         0
         0         0         0         0         0         0         0         0
         0         0         0         0         0         0         0         0
         0         0         0         0         0         0         0         0
         0         0         0         0         0         0         0         0
         0         0         0         0         0         0         0         0
         0         0         0         0         0         0         0         0
         0         0         0         0         0         0         0         0
         0         0         0         0         0         0         0         0
         0         0         0         0         0         0         0         0
         0         0         0         0         0         0         0         0
         0         0         0         0         0         0         0         0
         0         0         0         0         0         0         0         0
         0         0         0         0         0         0         0         0
         0         0         0         0         0         0         0         0
         0         0         0         0         0         0         0         0
         0         0         0         0         0         0         0         0
         0         0         0         0         0         0         0         0
         0         0         0         0         0         0         0         0
         0         0         0         0         0         0         0         0
         0         0         0         0         0         0         0         0
         0         0         0         0         0         0         0         0
         0         0         0         0         0         0         0         0
         0         0         0         0         0         0         0         0
         0         0         0         0         0         0         0         0
         0         0         0         0         0         0         0         0
         0         0         0         0         0         0         0         0
         0         0         0         0         0         0         0         0
         0         0         0         0         0         0         0         0
         0         0         0         0         0         0         0         0
         0         0         0         0         0         0         0         0
         0         0         0         0         0         0         0         0
         0         0         0         0         0         0         0         0
         0         0         0         0         0         0         0         0
         0         0         0         0         0         0         0         0
         0         0         0         0         0         0         0         0
         0         0         0         0         0         0         0         0
         0         0         0         0         0         0         0         0
         0         0         0         0         0         0         0         0
         0         0         0         0         0         0         0         0
         0         0         0         0         0         0         0         0
         0         0         0         0         0         0         0         0
         0         0         0         0         0         0         0         0
         0         0         0         0         0         0         0         0
         0         0         0         0         0         0         0         0
         0         0         0         0         0         0         0         0
         0         0         0         0         0         0         0         0
         0         0         0         0         0         0         0         0
         0         0         0         0         0         0         0         0
         0         0         0         0         0         0         0         0
         0         0         0         0         0         0         0         0
         0         0         0         0         0         0         0         0
         0         0         0         0         0         0         0         0
         0         0         0         0         0         0         0         0
         0         0         0         0         0         0         0         0
         0         0         0         0         0         0         0         0
         0         0         0         0         0         0         0         0
         0         0         0         0         0         0         0         0
         0         0         0         0         0         0         0         0
         0         0         0         0         0         0         0         0
         0         0         0         0         0         0         0         0
         0         0         0         0         0         0         0         0
         0         0         0         0         0         0         0         0
         0         0         0         0         0         0         0         0
         0         0         0         0         0         0         0         0
         0         0         0         0         0         0         0         0
         0         0         0         0         0         0         0         0
         0         0         0         0         0         0         0         0
         0         0         0         0         0         0         0         0
         0         0         0         0         0         0         0         0
         0         0         0         0         0         0         0         0
         0         0         0         0         0         0         0         0
         0         0         0         0         0         0         0         0
         0         0         0         0         0         0         0         0
         0         0         0         0         0         0         0         0
         0         0         0         0         0         0         0         0
         0         0         0         0         0         0         0         0
         0         0         0         0         0         0         0         0
         0         0         0         0         0         0         0         0
         0         0         0         0         0         0         0         0
         0         0         0         0         0         0         0         0
         0         0         0         0         0         0         0         0
         0         0         0         0         0         0         0         0
         0         0         0         0         0         0         0         0
         0         0         0         0         0         0         0         0
         0         0         0         0         0         0         0         0
         0         0         0         0         0         0         0         0
         0         0         0         0         0         0         0         0
         0         0         0         0         0         0         0         0
         0         0         0         0         0         0         0         0
         0         0         0         0         0         0         0         0
         0         0         0         0         0         0         0         0
         0         0         0         0         0         0         0         0
         0         0         0         0         0         0         0         0
         0         0         0         0         0         0         0         0
         0         0         0         0         0         0         0         0
         0         0         0         0         0         0         0         0
         0         0         0         0         0         0         0         0
         0         0         0         0         0         0         0         0
         0         0         0         0         0         0         0         0
         0         0         0         0         0         0         0         0
         0         0         0         0         0         0         0         0
         0         0         0         0         0         0         0         0
         0         0         0         0         0         0         0         0
         0         0         0         0         0         0         0         0
         0         0         0         0         0         0         0         0
         0         0         0         0         0         0         0         0
         0         0         0         0         0         0         0         0
         0         0         0         0         0         0         0         0
         0         0         0         0         0         0         0         0
         0         0         0         0         0         0         0         0
         0         0         0         0         0         0         0         0
         0         0         0         0         0         0         0         0
         0         0         0         0         0         0         0         0
         0         0         0         0         0         0         0         0
         0         0         0         0         0         0         0         0
         0         0         0         0         0         0         0         0
         0         0         0         0         0         0         0         0
         0         0         0         0         0         0         0         0
         0         0         0         0         0         0         0         0
         0         0         0         0         0         0         0         0
         0         0         0         0         0         0         0         0
         0         0         0         0         0         0         0         0
         0         0         0         0         0         0         0         0
         0         0         0         0         0         0         0         0
         0         0         0         0         0         0         0         0
         0         0         0         0         0         0         0         0
         0         0         0         0         0         0         0         0
         0         0         0         0         0         0         0         0
         0         0         0         0         0         0         0         0
         0         0         0         0         0         0         0         0
         0         0         0         0         0         0         0         0
         0         0         0         0         0         0         0         0
         0         0         0         0         0         0         0         0
         0         0         0         0         0         0         0         0
         0         0         0         0         0         0         0         0
         0         0         0         0         0         0         0         0
         0         0         0         0         0         0         0         0
         0         0         0         0         0         0         0         0
         0         0         0         0         0         0         0         0
         0         0         0         0         0         0         0         0
         0         0         0         0         0         0         0         0
         0         0         0         0         0         0         0         0
         0         0         0         0         0         0         0         0
         0         0         0         0         0         0         0         0
         0         0         0         0         0         0         0         0
         0         0         0         0         0         0         0         0
         0         0         0         0         0         0         0         0
         0         0         0         0         0         0         0         0
         0         0         0         0         0         0         0         0
         0         0         0         0         0         0         0         0
         0         0         0         0         0         0         0         0
         0         0         0         0         0         0         0         0
         0         0         0         0         0         0         0         0
         0         0         0         0         0         0         0         0
         0         0         0         0         0         0         0         0
         0         0         0         0         0         0         0         0
         0         0         0         0         0         0         0         0
         0         0         0         0         0         0         0         0
         0         0         0         0         0         0         0         0
         0         0         0         0         0         0         0         0
         0         0         0         0         0         0         0         0
         0         0         0         0         0         0         0         0
         0         0         0         0         0         0         0         0
         0         0         0         0         0         0         0         0
         0         0         0         0         0         0         0         0
         0         0         0         0         0         0         0         0
         0         0         0         0         0         0         0         0
         0         0         0         0         0         0         0         0
         0         0         0         0         0         0         0         0
         0         0         0         0         0         0         0         0
         0         0         0         0         0         0         0         0
         0         0         0         0         0         0         0         0
         0         0         0         0         0         0         0         0
         0         0         0         0         0         0         0         0
         0         0         0         0         0         0         0         0
         0         0         0         0         0         0         0         0
         0         0         0         0         0         0         0         0
         0         0         0         0         0         0         0         0
         0         0         0         0         0         0         0         0
         0         0         0         0         0         0         0         0
         0         0         0         0         0         0         0         0
         0         0         0         0         0         0         0         0
         0         0         0         0         0         0         0         0
         0         0         0         0         0         0         0         0
         0         0         0         0         0         0         0         0
         0         0         0         0         0         0         0         0
         0         0         0         0         0         0         0         0
         0         0         0         0         0         0         0         0
         0         0         0         0         0         0         0         0
         0         0         0         0         0         0         0         0
         0         0         0         0         0         0         0         0
         0         0         0         0         0         0         0         0
         0         0         0         0         0         0         0         0
         0         0         0         0         0         0         0         0
         0         0         0         0         0         0         0         0
         0         0         0         0         0         0         0         0
         0         0         0         0         0         0         0         0
         0         0         0         0         0         0         0         0
         0         0         0         0         0         0         0         0
         0         0         0         0         0         0         0         0
         0         0         0         0         0         0         0         0
         0         0         0         0         0         0         0         0
         0         0         0         0         0         0         0         0
         0         0         0         0         0         0         0         0
         0         0         0         0         0         0         0         0
         0         0         0         0         0         0         0         0
         0         0         0         0         0         0         0         0
         0         0         0         0         0         0         0         0
         0         0         0         0         0         0         0         0
         0         0         0         0         0         0         0         0
         0         0         0         0         0         0         0         0
         0         0         0         0         0         0         0         0
         0         0         0         0         0         0         0         0
         0         0         0         0         0         0         0         0
         0         0         0         0         0         0         0         0
         0         0         0         0         0         0         0         0
         0         0         0         0         0         0         0         0
         0         0         0         0         0         0         0         0
         0         0         0         0         0         0         0         0
         0         0         0         0         0         0         0         0
         0         0         0         0         0         0         0         0
         0         0         0         0         0         0         0         0
         0         0         0         0         0         0         0         0
         0         0         0         0         0         0         0         0
         0         0         0         0         0         0         0         0
         0         0         0         0         0         0         0         0
         0         0         0         0         0         0         0         0
         0         0         0         0         0         0         0         0
         0         0         0         0         0         0         0         0
         0         0         0         0         0         0         0         0
         0         0         0         0         0         0         0         0
         0         0         0         0         0         0         0         0
         0         0         0         0         0         0         0         0
         0         0         0         0         0         0         0         0
         0         0         0         0         0         0         0         0
         0         0         0         0         0         0         0         0
         0         0         0         0         0         0         0         0
         0         0         0         0         0         0         0         0
         0         0         0         0         0         0         0         0
         0         0         0         0         0         0         0         0
         0         0         0         0         0         0         0         0
         0         0         0         0         0         0         0         0
         0         0         0         0         0         0         0         0
         0         0         0         0         0         0         0         0
         0         0         0         0         0         0         0         0
         0         0         0         0         0         0         0         0
         0         0         0         0         0         0         0         0
         0         0         0         0         0         0         0         0
         0         0         0         0         0         0         0         0
         0         0         0         0         0         0         0         0
         0         0         0         0         0         0         0         0
         0         0         0         0         0         0         0         0
         0         0         0         0         0         0         0         0
         0         0         0         0         0         0         0         0
         0         0         0         0         0         0         0         0
         0         0         0         0         0         0         0         0
         0         0         0         0         0         0         0         0
         0         0         0         0         0         0         0         0
         0         0         0         0         0         0         0         0
         0         0         0         0         0         0         0         0
         0         0         0         0         0         0         0         0
         0         0         0         0         0         0         0         0
         0         0         0         0         0         0         0         0
         0         0         0         0         0         0         0         0
         0         0         0         0         0         0         0         0
         0         0         0         0         0         0         0         0
         0         0         0         0         0         0         0         0
         0         0         0         0         0         0         0         0
         0         0         0         0         0         0         0         0
         0         0         0         0         0         0         0         0
         0         0         0         0         0         0         0         0
         0         0         0         0         0         0         0         0
         0         0         0         0         0         0         0         0
         0         0         0         0         0         0         0         0
         0         0         0         0         0         0         0         0
         0         0         0         0         0         0         0         0
         0         0         0         0         0         0         0         0
         0         0         0         0         0         0         0         0
         0         0         0         0         0         0         0         0
         0         0         0         0         0         0         0         0
         0         0         0         0         0         0         0         0
         0         0         0         0         0         0         0         0
         0         0         0         0         0         0         0         0
         0         0         0         0         0         0         0         0
         0         0         0         0         0         0         0         0
         0         0         0         0         0         0         0         0
         0         0         0         0         0         0         0         0
         0         0         0         0         0         0         0         0
         0         0         0         0         0         0         0         0
         0         0         0         0         0         0         0         0
         0         0         0         0         0         0         0         0
         0         0         0         0         0         0         0         0
         0         0         0         0         0         0         0         0
         0         0         0         0         0         0         0         0
         0         0         0         0         0         0         0         0
         0         0         0         0         0         0         0         0
         0         0         0         0         0         0         0         0
         0         0         0         0         0         0         0         0
         0         0         0         0         0         0         0         0
         0         0         0         0         0         0         0         0
         0         0         0         0         0         0         0         0
         0         0         0         0         0         0         0         0
         0         0         0         0         0         0         0         0
         0         0         0         0         0         0         0         0
         0         0         0         0         0         0         0         0
         0         0         0         0         0         0         0         0
         0         0         0         0         0         0         0         0
         0         0         0         0         0         0         0         0
         0         0         0         0         0         0         0         0
         0         0         0         0         0         0         0         0
         0         0         0         0         0         0         0         0
         0         0         0         0         0         0         0         0
         0         0         0         0         0         0         0         0
         0         0         0         0         0         0         0         0
         0         0         0         0         0         0         0         0
         0         0         0         0         0         0         0         0
         0         0         0         0         0         0         0         0
         0         0         0         0         0         0         0         0
         0         0         0         0         0         0         0         0
         0         0         0         0         0         0         0         0
         0         0         0         0         0         0         0         0
         0         0         0         0         0         0         0         0
         0         0         0         0         0         0         0         0
         0         0         0         0         0         0         0         0
         0         0         0         0         0         0         0         0
         0         0         0         0         0         0         0         0
         0         0         0         0         0         0         0         0
         0         0         0         0         0         0         0         0
         0         0         0         0         0         0         0         0
         0         0         0         0         0         0         0         0
         0         0         0         0         0         0         0         0
         0         0         0         0         0         0         0         0
         0         0         0         0         0         0         0         0
         0         0         0         0         0         0         0         0
         0         0         0         0         0         0         0         0
         0         0         0         0         0         0         0         0
         0         0         0         0         0         0         0         0
         0         0         0         0         0         0         0         0
         0         0         0         0         0         0         0         0
         0         0         0         0         0         0         0         0
         0         0         0         0         0         0         0         0
         0         0         0         0         0         0         0         0
         0         0         0         0         0         0         0         0
         0         0         0         0         0         0         0         0
         0         0         0         0         0         0         0         0
         0         0         0         0         0         0         0         0
         0         0         0         0         0         0         0         0
         0         0         0         0         0         0         0         0
         0         0         0         0         0         0         0         0
         0         0         0         0         0         0         0         0
         0         0         0         0         0         0         0         0
         0         0         0         0         0         0         0         0
         0         0         0         0         0         0         0         0
         0         0         0         0         0         0         0         0
         0         0         0         0         0         0         0         0
         0         0         0         0         0         0         0         0
         0         0         0         0         0         0         0         0
         0         0         0         0         0         0         0         0
         0         0         0         0         0         0         0         0
         0         0         0         0         0         0         0         0
         0         0         0         0         0         0         0         0
         0         0         0         0         0         0         0         0
         0         0         0         0         0         0         0         0
         0         0         0         0         0         0         0         0
         0         0         0         0         0         0         0         0
         0         0         0         0         0         0         0         0
         0         0         0         0         0         0         0         0
         0         0         0         0         0         0         0         0
         0         0         0         0         0         0         0         0
         0         0         0         0         0         0         0         0
         0         0         0         0         0         0         0         0
         0         0         0         0         0         0         0         0
         0         0         0         0         0         0         0         0
         0         0         0         0         0         0         0         0
         0         0         0         0         0         0         0         0
         0         0         0         0         0         0         0         0
         0         0         0         0         0         0         0         0
         0         0         0         0         0         0         0         0
         0         0         0         0         0         0         0         0
         0         0         0         0         0         0         0         0
         0         0         0         0         0         0         0         0
         0         0         0         0         0         0         0         0
         0         0         0         0         0         0         0         0
         0         0         0         0         0         0         0         0
         0         0         0         0         0         0         0         0
         0         0         0         0         0         0         0         0
         0         0         0         0         0         0         0         0
         0         0         0         0         0         0         0         0
         0         0         0         0         0         0         0         0
         0         0         0         0         0         0         0         0
         0         0         0         0         0         0         0         0
         0         0         0         0         0         0         0         0
         0         0         0         0         0         0         0         0
         0         0         0         0         0         0         0         0
         0         0         0         0         0         0         0         0
         0         0         0         0         0         0         0         0
         0         0         0         0         0         0         0         0
         0         0         0         0         0         0         0         0
         0         0         0         0         0         0         0         0
         0         0         0         0         0         0         0         0
         0         0         0         0         0         0         0         0
         0         0         0         0         0         0         0         0
         0         0         0         0         0         0         0         0
         0         0         0         0         0         0         0         0
         0         0         0         0         0         0         0         0
         0         0         0         0         0         0         0         0
         0         0         0         0         0         0         0         0
         0         0         0         0         0         0         0         0
         0         0         0         0         0         0         0         0
         0         0         0         0         0         0         0         0
         0         0         0         0         0         0         0         0
         0         0         0         0         0         0         0         0
         0         0         0         0         0         0         0         0
         0         0         0         0         0         0         0         0
         0         0         0         0         0         0         0         0
         0         0         0         0         0         0         0         0
         0         0         0         0         0         0         0         0
         0         0         0         0         0         0         0         0
         0         0         0         0         0         0         0         0
         0         0         0         0         0         0         0         0
         0         0         0         0         0         0         0         0
         0         0         0         0         0         0         0         0
         0         0         0         0         0         0         0         0
         0         0         0         0         0         0         0         0
         0         0         0         0         0         0         0         0
         0         0         0         0         0         0         0         0
         0         0         0         0         0         0         0         0
         0         0         0         0         0         0         0         0
         0         0         0         0         0         0         0         0
         0         0         0         0         0         0         0         0
         0         0         0         0         0         0         0         0
         0         0         0         0         0         0         0         0
         0         0         0         0         0         0         0         0
         0         0         0         0         0         0         0         0
         0         0         0         0         0         0         0         0
         0         0         0         0         0         0         0         0
         0         0         0         0         0         0         0         0
         0         0         0         0         0         0         0         0
         0         0         0         0         0         0         0         0
         0         0         0         0         0         0         0         0
         0         0         0         0         0         0         0         0
         0         0         0         0         0         0         0         0
         0         0         0         0         0         0         0         0
         0         0         0         0         0         0         0         0
         0         0         0         0         0         0         0         0
         0         0         0         0         0         0         0         0
         0         0         0         0         0         0         0         0
         0         0         0         0         0         0         0         0
         0         0         0         0         0         0         0         0
         0         0         0         0         0         0         0         0
         0         0         0         0         0         0         0         0
         0         0         0         0         0         0         0         0
         0         0         0         0         0         0         0         0
         0         0         0         0         0         0         0         0
         0         0         0         0         0         0         0         0
         0         0         0         0         0         0         0         0
         0         0         0         0         0         0         0         0
         0         0         0         0         0         0         0         0
         0         0         0         0         0         0         0         0
         0         0         0         0         0         0         0         0
         0         0         0         0         0         0         0         0
         0         0         0         0         0         0         0         0
         0         0         0         0         0         0         0         0
         0         0         0         0         0         0         0         0
         0         0         0         0         0         0         0         0
         0         0         0         0         0         0         0         0
         0         0         0         0         0         0         0         0
         0         0         0         0         0         0         0         0
         0         0         0         0         0         0         0         0
         0         0         0         0         0         0         0         0
         0         0         0         0         0         0         0         0
         0         0         0         0         0         0         0         0
         0         0         0         0         0         0         0         0
         0         0         0         0         0         0         0         0
         0         0         0         0         0         0         0         0
         0         0         0         0         0         0         0         0
         0         0         0         0         0         0         0         0
         0         0         0         0         0         0         0         0
         0         0         0         0         0         0         0         0
         0         0         0         0         0         0         0         0
         0         0         0         0         0         0         0         0
         0         0         0         0         0         0         0         0
         0         0         0         0         0         0         0         0
         0         0         0         0         0         0         0         0
         0         0         0         0         0         0         0         0
         0         0         0         0         0         0         0         0
         0         0         0         0         0         0         0         0
         0         0         0         0         0         0         0         0
         0         0         0         0         0         0         0         0
         0         0         0         0         0         0         0         0
         0         0         0         0         0         0         0         0
         0         0         0         0         0         0         0         0
         0         0         0         0         0         0         0         0
         0         0         0         0         0         0         0         0
         0         0         0         0         0         0         0         0
         0         0         0         0         0         0         0         0
         0         0         0         0         0         0         0         0
         0         0         0         0         0         0         0         0
         0         0         0         0         0         0         0         0
         0         0         0         0         0         0         0         0
         0         0         0         0         0         0         0         0
         0         0         0         0         0         0         0         0
         0         0         0         0         0         0         0         0
         0         0         0         0         0         0         0         0
         0         0         0         0         0         0         0         0
         0         0         0         0         0         0         0         0
         0         0         0         0         0         0         0         0
         0         0         0         0         0         0         0         0
         0         0         0         0         0         0         0         0
         0         0         0         0         0         0         0         0
         0         0         0         0         0         0         0         0
         0         0         0         0         0         0         0         0
         0         0         0         0         0         0         0         0
         0         0         0         0         0         0         0         0
         0         0         0         0         0         0         0         0
         0         0         0         0         0         0         0         0
         0         0         0         0         0         0         0         0
         0         0         0         0         0         0         0         0
         0         0         0         0         0         0         0         0
         0         0         0         0         0         0         0         0
         0         0         0         0         0         0         0         0
         0         0         0         0         0         0         0         0
         0         0         0         0         0         0         0         0
         0         0         0         0         0         0         0         0
         0         0         0         0         0         0         0         0
         0         0         0         0         0         0         0         0
         0         0         0         0         0         0         0         0
         0         0         0         0         0         0         0         0
         0         0         0         0         0         0         0         0
         0         0         0         0         0         0         0         0
         0         0         0         0         0         0         0         0
         0         0         0         0         0         0         0         0
         0         0         0         0         0         0         0         0
         0         0         0         0         0         0         0         0
         0         0         0         0         0         0         0         0
         0         0         0         0         0         0         0         0
         0         0         0         0         0         0         0         0
         0         0         0         0         0         0         0         0
         0         0         0         0         0         0         0         0
         0         0         0         0         0         0         0         0
         0         0         0         0         0         0         0         0
         0         0         0         0         0         0         0         0
         0         0         0         0         0         0         0         0
         0         0         0         0         0         0         0         0
         0         0         0         0         0         0         0         0
         0         0         0         0         0         0         0         0
         0         0         0         0         0         0         0         0
         0         0         0         0         0         0         0         0
         0         0         0         0         0         0         0         0
         0         0         0         0         0         0         0         0
         0         0         0         0         0         0         0         0
         0         0         0         0         0         0         0         0
         0         0         0         0         0         0         0         0
         0         0         0         0         0         0         0         0
         0         0         0         0         0         0         0         0
         0         0         0         0         0         0         0         0
         0         0         0         0         0         0         0         0
         0         0         0         0         0         0         0         0
         0         0         0         0         0         0         0         0
         0         0         0         0         0         0         0         0
         0         0         0         0         0         0         0         0
         0         0         0         0         0         0         0         0
         0         0         0         0         0         0         0         0
         0         0         0         0         0         0         0         0
         0         0         0         0         0         0         0         0
         0         0         0         0         0         0         0         0
         0         0         0         0         0         0         0         0
         0         0         0         0         0         0         0         0
         0         0         0         0         0         0         0         0
         0         0         0         0         0         0         0         0
         0         0         0         0         0         0         0         0
         0         0         0         0         0         0         0         0
         0         0         0         0         0         0         0         0
         0         0         0         0         0         0         0         0
         0         0         0         0         0         0         0         0
         0         0         0         0         0         0         0         0
         0         0         0         0         0         0         0         0
         0         0         0         0         0         0         0         0
         0         0         0         0         0         0         0         0
         0         0         0         0         0         0         0         0
         0         0         0         0         0         0         0         0
         0         0         0         0         0         0         0         0
         0         0         0         0         0         0         0         0
         0         0         0         0         0         0         0         0
         0         0         0         0         0         0         0         0
         0         0         0         0         0         0         0         0
         0         0         0         0         0         0         0         0
         0         0         0         0         0         0         0         0
         0         0         0         0         0         0         0         0
         0         0         0         0         0         0         0         0
         0         0         0         0         0         0         0         0
         0         0         0         0         0         0         0         0
         0         0         0         0         0         0         0         0
         0         0         0         0         0         0         0         0
         0         0         0         0         0         0         0         0
         0         0         0         0         0         0         0         0
         0         0         0         0         0         0         0         0
         0         0         0         0         0         0         0         0
         0         0         0         0         0         0         0         0
         0         0         0         0         0         0         0         0
         0         0         0         0         0         0         0         0
         0         0         0         0         0         0         0         0
         0         0         0         0         0         0         0         0
         0         0         0         0         0         0         0         0
         0         0         0         0         0         0         0         0
         0         0         0         0         0         0         0         0
         0         0         0         0         0         0         0         0
         0         0         0         0         0         0         0         0
         0         0         0         0         0         0         0         0
         0         0         0         0         0         0         0         0
         0         0         0         0         0         0         0         0
         0         0         0         0         0         0         0         0
         0         0         0         0         0         0         0         0
         0         0         0         0         0         0         0         0
         0         0         0         0         0         0         0         0
         0         0         0         0         0         0         0         0
         0         0         0         0         0         0         0         0
         0         0         0         0         0         0         0         0
         0         0         0         0         0         0         0         0
         0         0         0         0         0         0         0         0
         0         0         0         0         0         0         0         0
         0         0         0         0         0         0         0         0
         0         0         0         0         0         0         0         0
         0         0         0         0         0         0         0         0
         0         0         0         0         0         0         0         0
         0         0         0         0         0         0         0         0
         0         0         0         0         0         0         0         0
         0         0         0         0         0         0         0         0
         0         0         0         0         0         0         0         0
         0         0         0         0         0         0         0         0
         0         0         0         0         0         0         0         0
         0         0         0         0         0         0         0         0
         0         0         0         0         0         0         0         0
         0         0         0         0         0         0         0         0
         0         0         0         0         0         0         0         0
         0         0         0         0         0         0         0         0
         0         0         0         0         0         0         0         0
         0         0         0         0         0         0         0         0
         0         0         0         0         0         0         0         0
         0         0         0         0         0         0         0         0
         0         0         0         0         0         0         0         0
         0         0         0         0         0         0         0         0
         0         0         0         0         0         0         0         0
         0         0         0         0         0         0         0         0
         0         0         0         0         0         0         0         0
         0         0         0         0         0         0         0         0
         0         0         0         0         0         0         0         0
         0         0         0         0         0         0         0         0
         0         0         0         0         0         0         0         0
         0         0         0         0         0         0         0         0
         0         0         0         0         0         0         0         0
         0         0         0         0         0         0         0         0
         0         0         0         0         0         0         0         0
         0         0         0         0         0         0         0         0
         0         0         0         0         0         0         0         0
         0         0         0         0         0         0         0         0
         0         0         0         0         0         0         0         0
         0         0         0         0         0         0         0         0
         0         0         0         0         0         0         0         0
         0         0         0         0         0         0         0         0
         0         0         0         0         0         0         0         0
         0         0         0         0         0         0         0         0
         0         0         0         0         0         0         0         0
         0         0         0         0         0         0         0         0
         0         0         0         0         0         0         0         0
         0         0         0         0         0         0         0         0
         0         0         0         0         0         0         0         0
         0         0         0         0         0         0         0         0
         0         0         0         0         0         0         0         0
         0         0         0         0         0         0         0         0
         0         0         0         0         0         0         0         0
         0         0         0         0         0         0         0         0
         0         0         0         0         0         0         0         0
         0         0         0         0         0         0         0         0
         0         0         0         0         0         0         0         0
         0         0         0         0         0         0         0         0
         0         0         0         0         0         0         0         0
         0         0         0         0         0         0         0         0
         0         0         0         0         0         0         0         0
         0         0         0         0         0         0         0         0
         0         0         0         0         0         0         0         0
         0         0         0         0         0         0         0         0
         0         0         0         0         0         0         0         0
         0         0         0         0         0         0         0         0
         0         0         0         0         0         0         0         0
         0         0         0         0         0         0         0         0
         0         0         0         0         0         0         0         0
         0         0         0         0         0         0         0         0
         0         0         0         0         0         0         0         0
         0         0         0         0         0         0         0         0
         0         0         0         0         0         0         0         0
         0         0         0         0         0         0         0         0
         0         0         0         0         0         0         0         0
         0         0         0         0         0         0         0         0
         0         0         0         0         0         0         0         0
         0         0         0         0         0         0         0         0
         0         0         0         0         0         0         0         0
         0         0         0         0         0         0         0         0
         0         0         0         0         0         0         0         0
         0         0         0         0         0         0         0         0
         0         0         0         0         0         0         0         0
         0         0         0         0         0         0         0         0
         0         0         0         0         0         0         0         0
         0         0         0         0         0         0         0         0
         0         0         0         0         0         0         0         0
         0         0         0         0         0         0         0         0
         0         0         0         0         0         0         0         0
         0         0         0         0         0         0         0         0
         0         0         0         0         0         0         0         0
         0         0         0         0         0         0         0         0
         0         0         0         0         0         0         0         0
         0         0         0         0         0         0         0         0
         0         0         0         0         0         0         0         0
         0         0         0         0         0         0         0         0
         0         0         0         0         0         0         0         0
         0         0         0         0         0         0         0         0
         0         0         0         0         0         0         0         0
         0         0         0         0         0         0         0         0
         0         0         0         0         0         0         0         0
         0         0         0         0         0         0         0         0
         0         0         0         0         0         0         0         0
         0         0         0         0         0         0         0         0
         0         0         0         0         0         0         0         0
         0         0         0         0         0         0         0         0
         0         0         0         0         0         0         0         0
         0         0         0         0         0         0         0         0
         0         0         0         0         0         0         0         0
         0         0         0         0         0         0         0         0
         0         0         0         0         0         0         0         0
         0         0         0         0         0         0         0         0
         0         0         0         0         0         0         0         0
         0         0         0         0         0         0         0         0
         0         0         0         0         0         0         0         0
         0         0         0         0         0         0         0         0
         0         0         0         0         0         0         0         0
         0         0         0         0         0         0         0         0
         0         0         0         0         0         0         0         0
         0         0         0         0         0         0         0         0
         0         0         0         0         0         0         0         0
         0         0         0         0         0         0         0         0
         0         0         0         0         0         0         0         0
         0         0         0         0         0         0         0         0
         0         0         0         0         0         0         0         0
         0         0         0         0         0         0         0         0
         0         0         0         0         0         0         0         0
         0         0         0         0         0         0         0         0
         0         0         0         0         0         0         0         0
         0         0         0         0         0         0         0         0
         0         0         0         0         0         0         0         0
         0         0         0         0         0         0         0         0
         0         0         0         0         0         0         0         0
         0         0         0         0         0         0         0         0
         0         0         0         0         0         0         0         0
         0         0         0         0         0         0         0         0
         0         0         0         0         0         0         0         0
         0         0         0         0         0         0         0         0
         0         0         0         0         0         0         0         0
         0         0         0         0         0         0         0         0
         0         0         0         0         0         0         0         0
         0         0         0         0         0         0         0         0
         0         0         0         0         0         0         0         0
         0         0         0         0         0         0         0         0
         0         0         0         0         0         0         0         0
         0         0         0         0         0         0         0         0
         0         0         0         0         0         0         0         0
         0         0         0         0         0         0         0         0
         0         0         0         0         0         0         0         0
         0         0         0         0         0         0         0         0
         0         0         0         0         0         0         0         0
         0         0         0         0         0         0         0         0
         0         0         0         0         0         0         0         0
         0         0         0         0         0         0         0         0
         0         0         0         0         0         0         0         0
         0         0         0         0         0         0         0         0
         0         0         0         0         0         0         0         0
         0         0         0         0         0         0         0         0
         0         0         0         0         0         0         0         0
         0         0         0         0         0         0         0         0
         0         0         0         0         0         0         0         0
         0         0         0         0         0         0         0         0
         0         0         0         0         0         0         0         0
         0         0         0         0         0         0         0         0
         0         0         0         0         0         0         0         0
         0         0         0         0         0         0         0         0
         0         0         0         0         0         0         0         0
         0         0         0         0         0         0         0         0
         0         0         0         0         0         0         0         0
         0         0         0         0         0         0         0         0
         0         0         0         0         0         0         0         0
         0         0         0         0         0         0         0         0
         0         0         0         0         0         0         0         0
         0         0         0         0         0         0         0         0
         0         0         0         0         0         0         0         0
         0         0         0         0         0         0         0         0
         0         0         0         0         0         0         0         0
         0         0         0         0         0         0         0         0
         0         0         0         0         0         0         0         0
         0         0         0         0         0         0         0         0
         0         0         0         0         0         0         0         0
         0         0         0         0         0         0         0         0
         0         0         0         0         0         0         0         0
         0         0         0         0         0         0         0         0
         0         0         0         0         0         0         0         0
         0         0         0         0         0         0         0         0
         0         0         0         0         0         0         0         0
         0         0         0         0         0         0         0         0
         0         0         0         0         0         0         0         0
         0         0         0         0         0         0         0         0
         0         0         0         0         0         0         0         0
         0         0         0         0         0         0         0         0
         0         0         0         0         0         0         0         0
         0         0         0         0         0         0         0         0
         0         0         0         0         0         0         0         0
         0         0         0         0         0         0         0         0
         0         0         0         0         0         0         0         0
         0         0         0         0         0         0         0         0
         0         0         0         0         0         0         0         0
         0         0         0         0         0         0         0         0
         0         0         0         0         0         0         0         0
         0         0         0         0         0         0         0         0
         0         0         0         0         0         0         0         0
         0         0         0         0         0         0         0         0
         0         0         0         0         0         0         0         0
         0         0         0         0         0         0         0         0
         0         0         0         0         0         0         0         0
         0         0         0         0         0         0         0         0
         0         0         0         0         0         0         0         0
         0         0         0         0         0         0         0         0
         0         0         0         0         0         0         0         0
         0         0         0         0         0         0         0         0
         0         0         0         0         0         0         0         0
         0         0         0         0         0         0         0         0
         0         0         0         0         0         0         0         0
         0         0         0         0         0         0         0         0
         0         0         0         0         0         0         0         0
         0         0         0         0         0         0         0         0
         0         0         0         0         0         0         0         0
         0         0         0         0         0         0         0         0
         0         0         0         0         0         0         0         0
         0         0         0         0         0         0         0         0
         0         0         0         0         0         0         0         0
         0         0         0         0         0         0         0         0
         0         0         0         0         0         0         0         0
         0         0         0         0         0         0         0         0
         0         0         0         0         0         0         0         0
         0         0         0         0         0         0         0         0
         0         0         0         0         0         0         0         0
         0         0         0         0         0         0         0         0
         0         0         0         0         0         0         0         0
         0         0         0         0         0         0         0         0
         0         0         0         0         0         0         0         0
         0         0         0         0         0         0         0         0
         0         0         0         0         0         0         0         0
         0         0         0         0         0         0         0         0
         0         0         0         0         0         0         0         0
         0         0         0         0         0         0         0         0
         0         0         0         0         0         0         0         0
         0         0         0         0         0         0         0         0
         0         0         0         0         0         0         0         0
         0         0         0         0         0         0         0         0
         0         0         0         0         0         0         0         0
         0         0         0         0         0         0         0         0
         0         0         0         0         0         0         0         0
         0         0         0         0         0         0         0         0
         0         0         0         0         0         0         0         0
         0         0         0         0         0         0         0         0
         0         0         0         0         0         0         0         0
         0         0         0         0         0         0         0         0
         0         0         0         0         0         0         0         0
         0         0         0         0         0         0         0         0
         0         0         0         0         0         0         0         0
         0         0         0         0         0         0         0         0
         0         0         0         0         0         0         0         0
         0         0         0         0         0         0         0         0
         0         0         0         0         0         0         0         0
         0         0         0         0         0         0         0         0
         0         0         0         0         0         0         0         0
         0         0         0         0         0         0         0         0
         0         0         0         0         0         0         0         0
         0         0         0         0         0         0         0         0
         0         0         0         0         0         0         0         0
         0         0         0         0         0         0         0         0
         0         0         0         0         0         0         0         0
         0         0         0         0         0         0         0         0
         0         0         0         0         0         0         0         0
         0         0         0         0         0         0         0         0
         0         0         0         0         0         0         0         0
         0         0         0         0         0         0         0         0
         0         0         0         0         0         0         0         0
         0         0         0         0         0         0         0         0
         0         0         0         0         0         0         0         0
         0         0         0         0         0         0         0         0
         0         0         0         0         0         0         0         0
         0         0         0         0         0         0         0         0
         0         0         0         0         0         0         0         0
         0         0         0         0         0         0         0         0
         0         0         0         0         0         0         0         0
         0         0         0         0         0         0         0         0
         0         0         0         0         0         0         0         0
         0         0         0         0         0         0         0         0
         0         0         0         0         0         0         0         0
         0         0         0         0         0         0         0         0
         0         0         0         0         0         0         0         0
         0         0         0         0         0         0         0         0
         0         0         0         0         0         0         0         0
         0         0         0         0         0         0         0         0
         0         0         0         0         0         0         0         0
         0         0         0         0         0         0         0         0
         0         0         0         0         0         0         0         0
         0         0         0         0         0         0         0         0
         0         0         0         0         0         0         0         0
         0         0         0         0         0         0         0         0
         0         0         0         0         0         0         0         0
         0         0         0         0         0         0         0         0
         0         0         0         0         0         0         0         0
         0         0         0         0         0         0         0         0
         0         0         0         0         0         0         0         0
         0         0         0         0         0         0         0         0
         0         0         0         0         0         0         0         0
         0         0         0         0         0         0         0         0
         0         0         0         0         0         0         0         0
         0         0         0         0         0         0         0         0
         0         0         0         0         0         0         0         0
         0         0         0         0         0         0         0         0
         0         0         0         0         0         0         0         0
         0         0         0         0         0         0         0         0
         0         0         0         0         0         0         0         0
         0         0         0         0         0         0         0         0
         0         0         0         0         0         0         0         0
         0         0         0         0         0         0         0         0
         0         0         0         0         0         0         0         0
         0         0         0         0         0         0         0         0
         0         0         0         0         0         0         0         0
         0         0         0         0         0         0         0         0
         0         0         0         0         0         0         0         0
         0         0         0         0         0         0         0         0
         0         0         0         0         0         0         0         0
         0         0         0         0         0         0         0         0
         0         0         0         0         0         0         0         0
         0         0         0         0         0         0         0         0
         0         0         0         0         0         0         0         0
         0         0         0         0         0         0         0         0
         0         0         0         0         0         0         0         0
         0         0         0         0         0         0         0         0
         0         0         0         0         0         0         0         0
         0         0         0         0         0         0         0         0
         0         0         0         0         0         0         0         0
         0         0         0         0         0         0         0         0
         0         0         0         0         0         0         0         0
         0         0         0         0         0         0         0         0
         0         0         0         0         0         0         0         0
         0         0         0         0         0         0         0         0
         0         0         0         0         0         0         0         0
         0         0         0         0         0         0         0         0
         0         0         0         0         0         0         0         0
         0         0         0         0         0         0         0         0
         0         0         0         0         0         0         0         0
         0         0         0         0         0         0         0         0
         0         0         0         0         0         0         0         0
         0         0         0         0         0         0         0         0
         0         0         0         0         0         0         0         0
         0         0         0         0         0         0         0         0
         0         0         0         0         0         0         0         0
         0         0         0         0         0         0         0         0
         0         0         0         0         0         0         0         0
         0         0         0         0         0         0         0         0
         0         0         0         0         0         0         0         0
         0         0         0         0         0         0         0         0
         0         0         0         0         0         0         0         0
         0         0         0         0         0         0         0         0
         0         0         0         0         0         0         0         0
         0         0         0         0         0         0         0         0
         0         0         0         0         0         0         0         0
         0         0         0         0         0         0         0         0
         0         0         0         0         0         0         0         0
         0         0         0         0         0         0         0         0
         0         0         0         0         0         0         0         0
         0         0         0         0         0         0         0         0
         0         0         0         0         0         0         0         0
         0         0         0         0         0         0         0         0
         0         0         0         0         0         0         0         0
         0         0         0         0         0         0         0         0
         0         0         0         0         0         0         0         0
         0         0         0         0         0         0         0         0
         0         0         0         0         0         0         0         0
         0         0         0         0         0         0         0         0
         0         0         0         0         0         0         0         0
         0         0         0         0         0         0         0         0
         0         0         0         0         0         0         0         0
         0         0         0         0         0         0         0         0
         0         0         0         0         0         0         0         0
         0         0         0         0         0         0         0         0
         0         0         0         0         0         0         0         0
         0         0         0         0         0         0         0         0
         0         0         0         0         0         0         0         0
         0         0         0         0         0         0         0         0
         0         0         0         0         0         0         0         0
         0         0         0         0         0         0         0         0
         0         0         0         0         0         0         0         0
         0         0         0         0         0         0         0         0
         0         0         0         0         0         0         0         0
         0         0         0         0         0         0         0         0
         0         0         0         0         0         0         0         0
         0         0         0         0         0         0         0         0
         0         0         0         0         0         0         0         0
         0         0         0         0         0         0         0         0
         0         0         0         0         0         0         0         0
         0         0         0         0         0         0         0         0
         0         0         0         0         0         0         0         0
         0         0         0         0         0         0         0         0
         0         0         0         0         0         0         0         0
         0         0         0         0         0         0         0         0
         0         0         0         0         0         0         0         0
         0         0         0         0         0         0         0         0
         0         0         0         0         0         0         0         0
         0         0         0         0         0         0         0         0
         0         0         0         0         0         0         0         0
         0         0         0         0         0         0         0         0
         0         0         0         0         0         0         0         0
         0         0         0         0         0         0         0         0
         0         0         0         0         0         0         0         0
         0         0         0         0         0         0         0         0
         0         0         0         0         0         0         0         0
         0         0         0         0         0         0         0         0
         0         0         0         0         0         0         0         0
         0         0         0         0         0         0         0         0
         0         0         0         0         0         0         0         0
         0         0         0         0         0         0         0         0
         0         0         0         0         0         0         0         0
         0         0         0         0         0         0         0         0
         0         0         0         0         0         0         0         0
         0         0         0         0         0         0         0         0
         0         0         0         0         0         0         0         0
         0         0         0         0         0         0         0         0
         0         0         0         0         0         0         0         0
         0         0         0         0         0         0         0         0
         0         0         0         0         0         0         0         0
         0         0         0         0         0         0         0         0
         0         0         0         0         0         0         0         0
         0         0         0         0         0         0         0         0
         0         0         0         0         0         0         0         0
         0         0         0         0         0         0         0         0
         0         0         0         0         0         0         0         0
         0         0         0         0         0         0         0         0
         0         0         0         0         0         0         0         0
         0         0         0         0         0         0         0         0
         0         0         0         0         0         0         0         0
         0         0         0         0         0         0         0         0
         0         0         0         0         0         0         0         0
         0         0         0         0         0         0         0         0
         0         0         0         0         0         0         0         0
         0         0         0         0         0         0         0         0
         0         0         0         0         0         0         0         0
         0         0         0         0         0         0         0         0
         0         0         0         0         0         0         0         0
         0         0         0         0         0         0         0         0
         0         0         0         0         0         0         0         0
         0         0         0         0         0         0         0         0
         0         0         0         0         0         0         0         0
         0         0         0         0         0         0         0         0
         0         0         0         0         0         0         0         0
         0         0         0         0         0         0         0         0
         0         0         0         0         0         0         0         0
         0         0         0         0         0         0         0         0
         0         0         0         0         0         0         0         0
         0         0         0         0         0         0         0         0
         0         0         0         0         0         0         0         0
         0         0         0         0         0         0         0         0
         0         0         0         0         0         0         0         0
         0         0         0         0         0         0         0         0
         0         0         0         0         0         0         0         0
         0         0         0         0         0         0         0         0
         0         0         0         0         0         0         0         0
         0         0         0         0         0         0         0         0
         0         0         0         0         0         0         0         0
         0         0         0         0         0         0         0         0
         0         0         0         0         0         0         0         0
         0         0         0         0         0         0         0         0
         0         0         0         0         0         0         0         0
         0         0         0         0         0         0         0         0
         0         0         0         0         0         0         0         0
         0         0         0         0         0         0         0         0
         0         0         0         0         0         0         0         0
         0         0         0         0         0         0         0         0
         0         0         0         0         0         0         0         0
         0         0         0         0         0         0         0         0
         0         0         0         0         0         0         0         0
         0         0         0         0         0         0         0         0
         0         0         0         0         0         0         0         0
         0         0         0         0         0         0         0         0
         0         0         0         0         0         0         0         0
         0         0         0         0         0         0         0         0
         0         0         0         0         0         0         0         0
         0         0         0         0         0         0         0         0
         0         0         0         0         0         0         0         0
         0         0         0         0         0         0         0         0
         0         0         0         0         0         0         0         0
         0         0         0         0         0         0         0         0
         0         0         0         0         0         0         0         0
         0         0         0         0         0         0         0         0
         0         0         0         0         0         0         0         0
         0         0         0         0         0         0         0         0
         0         0         0         0         0         0         0         0
         0         0         0         0         0         0         0         0
         0         0         0         0         0         0         0         0
         0         0         0         0         0         0         0         0
         0         0         0         0         0         0         0         0
         0         0         0         0         0         0         0         0
         0         0         0         0         0         0         0         0
         0         0         0         0         0         0         0         0
         0         0         0         0         0         0         0         0
         0         0         0         0         0         0         0         0
         0         0         0         0         0         0         0         0
         0         0         0         0         0         0         0         0
         0         0         0         0         0         0         0         0
         0         0         0         0         0         0         0         0
         0         0         0         0         0         0         0         0
         0         0         0         0         0         0         0         0
         0         0         0         0         0         0         0         0
         0         0         0         0         0         0         0         0
         0         0         0         0         0         0         0         0
         0         0         0         0         0         0         0         0
         0         0         0         0         0         0         0         0
         0         0         0         0         0         0         0         0
         0         0         0         0         0         0         0         0
         0         0         0         0         0         0         0         0
         0         0         0         0         0         0         0         0
         0         0         0         0         0         0         0         0
         0         0         0         0         0         0         0         0
         0         0         0         0         0         0         0         0
         0         0         0         0         0         0         0         0
         0         0         0         0         0         0         0         0
         0         0         0         0         0         0         0         0
         0         0         0         0         0         0         0         0
         0         0         0         0         0         0         0         0
         0         0         0         0         0         0         0         0
         0         0         0         0         0         0         0         0
         0         0         0         0         0         0         0         0
         0         0         0         0         0         0         0         0
         0         0         0         0         0         0         0         0
         0         0         0         0         0         0         0         0
         0         0         0         0         0         0         0         0
         0         0         0         0         0         0         0         0
         0         0         0         0         0         0         0         0
         0         0         0         0         0         0         0         0
         0         0         0         0         0         0         0         0
         0         0         0         0         0         0         0         0
         0         0         0         0         0         0         0         0
         0         0         0         0         0         0         0         0
         0         0         0         0         0         0         0         0
         0         0         0         0         0         0         0         0
         0         0         0         0         0         0         0         0
         0         0         0         0         0         0         0         0
         0         0         0         0         0         0         0         0
         0         0         0         0         0         0         0         0
         0         0         0         0         0         0         0         0
         0         0         0         0         0         0         0         0
         0         0         0         0         0         0         0         0
         0         0         0         0         0         0         0         0
         0         0         0         0         0         0         0         0
         0         0         0         0         0         0         0         0
         0         0         0         0         0         0         0         0
         0         0         0         0         0         0         0         0
         0         0         0         0         0         0         0         0
         0         0         0         0         0         0         0         0
         0         0         0         0         0         0         0         0
         0         0         0         0         0         0         0         0
         0         0         0         0         0         0         0         0
         0         0         0         0         0         0         0         0
         0         0         0         0         0         0         0         0
         0         0         0         0         0         0         0         0
         0         0         0         0         0         0         0         0
         0         0         0         0         0         0         0         0
         0         0         0         0         0         0         0         0
         0         0         0         0         0         0         0         0
         0         0         0         0         0         0         0         0
         0         0         0         0         0         0         0         0
         0         0         0         0         0         0         0         0
         0         0         0         0         0         0         0         0
         0         0         0         0         0         0         0         0
         0         0         0         0         0         0         0         0
         0         0         0         0         0         0         0         0
         0         0         0         0         0         0         0         0
         0         0         0         0         0         0         0         0
         0         0         0         0         0         0         0         0
         0         0         0         0         0         0         0         0
         0         0         0         0         0         0         0         0
         0         0         0         0         0         0         0         0
         0         0         0         0         0         0         0         0
         0         0         0         0         0         0         0         0
         0         0         0         0         0         0         0         0
         0         0         0         0         0         0         0         0
         0         0         0         0         0         0         0         0
         0         0         0         0         0         0         0         0
         0         0         0         0         0         0         0         0
         0         0         0         0         0         0         0         0
         0         0         0         0         0         0         0         0
         0         0         0         0         0         0         0         0
         0         0         0         0         0         0         0         0
         0         0         0         0         0         0         0         0
         0         0         0         0         0         0         0         0
         0         0         0         0         0         0         0         0
         0         0         0         0         0         0         0         0
         0         0         0         0         0         0         0         0
         0         0         0         0         0         0         0         0
         0         0         0         0         0         0         0         0
         0         0         0         0         0         0         0         0
         0         0         0         0         0         0         0         0
         0         0         0         0         0         0         0         0
         0         0         0         0         0         0         0         0
         0         0         0         0         0         0         0         0
         0         0         0         0         0         0         0         0
         0         0         0         0         0         0         0         0
         0         0         0         0         0         0         0         0
         0         0         0         0         0         0         0         0
         0         0         0         0         0         0         0         0
         0         0         0         0         0         0         0         0
         0         0         0         0         0         0         0         0
         0         0         0         0         0         0         0         0
         0         0         0         0         0         0         0         0
         0         0         0         0         0         0         0         0
         0         0         0         0         0         0         0         0
         0         0         0         0         0         0         0         0
         0         0         0         0         0         0         0         0
         0         0         0         0         0         0         0         0
         0         0         0         0         0         0         0         0
         0         0         0         0         0         0         0         0
         0         0         0         0         0         0         0         0
         0         0         0         0         0         0         0         0
         0         0         0         0         0         0         0         0
         0         0         0         0         0         0         0         0
         0         0         0         0         0         0         0         0
         0         0         0         0         0         0         0         0
         0         0         0         0         0         0         0         0
         0         0         0         0         0         0         0         0
         0         0         0         0         0         0         0         0
         0         0         0         0         0         0         0         0
         0         0         0         0         0         0         0         0
         0         0         0         0         0         0         0         0
         0         0         0         0         0         0         0         0
         0         0         0         0         0         0         0         0
         0         0         0         0         0         0         0         0
         0         0         0         0         0         0         0         0
         0         0         0         0         0         0         0         0
         0         0         0         0         0         0         0         0
         0         0         0         0         0         0         0         0
         0         0         0         0         0         0         0         0
         0         0         0         0         0         0         0         0
         0         0         0         0         0         0         0         0
         0         0         0         0         0         0         0         0
         0         0         0         0         0         0         0         0
         0         0         0         0         0         0         0         0
         0         0         0         0         0         0         0         0
         0         0         0         0         0         0         0         0
         0         0         0         0         0         0         0         0
         0         0         0         0         0         0         0         0
         0         0         0         0         0         0         0         0
         0         0         0         0         0         0         0         0
         0         0         0         0         0         0         0         0
         0         0         0         0         0         0         0         0
         0         0         0         0         0         0         0         0
         0         0         0         0         0         0         0         0
         0         0         0         0         0         0         0         0
         0         0         0         0         0         0         0         0
         0         0         0         0         0         0         0         0
         0         0         0         0         0         0         0         0
         0         0         0         0         0         0         0         0
         0         0         0         0         0         0         0         0
         0         0         0         0         0         0         0         0
         0         0         0         0         0         0         0         0
         0         0         0         0         0         0         0         0
         0         0         0         0         0         0         0         0
         0         0         0         0         0         0         0         0
         0         0         0         0         0         0         0         0
         0         0         0         0         0         0         0         0
         0         0         0         0         0         0         0         0
         0         0         0         0         0         0         0         0
         0         0         0         0         0         0         0         0
         0         0         0         0         0         0         0         0
         0         0         0         0         0         0         0         0
         0         0         0         0         0         0         0         0
         0         0         0         0         0         0         0         0
         0         0         0         0         0         0         0         0
         0         0         0         0         0         0         0         0
         0         0         0         0         0         0         0         0
         0         0         0         0         0         0         0         0
         0         0         0         0         0         0         0         0
         0         0         0         0         0         0         0         0
         0         0         0         0         0         0         0         0
         0         0         0         0         0         0         0         0
         0         0         0         0         0         0         0         0
         0         0         0         0         0         0         0         0
         0         0         0         0         0         0         0         0
         0         0         0         0         0         0         0         0
         0         0         0         0         0         0         0         0
         0         0         0         0         0         0         0         0
         0         0         0         0         0         0         0         0
         0         0         0         0         0         0         0         0
         0         0         0         0         0         0         0         0
         0         0         0         0         0         0         0         0
         0         0         0         0         0         0         0         0
         0         0         0         0         0         0         0         0
         0         0         0         0         0         0         0         0
         0         0         0         0         0         0         0         0
         0         0         0         0         0         0         0         0
         0         0         0         0         0         0         0         0
         0         0         0         0         0         0         0         0
         0         0         0         0         0         0         0         0
         0         0         0         0         0         0         0         0
         0         0         0         0         0         0         0         0
         0         0         0         0         0         0         0         0
         0         0         0         0         0         0         0         0
         0         0         0         0         0         0         0         0
         0         0         0         0         0         0         0         0
         0         0         0         0         0         0         0         0
         0         0         0         0         0         0         0         0
         0         0         0         0         0         0         0         0
         0         0         0         0         0         0         0         0
         0         0         0         0         0         0         0         0
         0         0         0         0         0         0         0         0
         0         0         0         0         0         0         0         0
         0         0         0         0         0         0         0         0
         0         0         0         0         0         0         0         0
         0         0         0         0         0         0         0         0
         0         0         0         0         0         0         0         0
         0         0         0         0         0         0         0         0
         0         0         0         0         0         0         0         0
         0         0         0         0         0         0         0         0
         0         0         0         0         0         0         0         0
         0         0         0         0         0         0         0         0
         0         0         0         0         0         0         0         0
         0         0         0         0         0         0         0         0
         0         0         0         0         0         0         0         0
         0         0         0         0         0         0         0         0
         0         0         0         0         0         0         0         0
         0         0         0         0         0         0         0         0
         0         0         0         0         0         0         0         0
         0         0         0         0         0         0         0         0
         0         0         0         0         0         0         0         0
         0         0         0         0         0         0         0         0
         0         0         0         0         0         0         0         0
         0         0         0         0         0         0         0         0
         0         0         0         0         0         0         0         0
         0         0         0         0         0         0         0         0
         0         0         0         0         0         0         0         0
         0         0         0         0         0         0         0         0
         0         0         0         0         0         0         0         0
         0         0         0         0         0         0         0         0
         0         0         0         0         0         0         0         0
         0         0         0         0         0         0         0         0
         0         0         0         0         0         0         0         0
         0         0         0         0         0         0         0         0
         0         0         0         0         0         0         0         0
         0         0         0         0         0         0         0         0
         0         0         0         0         0         0         0         0
         0         0         0         0         0         0         0         0
         0         0         0         0         0         0         0         0
         0         0         0         0         0         0         0         0
         0         0         0         0         0         0         0         0
         0         0         0         0         0         0         0         0
         0         0         0         0         0         0         0         0
         0         0         0         0         0         0         0         0
         0         0         0         0         0         0         0         0
         0         0         0         0         0         0         0         0
         0         0         0         0         0         0         0         0
         0         0         0         0         0         0         0         0
         0         0         0         0         0         0         0         0
         0         0         0         0         0         0         0         0
         0         0         0         0         0         0         0         0
         0         0         0         0         0         0         0         0
         0         0         0         0         0         0         0         0
         0         0         0         0         0         0         0         0
         0         0         0         0         0         0         0         0
         0         0         0         0         0         0         0         0
         0         0         0         0         0         0         0         0
         0         0         0         0         0         0         0         0
         0         0         0         0         0         0         0         0
         0         0         0         0         0         0         0         0
         0         0         0         0         0         0         0         0
         0         0         0         0         0         0         0         0
         0         0         0         0         0         0         0         0
         0         0         0         0         0         0         0         0
         0         0         0         0         0         0         0         0
         0         0         0         0         0         0         0         0
         0         0         0         0         0         0         0         0
         0         0         0         0         0         0         0         0
         0         0         0         0         0         0         0         0
         0         0         0         0         0         0         0         0
         0         0         0         0         0         0         0         0
         0         0         0         0         0         0         0         0
         0         0         0         0         0         0         0         0
         0         0         0         0         0         0         0         0
         0         0         0         0         0         0         0         0
         0         0         0         0         0         0         0         0
         0         0         0         0         0         0         0         0
         0         0         0         0         0         0         0         0
         0         0         0         0         0         0         0         0
         0         0         0         0         0         0         0         0
         0         0         0         0         0         0         0         0
         0         0         0         0         0         0         0         0
         0         0         0         0         0         0         0         0
         0         0         0         0         0         0         0         0
         0         0         0         0         0         0         0         0
         0         0         0         0         0         0         0         0
         0         0         0         0         0         0         0         0
         0         0         0         0         0         0         0         0
         0         0         0         0         0         0         0         0
         0         0         0         0         0         0         0         0
         0         0         0         0         0         0         0         0
         0         0         0         0         0         0         0         0
         0         0         0         0         0         0         0         0
         0         0         0         0         0         0         0         0
         0         0         0         0         0         0         0         0
         0         0         0         0         0         0         0         0
         0         0         0         0         0         0         0         0
         0         0         0         0         0         0         0         0
         0         0         0         0         0         0         0         0
         0         0         0         0         0         0         0         0
         0         0         0         0         0         0         0         0
         0         0         0         0         0         0         0         0
         0         0         0         0         0         0         0         0
         0         0         0         0         0         0         0         0
         0         0         0         0         0         0         0         0
         0         0         0         0         0         0         0         0
         0         0         0         0         0         0         0         0
         0         0         0         0         0         0         0         0
         0         0         0         0         0         0         0         0
         0         0         0         0         0         0         0         0
         0         0         0         0         0         0         0         0
         0         0         0         0         0         0         0         0
         0         0         0         0         0         0         0         0
         0         0         0         0         0         0         0         0
         0         0         0         0         0         0         0         0
         0         0         0         0         0         0         0         0

      9936         0 !NGRP NST2
         0         2         0         9         2         0        27         1         0
        44         1         0        62         1         0        66         1         0
        70         1         0        74         1         0        78         1         0
        82         1         0        86         1         0        89         1         0
        92         1         0        96         1         0       100         1         0
       104         1         0       108         1         0       112         1         0
       116         1         0       120         1         0       125         1         0
       129         1         0       133         1         0       137         1         0
       141         1         0       145         1         0       149         1         0
       153         1         0       157         1         0       161         1         0
       165         1         0       169         1         0       173         1         0
       177         1         0       182         2         0       191         2         0
       209         1         0       226         1         0       244         1         0
       248         1         0       252         1         0       256         1         0
       260         1         0       264         1         0       268         1         0
       271         1         0       274         1         0       278         1         0
       282         1         0       286         1         0       290         1         0
       294         1         0       298         1         0       302         1         0
       307         1         0       311         1         0       315         1         0
       319         1         0       323         1         0       327         1         0
       331         1         0       335         1         0       339         1         0
       343         1         0       347         1         0       351         1         0
       355         1         0       359         1         0       364         2         0
       373         2         0       391         1         0       408         1         0
       426         1         0       430         1         0       434         1         0
       438         1         0       442         1         0       446         1         0
       450         1         0       453         1         0       456         1         0
       460         1         0       464         1         0       468         1         0
       472         1         0       476         1         0       480         1         0
       484         1         0       489         1         0       493         1         0
       497         1         0       501         1         0       505         1         0
       509         1         0       513         1         0       517         1         0
       521         1         0       525         1         0       529         1         0
       533         1         0       537         1         0       541         1         0
       546         2         0       555         2         0       573         1         0
       590         1         0       608         1         0       612         1         0
       616         1         0       620         1         0       624         1         0
       628         1         0       632         1         0       635         1         0
       638         1         0       642         1         0       646         1         0
       650         1         0       654         1         0       658         1         0
       662         1         0       666         1         0       671         1         0
       675         1         0       679         1         0       683         1         0
       687         1         0       691         1         0       695         1         0
       699         1         0       703         1         0       707         1         0
       711         1         0       715         1         0       719         1         0
       723         1         0       728         2         0       737         2         0
       755         1         0       772         1         0       790         1         0
       794         1         0       798         1         0       802         1         0
       806         1         0       810         1         0       814         1         0
       817         1         0       820         1         0       824         1         0
       828         1         0       832         1         0       836         1         0
       840         1         0       844         1         0       848         1         0
       853         1         0       857         1         0       861         1         0
       865         1         0       869         1         0       873         1         0
       877         1         0       881         1         0       885         1         0
       889         1         0       893         1         0       897         1         0
       901         1         0       905         1         0       910         2         0
       919         2         0       937         1         0       954         1         0
       972         1         0       976         1         0       980         1         0
       984         1         0       988         1         0       992         1         0
       996         1         0       999         1         0      1002         1         0
      1006         1         0      1010         1         0      1014         1         0
      1018         1         0      1022         1         0      1026         1         0
      1030         1         0      1035         1         0      1039         1         0
      1043         1         0      1047         1         0      1051         1         0
      1055         1         0      1059         1         0      1063         1         0
      1067         1         0      1071         1         0      1075         1         0
      1079         1         0      1083         1         0      1087         1         0
      1092         2         0      1101         2         0      1119         1         0
      1136         1         0      1154         1         0      1158         1         0
      1162         1         0      1166         1         0      1170         1         0
      1174         1         0      1178         1         0      1181         1         0
      1184         1         0      1188         1         0      1192         1         0
      1196         1         0      1200         1         0      1204         1         0
      1208         1         0      1212         1         0      1217         1         0
      1221         1         0      1225         1         0      1229         1         0
      1233         1         0      1237         1         0      1241         1         0
      1245         1         0      1249         1         0      1253         1         0
      1257         1         0      1261         1         0      1265         1         0
      1269         1         0      1274         2         0      1283         2         0
      1301         1         0      1318         1         0      1336         1         0
      1340         1         0      1344         1         0      1348         1         0
      1352         1         0      1356         1         0      1360         1         0
      1363         1         0      1366         1         0      1370         1         0
      1374         1         0      1378         1         0      1382         1         0
      1386         1         0      1390         1         0      1394         1         0
      1399         1         0      1403         1         0      1407         1         0
      1411         1         0      1415         1         0      1419         1         0
      1423         1         0      1427         1         0      1431         1         0
      1435         1         0      1439         1         0      1443         1         0
      1447         1         0      1451         1         0      1456         2         0
      1465         2         0      1483         1         0      1500         1         0
      1518         1         0      1522         1         0      1526         1         0
      1530         1         0      1534         1         0      1538         1         0
      1542         1         0      1545         1         0      1548         1         0
      1552         1         0      1556         1         0      1560         1         0
      1564         1         0      1568         1         0      1572         1         0
      1576         1         0      1581         1         0      1585         1         0
      1589         1         0      1593         1         0      1597         1         0
      1601         1         0      1605         1         0      1609         1         0
      1613         1         0      1617         1         0      1621         1         0
      1625         1         0      1629         1         0      1633         1         0
      1638         2         0      1647         2         0      1665         1         0
      1682         1         0      1700         1         0      1704         1         0
      1708         1         0      1712         1         0      1716         1         0
      1720         1         0      1724         1         0      1727         1         0
      1730         1         0      1734         1         0      1738         1         0
      1742         1         0      1746         1         0      1750         1         0
      1754         1         0      1758         1         0      1763         1         0
      1767         1         0      1771         1         0      1775         1         0
      1779         1         0      1783         1         0      1787         1         0
      1791         1         0      1795         1         0      1799         1         0
      1803         1         0      1807         1         0      1811         1         0
      1815         1         0      1820         2         0      1829         2         0
      1847         1         0      1864         1         0      1882         1         0
      1886         1         0      1890         1         0      1894         1         0
      1898         1         0      1902         1         0      1906         1         0
      1909         1         0      1912         1         0      1916         1         0
      1920         1         0      1924         1         0      1928         1         0
      1932         1         0      1936         1         0      1940         1         0
      1945         1         0      1949         1         0      1953         1         0
      1957         1         0      1961         1         0      1965         1         0
      1969         1         0      1973         1         0      1977         1         0
      1981         1         0      1985         1         0      1989         1         0
      1993         1         0      1997         1         0      2002         2         0
      2011         2         0      2029         1         0      2046         1         0
      2064         1         0      2068         1         0      2072         1         0
      2076         1         0      2080         1         0      2084         1         0
      2088         1         0      2091         1         0      2094         1         0
      2098         1         0      2102         1         0      2106         1         0
      2110         1         0      2114         1         0      2118         1         0
      2122         1         0      2127         1         0      2131         1         0
      2135         1         0      2139         1         0      2143         1         0
      2147         1         0      2151         1         0      2155         1         0
      2159         1         0      2163         1         0      2167         1         0
      2171         1         0      2175         1         0      2179         1         0
      2184         2         0      2193         2         0      2211         1         0
      2228         1         0      2246         1         0      2250         1         0
      2254         1         0      2258         1         0      2262         1         0
      2266         1         0      2270         1         0      2273         1         0
      2276         1         0      2280         1         0      2284         1         0
      2288         1         0      2292         1         0      2296         1         0
      2300         1         0      2304         1         0      2309         1         0
      2313         1         0      2317         1         0      2321         1         0
      2325         1         0      2329         1         0      2333         1         0
      2337         1         0      2341         1         0      2345         1         0
      2349         1         0      2353         1         0      2357         1         0
      2361         1         0      2366         2         0      2375         2         0
      2393         1         0      2410         1         0      2428         1         0
      2432         1         0      2436         1         0      2440         1         0
      2444         1         0      2448         1         0      2452         1         0
      2455         1         0      2458         1         0      2462         1         0
      2466         1         0      2470         1         0      2474         1         0
      2478         1         0      2482         1         0      2486         1         0
      2491         1         0      2495         1         0      2499         1         0
      2503         1         0      2507         1         0      2511         1         0
      2515         1         0      2519         1         0      2523         1         0
      2527         1         0      2531         1         0      2535         1         0
      2539         1         0      2543         1         0      2548         2         0
      2557         2         0      2575         1         0      2592         1         0
      2610         1         0      2614         1         0      2618         1         0
      2622         1         0      2626         1         0      2630         1         0
      2634         1         0      2637         1         0      2640         1         0
      2644         1         0      2648         1         0      2652         1         0
      2656         1         0      2660         1         0      2664         1         0
      2668         1         0      2673         1         0      2677         1         0
      2681         1         0      2685         1         0      2689         1         0
      2693         1         0      2697         1         0      2701         1         0
      2705         1         0      2709         1         0      2713         1         0
      2717         1         0      2721         1         0      2725         1         0
      2730         2         0      2739         2         0      2757         1         0
      2774         1         0      2792         1         0      2796         1         0
      2800         1         0      2804         1         0      2808         1         0
      2812         1         0      2816         1         0      2819         1         0
      2822         1         0      2826         1         0      2830         1         0
      2834         1         0      2838         1         0      2842         1         0
      2846         1         0      2850         1         0      2855         1         0
      2859         1         0      2863         1         0      2867         1         0
      2871         1         0      2875         1         0      2879         1         0
      2883         1         0      2887         1         0      2891         1         0
      2895         1         0      2899         1         0      2903         1         0
      2907         1         0      2912         2         0      2921         2         0
      2939         1         0      2956         1         0      2974         1         0
      2978         1         0      2982         1         0      2986         1         0
      2990         1         0      2994         1         0      2998         1         0
      3001         1         0      3004         1         0      3008         1         0
      3012         1         0      3016         1         0      3020         1         0
      3024         1         0      3028         1         0      3032         1         0
      3037         1         0      3041         1         0      3045         1         0
      3049         1         0      3053         1         0      3057         1         0
      3061         1         0      3065         1         0      3069         1         0
      3073         1         0      3077         1         0      3081         1         0
      3085         1         0      3089         1         0      3094         2         0
      3103         2         0      3121         1         0      3138         1         0
      3156         1         0      3160         1         0      3164         1         0
      3168         1         0      3172         1         0      3176         1         0
      3180         1         0      3183         1         0      3186         1         0
      3190         1         0      3194         1         0      3198         1         0
      3202         1         0      3206         1         0      3210         1         0
      3214         1         0      3219         1         0      3223         1         0
      3227         1         0      3231         1         0      3235         1         0
      3239         1         0      3243         1         0      3247         1         0
      3251         1         0      3255         1         0      3259         1         0
      3263         1         0      3267         1         0      3271         1         0
      3276         2         0      3285         2         0      3303         1         0
      3320         1         0      3338         1         0      3342         1         0
      3346         1         0      3350         1         0      3354         1         0
      3358         1         0      3362         1         0      3365         1         0
      3368         1         0      3372         1         0      3376         1         0
      3380         1         0      3384         1         0      3388         1         0
      3392         1         0      3396         1         0      3401         1         0
      3405         1         0      3409         1         0      3413         1         0
      3417         1         0      3421         1         0      3425         1         0
      3429         1         0      3433         1         0      3437         1         0
      3441         1         0      3445         1         0      3449         1         0
      3453         1         0      3458         2         0      3467         2         0
      3485         1         0      3502         1         0      3520         1         0
      3524         1         0      3528         1         0      3532         1         0
      3536         1         0      3540         1         0      3544         1         0
      3547         1         0      3550         1         0      3554         1         0
      3558         1         0      3562         1         0      3566         1         0
      3570         1         0      3574         1         0      3578         1         0
      3583         1         0      3587         1         0      3591         1         0
      3595         1         0      3599         1         0      3603         1         0
      3607         1         0      3611         1         0      3615         1         0
      3619         1         0      3623         1         0      3627         1         0
      3631         1         0      3635         1         0      3640         2         0
      3649         2         0      3667         1         0      3684         1         0
      3702         1         0      3706         1         0      3710         1         0
      3714         1         0      3718         1         0      3722         1         0
      3726         1         0      3729         1         0      3732         1         0
      3736         1         0      3740         1         0      3744         1         0
      3748         1         0      3752         1         0      3756         1         0
      3760         1         0      3765         1         0      3769         1         0
      3773         1         0      3777         1         0      3781         1         0
      3785         1         0      3789         1         0      3793         1         0
      3797         1         0      3801         1         0      3805         1         0
      3809         1         0      3813         1         0      3817         1         0
      3822         2         0      3831         2         0      3849         1         0
      3866         1         0      3884         1         0      3888         1         0
      3892         1         0      3896         1         0      3900         1         0
      3904         1         0      3908         1         0      3911         1         0
      3914         1         0      3918         1         0      3922         1         0
      3926         1         0      3930         1         0      3934         1         0
      3938         1         0      3942         1         0      3947         1         0
      3951         1         0      3955         1         0      3959         1         0
      3963         1         0      3967         1         0      3971         1         0
      3975         1         0      3979         1         0      3983         1         0
      3987         1         0      3991         1         0      3995         1         0
      3999         1         0      4004         2         0      4013         2         0
      4031         1         0      4048         1         0      4066         1         0
      4070         1         0      4074         1         0      4078         1         0
      4082         1         0      4086         1         0      4090         1         0
      4093         1         0      4096         1         0      4100         1         0
      4104         1         0      4108         1         0      4112         1         0
      4116         1         0      4120         1         0      4124         1         0
      4129         1         0      4133         1         0      4137         1         0
      4141         1         0      4145         1         0      4149         1         0
      4153         1         0      4157         1         0      4161         1         0
      4165         1         0      4169         1         0      4173         1         0
      4177         1         0      4181         1         0      4186         2         0
      4195         2         0      4213         1         0      4230         1         0
      4248         1         0      4252         1         0      4256         1         0
      4260         1         0      4264         1         0      4268         1         0
      4272         1         0      4275         1         0      4278         1         0
      4282         1         0      4286         1         0      4290         1         0
      4294         1         0      4298         1         0      4302         1         0
      4306         1         0      4311         1         0      4315         1         0
      4319         1         0      4323         1         0      4327         1         0
      4331         1         0      4335         1         0      4339         1         0
      4343         1         0      4347         1         0      4351         1         0
      4355         1         0      4359         1         0      4363         1         0
      4368         2         0      4377         2         0      4395         1         0
      4412         1         0      4430         1         0      4434         1         0
      4438         1         0      4442         1         0      4446         1         0
      4450         1         0      4454         1         0      4457         1         0
      4460         1         0      4464         1         0      4468         1         0
      4472         1         0      4476         1         0      4480         1         0
      4484         1         0      4488         1         0      4493         1         0
      4497         1         0      4501         1         0      4505         1         0
      4509         1         0      4513         1         0      4517         1         0
      4521         1         0      4525         1         0      4529         1         0
      4533         1         0      4537         1         0      4541         1         0
      4545         1         0      4550         2         0      4559         2         0
      4577         1         0      4594         1         0      4612         1         0
      4616         1         0      4620         1         0      4624         1         0
      4628         1         0      4632         1         0      4636         1         0
      4639         1         0      4642         1         0      4646         1         0
      4650         1         0      4654         1         0      4658         1         0
      4662         1         0      4666         1         0      4670         1         0
      4675         1         0      4679         1         0      4683         1         0
      4687         1         0      4691         1         0      4695         1         0
      4699         1         0      4703         1         0      4707         1         0
      4711         1         0      4715         1         0      4719         1         0
      4723         1         0      4727         1         0      4732         2         0
      4741         2         0      4759         1         0      4776         1         0
      4794         1         0      4798         1         0      4802         1         0
      4806         1         0      4810         1         0      4814         1         0
      4818         1         0      4821         1         0      4824         1         0
      4828         1         0      4832         1         0      4836         1         0
      4840         1         0      4844         1         0      4848         1         0
      4852         1         0      4857         1         0      4861         1         0
      4865         1         0      4869         1         0      4873         1         0
      4877         1         0      4881         1         0      4885         1         0
      4889         1         0      4893         1         0      4897         1         0
      4901         1         0      4905         1         0      4909         1         0
      4914         2         0      4923         2         0      4941         1         0
      4958         1         0      4976         1         0      4980         1         0
      4984         1         0      4988         1         0      4992         1         0
      4996         1         0      5000         1         0      5003         1         0
      5006         1         0      5010         1         0      5014         1         0
      5018         1         0      5022         1         0      5026         1         0
      5030         1         0      5034         1         0      5039         1         0
      5043         1         0      5047         1         0      5051         1         0
      5055         1         0      5059         1         0      5063         1         0
      5067         1         0      5071         1         0      5075         1         0
      5079         1         0      5083         1         0      5087         1         0
      5091         1         0      5096         2         0      5105         2         0
      5123         1         0      5140         1         0      5158         1         0
      5162         1         0      5166         1         0      5170         1         0
      5174         1         0      5178         1         0      5182         1         0
      5185         1         0      5188         1         0      5192         1         0
      5196         1         0      5200         1         0      5204         1         0
      5208         1         0      5212         1         0      5216         1         0
      5221         1         0      5225         1         0      5229         1         0
      5233         1         0      5237         1         0      5241         1         0
      5245         1         0      5249         1         0      5253         1         0
      5257         1         0      5261         1         0      5265         1         0
      5269         1         0      5273         1         0      5278         2         0
      5287         2         0      5305         1         0      5322         1         0
      5340         1         0      5344         1         0      5348         1         0
      5352         1         0      5356         1         0      5360         1         0
      5364         1         0      5367         1         0      5370         1         0
      5374         1         0      5378         1         0      5382         1         0
      5386         1         0      5390         1         0      5394         1         0
      5398         1         0      5403         1         0      5407         1         0
      5411         1         0      5415         1         0      5419         1         0
      5423         1         0      5427         1         0      5431         1         0
      5435         1         0      5439         1         0      5443         1         0
      5447         1         0      5451         1         0      5455         1         0
      5460         2         0      5469         2         0      5487         1         0
      5504         1         0      5522         1         0      5526         1         0
      5530         1         0      5534         1         0      5538         1         0
      5542         1         0      5546         1         0      5549         1         0
      5552         1         0      5556         1         0      5560         1         0
      5564         1         0      5568         1         0      5572         1         0
      5576         1         0      5580         1         0      5585         1         0
      5589         1         0      5593         1         0      5597         1         0
      5601         1         0      5605         1         0      5609         1         0
      5613         1         0      5617         1         0      5621         1         0
      5625         1         0      5629         1         0      5633         1         0
      5637         1         0      5642         2         0      5651         2         0
      5669         1         0      5686         1         0      5704         1         0
      5708         1         0      5712         1         0      5716         1         0
      5720         1         0      5724         1         0      5728         1         0
      5731         1         0      5734         1         0      5738         1         0
      5742         1         0      5746         1         0      5750         1         0
      5754         1         0      5758         1         0      5762         1         0
      5767         1         0      5771         1         0      5775         1         0
      5779         1         0      5783         1         0      5787         1         0
      5791         1         0      5795         1         0      5799         1         0
      5803         1         0      5807         1         0      5811         1         0
      5815         1         0      5819         1         0      5824         2         0
      5833         2         0      5851         1         0      5868         1         0
      5886         1         0      5890         1         0      5894         1         0
      5898         1         0      5902         1         0      5906         1         0
      5910         1         0      5913         1         0      5916         1         0
      5920         1         0      5924         1         0      5928         1         0
      5932         1         0      5936         1         0      5940         1         0
      5944         1         0      5949         1         0      5953         1         0
      5957         1         0      5961         1         0      5965         1         0
      5969         1         0      5973         1         0      5977         1         0
      5981         1         0      5985         1         0      5989         1         0
      5993         1         0      5997         1         0      6001         1         0
      6006         2         0      6015         2         0      6033         1         0
      6050         1         0      6068         1         0      6072         1         0
      6076         1         0      6080         1         0      6084         1         0
      6088         1         0      6092         1         0      6095         1         0
      6098         1         0      6102         1         0      6106         1         0
      6110         1         0      6114         1         0      6118         1         0
      6122         1         0      6126         1         0      6131         1         0
      6135         1         0      6139         1         0      6143         1         0
      6147         1         0      6151         1         0      6155         1         0
      6159         1         0      6163         1         0      6167         1         0
      6171         1         0      6175         1         0      6179         1         0
      6183         1         0      6188         2         0      6197         2         0
      6215         1         0      6232         1         0      6250         1         0
      6254         1         0      6258         1         0      6262         1         0
      6266         1         0      6270         1         0      6274         1         0
      6277         1         0      6280         1         0      6284         1         0
      6288         1         0      6292         1         0      6296         1         0
      6300         1         0      6304         1         0      6308         1         0
      6313         1         0      6317         1         0      6321         1         0
      6325         1         0      6329         1         0      6333         1         0
      6337         1         0      6341         1         0      6345         1         0
      6349         1         0      6353         1         0      6357         1         0
      6361         1         0      6365         1         0      6370         2         0
      6379         2         0      6397         1         0      6414         1         0
      6432         1         0      6436         1         0      6440         1         0
      6444         1         0      6448         1         0      6452         1         0
      6456         1         0      6459         1         0      6462         1         0
      6466         1         0      6470         1         0      6474         1         0
      6478         1         0      6482         1         0      6486         1         0
      6490         1         0      6495         1         0      6499         1         0
      6503         1         0      6507         1         0      6511         1         0
      6515         1         0      6519         1         0      6523         1         0
      6527         1         0      6531         1         0      6535         1         0
      6539         1         0      6543         1         0      6547         1         0
      6552         2         0      6561         2         0      6579         1         0
      6596         1         0      6614         1         0      6618         1         0
      6622         1         0      6626         1         0      6630         1         0
      6634         1         0      6638         1         0      6641         1         0
      6644         1         0      6648         1         0      6652         1         0
      6656         1         0      6660         1         0      6664         1         0
      6668         1         0      6672         1         0      6677         1         0
      6681         1         0      6685         1         0      6689         1         0
      6693         1         0      6697         1         0      6701         1         0
      6705         1         0      6709         1         0      6713         1         0
      6717         1         0      6721         1         0      6725         1         0
      6729         1         0      6734         2         0      6743         2         0
      6761         1         0      6778         1         0      6796         1         0
      6800         1         0      6804         1         0      6808         1         0
      6812         1         0      6816         1         0      6820         1         0
      6823         1         0      6826         1         0      6830         1         0
      6834         1         0      6838         1         0      6842         1         0
      6846         1         0      6850         1         0      6854         1         0
      6859         1         0      6863         1         0      6867         1         0
      6871         1         0      6875         1         0      6879         1         0
      6883         1         0      6887         1         0      6891         1         0
      6895         1         0      6899         1         0      6903         1         0
      6907         1         0      6911         1         0      6916         2         0
      6925         2         0      6943         1         0      6960         1         0
      6978         1         0      6982         1         0      6986         1         0
      6990         1         0      6994         1         0      6998         1         0
      7002         1         0      7005         1         0      7008         1         0
      7012         1         0      7016         1         0      7020         1         0
      7024         1         0      7028         1         0      7032         1         0
      7036         1         0      7041         1         0      7045         1         0
      7049         1         0      7053         1         0      7057         1         0
      7061         1         0      7065         1         0      7069         1         0
      7073         1         0      7077         1         0      7081         1         0
      7085         1         0      7089         1         0      7093         1         0
      7098         2         0      7107         2         0      7125         1         0
      7142         1         0      7160         1         0      7164         1         0
      7168         1         0      7172         1         0      7176         1         0
      7180         1         0      7184         1         0      7187         1         0
      7190         1         0      7194         1         0      7198         1         0
      7202         1         0      7206         1         0      7210         1         0
      7214         1         0      7218         1         0      7223         1         0
      7227         1         0      7231         1         0      7235         1         0
      7239         1         0      7243         1         0      7247         1         0
      7251         1         0      7255         1         0      7259         1         0
      7263         1         0      7267         1         0      7271         1         0
      7275         1         0      7280         2         0      7289         2         0
      7307         1         0      7324         1         0      7342         1         0
      7346         1         0      7350         1         0      7354         1         0
      7358         1         0      7362         1         0      7366         1         0
      7369         1         0      7372         1         0      7376         1         0
      7380         1         0      7384         1         0      7388         1         0
      7392         1         0      7396         1         0      7400         1         0
      7405         1         0      7409         1         0      7413         1         0
      7417         1         0      7421         1         0      7425         1         0
      7429         1         0      7433         1         0      7437         1         0
      7441         1         0      7445         1         0      7449         1         0
      7453         1         0      7457         1         0      7462         2         0
      7471         2         0      7489         1         0      7506         1         0
      7524         1         0      7528         1         0      7532         1         0
      7536         1         0      7540         1         0      7544         1         0
      7548         1         0      7551         1         0      7554         1         0
      7558         1         0      7562         1         0      7566         1         0
      7570         1         0      7574         1         0      7578         1         0
      7582         1         0      7587         1         0      7591         1         0
      7595         1         0      7599         1         0      7603         1         0
      7607         1         0      7611         1         0      7615         1         0
      7619         1         0      7623         1         0      7627         1         0
      7631         1         0      7635         1         0      7639         1         0
      7644         2         0      7653         2         0      7671         1         0
      7688         1         0      7706         1         0      7710         1         0
      7714         1         0      7718         1         0      7722         1         0
      7726         1         0      7730         1         0      7733         1         0
      7736         1         0      7740         1         0      7744         1         0
      7748         1         0      7752         1         0      7756         1         0
      7760         1         0      7764         1         0      7769         1         0
      7773         1         0      7777         1         0      7781         1         0
      7785         1         0      7789         1         0      7793         1         0
      7797         1         0      7801         1         0      7805         1         0
      7809         1         0      7813         1         0      7817         1         0
      7821         1         0      7826         2         0      7835         2         0
      7853         1         0      7870         1         0      7888         1         0
      7892         1         0      7896         1         0      7900         1         0
      7904         1         0      7908         1         0      7912         1         0
      7915         1         0      7918         1         0      7922         1         0
      7926         1         0      7930         1         0      7934         1         0
      7938         1         0      7942         1         0      7946         1         0
      7951         1         0      7955         1         0      7959         1         0
      7963         1         0      7967         1         0      7971         1         0
      7975         1         0      7979         1         0      7983         1         0
      7987         1         0      7991         1         0      7995         1         0
      7999         1         0      8003         1         0      8008         2         0
      8017         2         0      8035         1         0      8052         1         0
      8070         1         0      8074         1         0      8078         1         0
      8082         1         0      8086         1         0      8090         1         0
      8094         1         0      8097         1         0      8100         1         0
      8104         1         0      8108         1         0      8112         1         0
      8116         1         0      8120         1         0      8124         1         0
      8128         1         0      8133         1         0      8137         1         0
      8141         1         0      8145         1         0      8149         1         0
      8153         1         0      8157         1         0      8161         1         0
      8165         1         0      8169         1         0      8173         1         0
      8177         1         0      8181         1         0      8185         1         0
      8190         2         0      8199         2         0      8217         1         0
      8234         1         0      8252         1         0      8256         1         0
      8260         1         0      8264         1         0      8268         1         0
      8272         1         0      8276         1         0      8279         1         0
      8282         1         0      8286         1         0      8290         1         0
      8294         1         0      8298         1         0      8302         1         0
      8306         1         0      8310         1         0      8315         1         0
      8319         1         0      8323         1         0      8327         1         0
      8331         1         0      8335         1         0      8339         1         0
      8343         1         0      8347         1         0      8351         1         0
      8355         1         0      8359         1         0      8363         1         0
      8367         1         0      8372         2         0      8381         2         0
      8399         1         0      8416         1         0      8434         1         0
      8438         1         0      8442         1         0      8446         1         0
      8450         1         0      8454         1         0      8458         1         0
      8461         1         0      8464         1         0      8468         1         0
      8472         1         0      8476         1         0      8480         1         0
      8484         1         0      8488         1         0      8492         1         0
      8497         1         0      8501         1         0      8505         1         0
      8509         1         0      8513         1         0      8517         1         0
      8521         1         0      8525         1         0      8529         1         0
      8533         1         0      8537         1         0      8541         1         0
      8545         1         0      8549         1         0      8554         2         0
      8563         2         0      8581         1         0      8598         1         0
      8616         1         0      8620         1         0      8624         1         0
      8628         1         0      8632         1         0      8636         1         0
      8640         1         0      8643         1         0      8646         1         0
      8650         1         0      8654         1         0      8658         1         0
      8662         1         0      8666         1         0      8670         1         0
      8674         1         0      8679         1         0      8683         1         0
      8687         1         0      8691         1         0      8695         1         0
      8699         1         0      8703         1         0      8707         1         0
      8711         1         0      8715         1         0      8719         1         0
      8723         1         0      8727         1         0      8731         1         0
      8736         2         0      8745         2         0      8763         1         0
      8780         1         0      8798         1         0      8802         1         0
      8806         1         0      8810         1         0      8814         1         0
      8818         1         0      8822         1         0      8825         1         0
      8828         1         0      8832         1         0      8836         1         0
      8840         1         0      8844         1         0      8848         1         0
      8852         1         0      8856         1         0      8861         1         0
      8865         1         0      8869         1         0      8873         1         0
      8877         1         0      8881         1         0      8885         1         0
      8889         1         0      8893         1         0      8897         1         0
      8901         1         0      8905         1         0      8909         1         0
      8913         1         0      8918         2         0      8927         2         0
      8945         1         0      8962         1         0      8980         1         0
      8984         1         0      8988         1         0      8992         1         0
      8996         1         0      9000         1         0      9004         1         0
      9007         1         0      9010         1         0      9014         1         0
      9018         1         0      9022         1         0      9026         1         0
      9030         1         0      9034         1         0      9038         1         0
      9043         1         0      9047         1         0      9051         1         0
      9055         1         0      9059         1         0      9063         1         0
      9067         1         0      9071         1         0      9075         1         0
      9079         1         0      9083         1         0      9087         1         0
      9091         1         0      9095         1         0      9100         2         0
      9109         2         0      9127         1         0      9144         1         0
      9162         1         0      9166         1         0      9170         1         0
      9174         1         0      9178         1         0      9182         1         0
      9186         1         0      9189         1         0      9192         1         0
      9196         1         0      9200         1         0      9204         1         0
      9208         1         0      9212         1         0      9216         1         0
      9220         1         0      9225         1         0      9229         1         0
      9233         1         0      9237         1         0      9241         1         0
      9245         1         0      9249         1         0      9253         1         0
      9257         1         0      9261         1         0      9265         1         0
      9269         1         0      9273         1         0      9277         1         0
      9282         2         0      9291         2         0      9309         1         0
      9326         1         0      9344         1         0      9348         1         0
      9352         1         0      9356         1         0      9360         1         0
      9364         1         0      9368         1         0      9371         1         0
      9374         1         0      9378         1         0      9382         1         0
      9386         1         0      9390         1         0      9394         1         0
      9398         1         0      9402         1         0      9407         1         0
      9411         1         0      9415         1         0      9419         1         0
      9423         1         0      9427         1         0      9431         1         0
      9435         1         0      9439         1         0      9443         1         0
      9447         1         0      9451         1         0      9455         1         0
      9459         1         0      9464         2         0      9473         2         0
      9491         1         0      9508         1         0      9526         1         0
      9530         1         0      9534         1         0      9538         1         0
      9542         1         0      9546         1         0      9550         1         0
      9553         1         0      9556         1         0      9560         1         0
      9564         1         0      9568         1         0      9572         1         0
      9576         1         0      9580         1         0      9584         1         0
      9589         1         0      9593         1         0      9597         1         0
      9601         1         0      9605         1         0      9609         1         0
      9613         1         0      9617         1         0      9621         1         0
      9625         1         0      9629         1         0      9633         1         0
      9637         1         0      9641         1         0      9646         2         0
      9655         2         0      9673         1         0      9690         1         0
      9708         1         0      9712         1         0      9716         1         0
      9720         1         0      9724         1         0      9728         1         0
      9732         1         0      9735         1         0      9738         1         0
      9742         1         0      9746         1         0      9750         1         0
      9754         1         0      9758         1         0      9762         1         0
      9766         1         0      9771         1         0      9775         1         0
      9779         1         0      9783         1         0      9787         1         0
      9791         1         0      9795         1         0      9799         1         0
      9803         1         0      9807         1         0      9811         1         0
      9815         1         0      9819         1         0      9823         1         0
      9828         2         0      9837         2         0      9855         1         0
      9872         1         0      9890         1         0      9894         1         0
      9898         1         0      9902         1         0      9906         1         0
      9910         1         0      9914         1         0      9917         1         0
      9920         1         0      9924         1         0      9928         1         0
      9932         1         0      9936         1         0      9940         1         0
      9944         1         0      9948         1         0      9953         1         0
      9957         1         0      9961         1         0      9965         1         0
      9969         1         0      9973         1         0      9977         1         0
      9981         1         0      9985         1         0      9989         1         0
      9993         1         0      9997         1         0     10001         1         0
     10005         1         0     10010         2         0     10019         2         0
     10037         1         0     10054         1         0     10072         1         0
     10076         1         0     10080         1         0     10084         1         0
     10088         1         0     10092         1         0     10096         1         0
     10099         1         0     10102         1         0     10106         1         0
     10110         1         0     10114         1         0     10118         1         0
     10122         1         0     10126         1         0     10130         1         0
     10135         1         0     10139         1         0     10143         1         0
     10147         1         0     10151         1         0     10155         1         0
     10159         1         0     10163         1         0     10167         1         0
     10171         1         0     10175         1         0     10179         1         0
     10183         1         0     10187         1         0     10192         2         0
     10201         2         0     10219         1         0     10236         1         0
     10254         1         0     10258         1         0     10262         1         0
     10266         1         0     10270         1         0     10274         1         0
     10278         1         0     10281         1         0     10284         1         0
     10288         1         0     10292         1         0     10296         1         0
     10300         1         0     10304         1         0     10308         1         0
     10312         1         0     10317         1         0     10321         1         0
     10325         1         0     10329         1         0     10333         1         0
     10337         1         0     10341         1         0     10345         1         0
     10349         1         0     10353         1         0     10357         1         0
     10361         1         0     10365         1         0     10369         1         0
     10374         2         0     10383         2         0     10401         1         0
     10418         1         0     10436         1         0     10440         1         0
     10444         1         0     10448         1         0     10452         1         0
     10456         1         0     10460         1         0     10463         1         0
     10466         1         0     10470         1         0     10474         1         0
     10478         1         0     10482         1         0     10486         1         0
     10490         1         0     10494         1         0     10499         1         0
     10503         1         0     10507         1         0     10511         1         0
     10515         1         0     10519         1         0     10523         1         0
     10527         1         0     10531         1         0     10535         1         0
     10539         1         0     10543         1         0     10547         1         0
     10551         1         0     10556         2         0     10565         2         0
     10583         1         0     10600         1         0     10618         1         0
     10622         1         0     10626         1         0     10630         1         0
     10634         1         0     10638         1         0     10642         1         0
     10645         1         0     10648         1         0     10652         1         0
     10656         1         0     10660         1         0     10664         1         0
     10668         1         0     10672         1         0     10676         1         0
     10681         1         0     10685         1         0     10689         1         0
     10693         1         0     10697         1         0     10701         1         0
     10705         1         0     10709         1         0     10713         1         0
     10717         1         0     10721         1         0     10725         1         0
     10729         1         0     10733         1         0     10738         2         0
     10747         2         0     10765         1         0     10782         1         0
     10800         1         0     10804         1         0     10808         1         0
     10812         1         0     10816         1         0     10820         1         0
     10824         1         0     10827         1         0     10830         1         0
     10834         1         0     10838         1         0     10842         1         0
     10846         1         0     10850         1         0     10854         1         0
     10858         1         0     10863         1         0     10867         1         0
     10871         1         0     10875         1         0     10879         1         0
     10883         1         0     10887         1         0     10891         1         0
     10895         1         0     10899         1         0     10903         1         0
     10907         1         0     10911         1         0     10915         1         0
     10920         2         0     10929         2         0     10947         1         0
     10964         1         0     10982         1         0     10986         1         0
     10990         1         0     10994         1         0     10998         1         0
     11002         1         0     11006         1         0     11009         1         0
     11012         1         0     11016         1         0     11020         1         0
     11024         1         0     11028         1         0     11032         1         0
     11036         1         0     11040         1         0     11045         1         0
     11049         1         0     11053         1         0     11057         1         0
     11061         1         0     11065         1         0     11069         1         0
     11073         1         0     11077         1         0     11081         1         0
     11085         1         0     11089         1         0     11093         1         0
     11097         1         0     11102         2         0     11111         2         0
     11129         1         0     11146         1         0     11164         1         0
     11168         1         0     11172         1         0     11176         1         0
     11180         1         0     11184         1         0     11188         1         0
     11191         1         0     11194         1         0     11198         1         0
     11202         1         0     11206         1         0     11210         1         0
     11214         1         0     11218         1         0     11222         1         0
     11227         1         0     11231         1         0     11235         1         0
     11239         1         0     11243         1         0     11247         1         0
     11251         1         0     11255         1         0     11259         1         0
     11263         1         0     11267         1         0     11271         1         0
     11275         1         0     11279         1         0     11284         2         0
     11293         2         0     11311         1         0     11328         1         0
     11346         1         0     11350         1         0     11354         1         0
     11358         1         0     11362         1         0     11366         1         0
     11370         1         0     11373         1         0     11376         1         0
     11380         1         0     11384         1         0     11388         1         0
     11392         1         0     11396         1         0     11400         1         0
     11404         1         0     11409         1         0     11413         1         0
     11417         1         0     11421         1         0     11425         1         0
     11429         1         0     11433         1         0     11437         1         0
     11441         1         0     11445         1         0     11449         1         0
     11453         1         0     11457         1         0     11461         1         0
     11466         2         0     11475         2         0     11493         1         0
     11510         1         0     11528         1         0     11532         1         0
     11536         1         0     11540         1         0     11544         1         0
     11548         1         0     11552         1         0     11555         1         0
     11558         1         0     11562         1         0     11566         1         0
     11570         1         0     11574         1         0     11578         1         0
     11582         1         0     11586         1         0     11591         1         0
     11595         1         0     11599         1         0     11603         1         0
     11607         1         0     11611         1         0     11615         1         0
     11619         1         0     11623         1         0     11627         1         0
     11631         1         0     11635         1         0     11639         1         0
     11643         1         0     11648         2         0     11657         2         0
     11675         1         0     11692         1         0     11710         1         0
     11714         1         0     11718         1         0     11722         1         0
     11726         1         0     11730         1         0     11734         1         0
     11737         1         0     11740         1         0     11744         1         0
     11748         1         0     11752         1         0     11756         1         0
     11760         1         0     11764         1         0     11768         1         0
     11773         1         0     11777         1         0     11781         1         0
     11785         1         0     11789         1         0     11793         1         0
     11797         1         0     11801         1         0     11805         1         0
     11809         1         0     11813         1         0     11817         1         0
     11821         1         0     11825         1         0     11830         2         0
     11839         2         0     11857         1         0     11874         1         0
     11892         1         0     11896         1         0     11900         1         0
     11904         1         0     11908         1         0     11912         1         0
     11916         1         0     11919         1         0     11922         1         0
     11926         1         0     11930         1         0     11934         1         0
     11938         1         0     11942         1         0     11946         1         0
     11950         1         0     11955         1         0     11959         1         0
     11963         1         0     11967         1         0     11971         1         0
     11975         1         0     11979         1         0     11983         1         0
     11987         1         0     11991         1         0     11995         1         0
     11999         1         0     12003         1         0     12007         1         0
     12012         2         0     12021         2         0     12039         1         0
     12056         1         0     12074         1         0     12078         1         0
     12082         1         0     12086         1         0     12090         1         0
     12094         1         0     12098         1         0     12101         1         0
     12104         1         0     12108         1         0     12112         1         0
     12116         1         0     12120         1         0     12124         1         0
     12128         1         0     12132         1         0     12137         1         0
     12141         1         0     12145         1         0     12149         1         0
     12153         1         0     12157         1         0     12161         1         0
     12165         1         0     12169         1         0     12173         1         0
     12177         1         0     12181         1         0     12185         1         0
     12189         1         0     12194         2         0     12203         2         0
     12221         1         0     12238         1         0     12256         1         0
     12260         1         0     12264         1         0     12268         1         0
     12272         1         0     12276         1         0     12280         1         0
     12283         1         0     12286         1         0     12290         1         0
     12294         1         0     12298         1         0     12302         1         0
     12306         1         0     12310         1         0     12314         1         0
     12319         1         0     12323         1         0     12327         1         0
     12331         1         0     12335         1         0     12339         1         0
     12343         1         0     12347         1         0     12351         1         0
     12355         1         0     12359         1         0     12363         1         0
     12367         1         0     12371         1         0     12376         2         0
     12385         2         0     12403         1         0     12420         1         0
     12438         1         0     12442         1         0     12446         1         0
     12450         1         0     12454         1         0     12458         1         0
     12462         1         0     12465         1         0     12468         1         0
     12472         1         0     12476         1         0     12480         1         0
     12484         1         0     12488         1         0     12492         1         0
     12496         1         0     12501         1         0     12505         1         0
     12509         1         0     12513         1         0     12517         1         0
     12521         1         0     12525         1         0     12529         1         0
     12533         1         0     12537         1         0     12541         1         0
     12545         1         0     12549         1         0     12553         1         0
     12558         2         0     12567         2         0     12585         1         0
     12602         1         0     12620         1         0     12624         1         0
     12628         1         0     12632         1         0     12636         1         0
     12640         1         0     12644         1         0     12647         1         0
     12650         1         0     12654         1         0     12658         1         0
     12662         1         0     12666         1         0     12670         1         0
     12674         1         0     12678         1         0     12683         1         0
     12687         1         0     12691         1         0     12695         1         0
     12699         1         0     12703         1         0     12707         1         0
     12711         1         0     12715         1         0     12719         1         0
     12723         1         0     12727         1         0     12731         1         0
     12735         1         0     12740         2         0     12749         2         0
     12767         1         0     12784         1         0     12802         1         0
     12806         1         0     12810         1         0     12814         1         0
     12818         1         0     12822         1         0     12826         1         0
     12829         1         0     12832         1         0     12836         1         0
     12840         1         0     12844         1         0     12848         1         0
     12852         1         0     12856         1         0     12860         1         0
     12865         1         0     12869         1         0     12873         1         0
     12877         1         0     12881         1         0     12885         1         0
     12889         1         0     12893         1         0     12897         1         0
     12901         1         0     12905         1         0     12909         1         0
     12913         1         0     12917         1         0     12922         2         0
     12931         2         0     12949         1         0     12966         1         0
     12984         1         0     12988         1         0     12992         1         0
     12996         1         0     13000         1         0     13004         1         0
     13008         1         0     13011         1         0     13014         1         0
     13018         1         0     13022         1         0     13026         1         0
     13030         1         0     13034         1         0     13038         1         0
     13042         1         0     13047         1         0     13051         1         0
     13055         1         0     13059         1         0     13063         1         0
     13067         1         0     13071         1         0     13075         1         0
     13079         1         0     13083         1         0     13087         1         0
     13091         1         0     13095         1         0     13099         1         0
     13104         2         0     13113         2         0     13131         1         0
     13148         1         0     13166         1         0     13170         1         0
     13174         1         0     13178         1         0     13182         1         0
     13186         1         0     13190         1         0     13193         1         0
     13196         1         0     13200         1         0     13204         1         0
     13208         1         0     13212         1         0     13216         1         0
     13220         1         0     13224         1         0     13229         1         0
     13233         1         0     13237         1         0     13241         1         0
     13245         1         0     13249         1         0     13253         1         0
     13257         1         0     13261         1         0     13265         1         0
     13269         1         0     13273         1         0     13277         1         0
     13281         1         0     13286         2         0     13295         2         0
     13313         1         0     13330         1         0     13348         1         0
     13352         1         0     13356         1         0     13360         1         0
     13364         1         0     13368         1         0     13372         1         0
     13375         1         0     13378         1         0     13382         1         0
     13386         1         0     13390         1         0     13394         1         0
     13398         1         0     13402         1         0     13406         1         0
     13411         1         0     13415         1         0     13419         1         0
     13423         1         0     13427         1         0     13431         1         0
     13435         1         0     13439         1         0     13443         1         0
     13447         1         0     13451         1         0     13455         1         0
     13459         1         0     13463         1         0     13468         2         0
     13477         2         0     13495         1         0     13512         1         0
     13530         1         0     13534         1         0     13538         1         0
     13542         1         0     13546         1         0     13550         1         0
     13554         1         0     13557         1         0     13560         1         0
     13564         1         0     13568         1         0     13572         1         0
     13576         1         0     13580         1         0     13584         1         0
     13588         1         0     13593         1         0     13597         1         0
     13601         1         0     13605         1         0     13609         1         0
     13613         1         0     13617         1         0     13621         1         0
     13625         1         0     13629         1         0     13633         1         0
     13637         1         0     13641         1         0     13645         1         0
     13650         2         0     13659         2         0     13677         1         0
     13694         1         0     13712         1         0     13716         1         0
     13720         1         0     13724         1         0     13728         1         0
     13732         1         0     13736         1         0     13739         1         0
     13742         1         0     13746         1         0     13750         1         0
     13754         1         0     13758         1         0     13762         1         0
     13766         1         0     13770         1         0     13775         1         0
     13779         1         0     13783         1         0     13787         1         0
     13791         1         0     13795         1         0     13799         1         0
     13803         1         0     13807         1         0     13811         1         0
     13815         1         0     13819         1         0     13823         1         0
     13827         1         0     13832         2         0     13841         2         0
     13859         1         0     13876         1         0     13894         1         0
     13898         1         0     13902         1         0     13906         1         0
     13910         1         0     13914         1         0     13918         1         0
     13921         1         0     13924         1         0     13928         1         0
     13932         1         0     13936         1         0     13940         1         0
     13944         1         0     13948         1         0     13952         1         0
     13957         1         0     13961         1         0     13965         1         0
     13969         1         0     13973         1         0     13977         1         0
     13981         1         0     13985         1         0     13989         1         0
     13993         1         0     13997         1         0     14001         1         0
     14005         1         0     14009         1         0     14014         2         0
     14023         2         0     14041         1         0     14058         1         0
     14076         1         0     14080         1         0     14084         1         0
     14088         1         0     14092         1         0     14096         1         0
     14100         1         0     14103         1         0     14106         1         0
     14110         1         0     14114         1         0     14118         1         0
     14122         1         0     14126         1         0     14130         1         0
     14134         1         0     14139         1         0     14143         1         0
     14147         1         0     14151         1         0     14155         1         0
     14159         1         0     14163         1         0     14167         1         0
     14171         1         0     14175         1         0     14179         1         0
     14183         1         0     14187         1         0     14191         1         0
     14196         2         0     14205         2         0     14223         1         0
     14240         1         0     14258         1         0     14262         1         0
     14266         1         0     14270         1         0     14274         1         0
     14278         1         0     14282         1         0     14285         1         0
     14288         1         0     14292         1         0     14296         1         0
     14300         1         0     14304         1         0     14308         1         0
     14312         1         0     14316         1         0     14321         1         0
     14325         1         0     14329         1         0     14333         1         0
     14337         1         0     14341         1         0     14345         1         0
     14349         1         0     14353         1         0     14357         1         0
     14361         1         0     14365         1         0     14369         1         0
     14373         1         0     14378         2         0     14387         2         0
     14405         1         0     14422         1         0     14440         1         0
     14444         1         0     14448         1         0     14452         1         0
     14456         1         0     14460         1         0     14464         1         0
     14467         1         0     14470         1         0     14474         1         0
     14478         1         0     14482         1         0     14486         1         0
     14490         1         0     14494         1         0     14498         1         0
     14503         1         0     14507         1         0     14511         1         0
     14515         1         0     14519         1         0     14523         1         0
     14527         1         0     14531         1         0     14535         1         0
     14539         1         0     14543         1         0     14547         1         0
     14551         1         0     14555         1         0     14560         2         0
     14569         2         0     14587         1         0     14604         1         0
     14622         1         0     14626         1         0     14630         1         0
     14634         1         0     14638         1         0     14642         1         0
     14646         1         0     14649         1         0     14652         1         0
     14656         1         0     14660         1         0     14664         1         0
     14668         1         0     14672         1         0     14676         1         0
     14680         1         0     14685         1         0     14689         1         0
     14693         1         0     14697         1         0     14701         1         0
     14705         1         0     14709         1         0     14713         1         0
     14717         1         0     14721         1         0     14725         1         0
     14729         1         0     14733         1         0     14737         1         0
     14742         2         0     14751         2         0     14769         1         0
     14786         1         0     14804         1         0     14808         1         0
     14812         1         0     14816         1         0     14820         1         0
     14824         1         0     14828         1         0     14831         1         0
     14834         1         0     14838         1         0     14842         1         0
     14846         1         0     14850         1         0     14854         1         0
     14858         1         0     14862         1         0     14867         1         0
     14871         1         0     14875         1         0     14879         1         0
     14883         1         0     14887         1         0     14891         1         0
     14895         1         0     14899         1         0     14903         1         0
     14907         1         0     14911         1         0     14915         1         0
     14919         1         0     14924         2         0     14933         2         0
     14951         1         0     14968         1         0     14986         1         0
     14990         1         0     14994         1         0     14998         1         0
     15002         1         0     15006         1         0     15010         1         0
     15013         1         0     15016         1         0     15020         1         0
     15024         1         0     15028         1         0     15032         1         0
     15036         1         0     15040         1         0     15044         1         0
     15049         1         0     15053         1         0     15057         1         0
     15061         1         0     15065         1         0     15069         1         0
     15073         1         0     15077         1         0     15081         1         0
     15085         1         0     15089         1         0     15093         1         0
     15097         1         0     15101         1         0     15106         2         0
     15115         2         0     15133         1         0     15150         1         0
     15168         1         0     15172         1         0     15176         1         0
     15180         1         0     15184         1         0     15188         1         0
     15192         1         0     15195         1         0     15198         1         0
     15202         1         0     15206         1         0     15210         1         0
     15214         1         0     15218         1         0     15222         1         0
     15226         1         0     15231         1         0     15235         1         0
     15239         1         0     15243         1         0     15247         1         0
     15251         1         0     15255         1         0     15259         1         0
     15263         1         0     15267         1         0     15271         1         0
     15275         1         0     15279         1         0     15283         1         0
     15288         2         0     15297         2         0     15315         1         0
     15332         1         0     15350         1         0     15354         1         0
     15358         1         0     15362         1         0     15366         1         0
     15370         1         0     15374         1         0     15377         1         0
     15380         1         0     15384         1         0     15388         1         0
     15392         1         0     15396         1         0     15400         1         0
     15404         1         0     15408         1         0     15413         1         0
     15417         1         0     15421         1         0     15425         1         0
     15429         1         0     15433         1         0     15437         1         0
     15441         1         0     15445         1         0     15449         1         0
     15453         1         0     15457         1         0     15461         1         0
     15465         1         0     15470         2         0     15479         2         0
     15497         1         0     15514         1         0     15532         1         0
     15536         1         0     15540         1         0     15544         1         0
     15548         1         0     15552         1         0     15556         1         0
     15559         1         0     15562         1         0     15566         1         0
     15570         1         0     15574         1         0     15578         1         0
     15582         1         0     15586         1         0     15590         1         0
     15595         1         0     15599         1         0     15603         1         0
     15607         1         0     15611         1         0     15615         1         0
     15619         1         0     15623         1         0     15627         1         0
     15631         1         0     15635         1         0     15639         1         0
     15643         1         0     15647         1         0     15652         2         0
     15661         2         0     15679         1         0     15696         1         0
     15714         1         0     15718         1         0     15722         1         0
     15726         1         0     15730         1         0     15734         1         0
     15738         1         0     15741         1         0     15744         1         0
     15748         1         0     15752         1         0     15756         1         0
     15760         1         0     15764         1         0     15768         1         0
     15772         1         0     15777         1         0     15781         1         0
     15785         1         0     15789         1         0     15793         1         0
     15797         1         0     15801         1         0     15805         1         0
     15809         1         0     15813         1         0     15817         1         0
     15821         1         0     15825         1         0     15829         1         0
     15834         2         0     15843         2         0     15861         1         0
     15878         1         0     15896         1         0     15900         1         0
     15904         1         0     15908         1         0     15912         1         0
     15916         1         0     15920         1         0     15923         1         0
     15926         1         0     15930         1         0     15934         1         0
     15938         1         0     15942         1         0     15946         1         0
     15950         1         0     15954         1         0     15959         1         0
     15963         1         0     15967         1         0     15971         1         0
     15975         1         0     15979         1         0     15983         1         0
     15987         1         0     15991         1         0     15995         1         0
     15999         1         0     16003         1         0     16007         1         0
     16011         1         0     16016         2         0     16025         2         0
     16043         1         0     16060         1         0     16078         1         0
     16082         1         0     16086         1         0     16090         1         0
     16094         1         0     16098         1         0     16102         1         0
     16105         1         0     16108         1         0     16112         1         0
     16116         1         0     16120         1         0     16124         1         0
     16128         1         0     16132         1         0     16136         1         0
     16141         1         0     16145         1         0     16149         1         0
     16153         1         0     16157         1         0     16161         1         0
     16165         1         0     16169         1         0     16173         1         0
     16177         1         0     16181         1         0     16185         1         0
     16189         1         0     16193         1         0     16198         2         0
     16207         2         0     16225         1         0     16242         1         0
     16260         1         0     16264         1         0     16268         1         0
     16272         1         0     16276         1         0     16280         1         0
     16284         1         0     16287         1         0     16290         1         0
     16294         1         0     16298         1         0     16302         1         0
     16306         1         0     16310         1         0     16314         1         0
     16318         1         0     16323         1         0     16327         1         0
     16331         1         0     16335         1         0     16339         1         0
     16343         1         0     16347         1         0     16351         1         0
     16355         1         0     16359         1         0     16363         1         0
     16367         1         0     16371         1         0     16375         1         0
     16380         2         0     16389         2         0     16407         1         0
     16424         1         0     16442         1         0     16446         1         0
     16450         1         0     16454         1         0     16458         1         0
     16462         1         0     16466         1         0     16469         1         0
     16472         1         0     16476         1         0     16480         1         0
     16484         1         0     16488         1         0     16492         1         0
     16496         1         0     16500         1         0     16505         1         0
     16509         1         0     16513         1         0     16517         1         0
     16521         1         0     16525         1         0     16529         1         0
     16533         1         0     16537         1         0     16541         1         0
     16545         1         0     16549         1         0     16553         1         0
     16557         1         0     16562         2         0     16571         2         0
     16589         1         0     16606         1         0     16624         1         0
     16628         1         0     16632         1         0     16636         1         0
     16640         1         0     16644         1         0     16648         1         0
     16651         1         0     16654         1         0     16658         1         0
     16662         1         0     16666         1         0     16670         1         0
     16674         1         0     16678         1         0     16682         1         0
     16687         1         0     16691         1         0     16695         1         0
     16699         1         0     16703         1         0     16707         1         0
     16711         1         0     16715         1         0     16719         1         0
     16723         1         0     16727         1         0     16731         1         0
     16735         1         0     16739         1         0     16744         2         0
     16753         2         0     16771         1         0     16788         1         0
     16806         1         0     16810         1         0     16814         1         0
     16818         1         0     16822         1         0     16826         1         0
     16830         1         0     16833         1         0     16836         1         0
     16840         1         0     16844         1         0     16848         1         0
     16852         1         0     16856         1         0     16860         1         0
     16864         1         0     16869         1         0     16873         1         0
     16877         1         0     16881         1         0     16885         1         0
     16889         1         0     16893         1         0     16897         1         0
     16901         1         0     16905         1         0     16909         1         0
     16913         1         0     16917         1         0     16921         1         0
     16926         2         0     16935         2         0     16953         1         0
     16970         1         0     16988         1         0     16992         1         0
     16996         1         0     17000         1         0     17004         1         0
     17008         1         0     17012         1         0     17015         1         0
     17018         1         0     17022         1         0     17026         1         0
     17030         1         0     17034         1         0     17038         1         0
     17042         1         0     17046         1         0     17051         1         0
     17055         1         0     17059         1         0     17063         1         0
     17067         1         0     17071         1         0     17075         1         0
     17079         1         0     17083         1         0     17087         1         0
     17091         1         0     17095         1         0     17099         1         0
     17103         1         0     17108         2         0     17117         2         0
     17135         1         0     17152         1         0     17170         1         0
     17174         1         0     17178         1         0     17182         1         0
     17186         1         0     17190         1         0     17194         1         0
     17197         1         0     17200         1         0     17204         1         0
     17208         1         0     17212         1         0     17216         1         0
     17220         1         0     17224         1         0     17228         1         0
     17233         1         0     17237         1         0     17241         1         0
     17245         1         0     17249         1         0     17253         1         0
     17257         1         0     17261         1         0     17265         1         0
     17269         1         0     17273         1         0     17277         1         0
     17281         1         0     17285         1         0     17290         2         0
     17299         2         0     17317         1         0     17334         1         0
     17352         1         0     17356         1         0     17360         1         0
     17364         1         0     17368         1         0     17372         1         0
     17376         1         0     17379         1         0     17382         1         0
     17386         1         0     17390         1         0     17394         1         0
     17398         1         0     17402         1         0     17406         1         0
     17410         1         0     17415         1         0     17419         1         0
     17423         1         0     17427         1         0     17431         1         0
     17435         1         0     17439         1         0     17443         1         0
     17447         1         0     17451         1         0     17455         1         0
     17459         1         0     17463         1         0     17467         1         0
     17472         2         0     17481         2         0     17499         1         0
     17516         1         0     17534         1         0     17538         1         0
     17542         1         0     17546         1         0     17550         1         0
     17554         1         0     17558         1         0     17561         1         0
     17564         1         0     17568         1         0     17572         1         0
     17576         1         0     17580         1         0     17584         1         0
     17588         1         0     17592         1         0     17597         1         0
     17601         1         0     17605         1         0     17609         1         0
     17613         1         0     17617         1         0     17621         1         0
     17625         1         0     17629         1         0     17633         1         0
     17637         1         0     17641         1         0     17645         1         0
     17649         1         0     17654         2         0     17663         2         0
     17681         1         0     17698         1         0     17716         1         0
     17720         1         0     17724         1         0     17728         1         0
     17732         1         0     17736         1         0     17740         1         0
     17743         1         0     17746         1         0     17750         1         0
     17754         1         0     17758         1         0     17762         1         0
     17766         1         0     17770         1         0     17774         1         0
     17779         1         0     17783         1         0     17787         1         0
     17791         1         0     17795         1         0     17799         1         0
     17803         1         0     17807         1         0     17811         1         0
     17815         1         0     17819         1         0     17823         1         0
     17827         1         0     17831         1         0     17836         2         0
     17845         2         0     17863         1         0     17880         1         0
     17898         1         0     17902         1         0     17906         1         0
     17910         1         0     17914         1         0     17918         1         0
     17922         1         0     17925         1         0     17928         1         0
     17932         1         0     17936         1         0     17940         1         0
     17944         1         0     17948         1         0     17952         1         0
     17956         1         0     17961         1         0     17965         1         0
     17969         1         0     17973         1         0     17977         1         0
     17981         1         0     17985         1         0     17989         1         0
     17993         1         0     17997         1         0     18001         1         0
     18005         1         0     18009         1         0     18013         1         0
     18018         2         0     18027         2         0     18045         1         0
     18062         1         0     18080         1         0     18084         1         0
     18088         1         0     18092         1         0     18096         1         0
     18100         1         0     18104         1         0     18107         1         0
     18110         1         0     18114         1         0     18118         1         0
     18122         1         0     18126         1         0     18130         1         0
     18134         1         0     18138         1         0     18143         1         0
     18147         1         0     18151         1         0     18155         1         0
     18159         1         0     18163         1         0     18167         1         0
     18171         1         0     18175         1         0     18179         1         0
     18183         1         0     18187         1         0     18191         1         0
     18195         1         0     18200         2         0     18209         2         0
     18227         1         0     18244         1         0     18262         1         0
     18266         1         0     18270         1         0     18274         1         0
     18278         1         0     18282         1         0     18286         1         0
     18289         1         0     18292         1         0     18296         1         0
     18300         1         0     18304         1         0     18308         1         0
     18312         1         0     18316         1         0     18320         1         0
     18325         1         0     18329         1         0     18333         1         0
     18337         1         0     18341         1         0     18345         1         0
     18349         1         0     18353         1         0     18357         1         0
     18361         1         0     18365         1         0     18369         1         0
     18373         1         0     18377         1         0     18382         2         0
     18391         2         0     18409         1         0     18426         1         0
     18444         1         0     18448         1         0     18452         1         0
     18456         1         0     18460         1         0     18464         1         0
     18468         1         0     18471         1         0     18474         1         0
     18478         1         0     18482         1         0     18486         1         0
     18490         1         0     18494         1         0     18498         1         0
     18502         1         0     18507         1         0     18511         1         0
     18515         1         0     18519         1         0     18523         1         0
     18527         1         0     18531         1         0     18535         1         0
     18539         1         0     18543         1         0     18547         1         0
     18551         1         0     18555         1         0     18559         1         0
     18564         2         0     18573         2         0     18591         1         0
     18608         1         0     18626         1         0     18630         1         0
     18634         1         0     18638         1         0     18642         1         0
     18646         1         0     18650         1         0     18653         1         0
     18656         1         0     18660         1         0     18664         1         0
     18668         1         0     18672         1         0     18676         1         0
     18680         1         0     18684         1         0     18689         1         0
     18693         1         0     18697         1         0     18701         1         0
     18705         1         0     18709         1         0     18713         1         0
     18717         1         0     18721         1         0     18725         1         0
     18729         1         0     18733         1         0     18737         1         0
     18741         1         0     18746         2         0     18755         2         0
     18773         1         0     18790         1         0     18808         1         0
     18812         1         0     18816         1         0     18820         1         0
     18824         1         0     18828         1         0     18832         1         0
     18835         1         0     18838         1         0     18842         1         0
     18846         1         0     18850         1         0     18854         1         0
     18858         1         0     18862         1         0     18866         1         0
     18871         1         0     18875         1         0     18879         1         0
     18883         1         0     18887         1         0     18891         1         0
     18895         1         0     18899         1         0     18903         1         0
     18907         1         0     18911         1         0     18915         1         0
     18919         1         0     18923         1         0     18928         2         0
     18937         2         0     18955         1         0     18972         1         0
     18990         1         0     18994         1         0     18998         1         0
     19002         1         0     19006         1         0     19010         1         0
     19014         1         0     19017         1         0     19020         1         0
     19024         1         0     19028         1         0     19032         1         0
     19036         1         0     19040         1         0     19044         1         0
     19048         1         0     19053         1         0     19057         1         0
     19061         1         0     19065         1         0     19069         1         0
     19073         1         0     19077         1         0     19081         1         0
     19085         1         0     19089         1         0     19093         1         0
     19097         1         0     19101         1         0     19105         1         0
     19110         2         0     19119         2         0     19137         1         0
     19154         1         0     19172         1         0     19176         1         0
     19180         1         0     19184         1         0     19188         1         0
     19192         1         0     19196         1         0     19199         1         0
     19202         1         0     19206         1         0     19210         1         0
     19214         1         0     19218         1         0     19222         1         0
     19226         1         0     19230         1         0     19235         1         0
     19239         1         0     19243         1         0     19247         1         0
     19251         1         0     19255         1         0     19259         1         0
     19263         1         0     19267         1         0     19271         1         0
     19275         1         0     19279         1         0     19283         1         0
     19287         1         0     19292         2         0     19301         2         0
     19319         1         0     19336         1         0     19354         1         0
     19358         1         0     19362         1         0     19366         1         0
     19370         1         0     19374         1         0     19378         1         0
     19381         1         0     19384         1         0     19388         1         0
     19392         1         0     19396         1         0     19400         1         0
     19404         1         0     19408         1         0     19412         1         0
     19417         1         0     19421         1         0     19425         1         0
     19429         1         0     19433         1         0     19437         1         0
     19441         1         0     19445         1         0     19449         1         0
     19453         1         0     19457         1         0     19461         1         0
     19465         1         0     19469         1         0     19474         2         0
     19483         2         0     19501         1         0     19518         1         0
     19536         1         0     19540         1         0     19544         1         0
     19548         1         0     19552         1         0     19556         1         0
     19560         1         0     19563         1         0     19566         1         0
     19570         1         0     19574         1         0     19578         1         0
     19582         1         0     19586         1         0     19590         1         0
     19594         1         0     19599         1         0     19603         1         0
     19607         1         0     19611         1         0     19615         1         0
     19619         1         0     19623         1         0     19627         1         0
     19631         1         0     19635         1         0     19639         1         0
     19643         1         0     19647         1         0     19651         1         0
     19656         2         0     19665         2         0     19683         1         0
     19700         1         0     19718         1         0     19722         1         0
     19726         1         0     19730         1         0     19734         1         0
     19738         1         0     19742         1         0     19745         1         0
     19748         1         0     19752         1         0     19756         1         0
     19760         1         0     19764         1         0     19768         1         0
     19772         1         0     19776         1         0     19781         1         0
     19785         1         0     19789         1         0     19793         1         0
     19797         1         0     19801         1         0     19805         1         0
     19809         1         0     19813         1         0     19817         1         0
     19821         1         0     19825         1         0     19829         1         0
     19833         1         0     19838         2         0     19847         2         0
     19865         1         0     19882         1         0     19900         1         0
     19904         1         0     19908         1         0     19912         1         0
     19916         1         0     19920         1         0     19924         1         0
     19927         1         0     19930         1         0     19934         1         0
     19938         1         0     19942         1         0     19946         1         0
     19950         1         0     19954         1         0     19958         1         0
     19963         1         0     19967         1         0     19971         1         0
     19975         1         0     19979         1         0     19983         1         0
     19987         1         0     19991         1         0     19995         1         0
     19999         1         0     20003         1         0     20007         1         0
     20011         1         0     20015         1         0     20020         2         0
     20029         2         0     20047         1         0     20064         1         0
     20082         1         0     20086         1         0     20090         1         0
     20094         1         0     20098         1         0     20102         1         0
     20106         1         0     20109         1         0     20112         1         0
     20116         1         0     20120         1         0     20124         1         0
     20128         1         0     20132         1         0     20136         1         0
     20140         1         0     20145         1         0     20149         1         0
     20153         1         0     20157         1         0     20161         1         0
     20165         1         0     20169         1         0     20173         1         0
     20177         1         0     20181         1         0     20185         1         0
     20189         1         0     20193         1         0     20197         1         0
     20202         2         0     20211         2         0     20229         1         0
     20246         1         0     20264         1         0     20268         1         0
     20272         1         0     20276         1         0     20280         1         0
     20284         1         0     20288         1         0     20291         1         0
     20294         1         0     20298         1         0     20302         1         0
     20306         1         0     20310         1         0     20314         1         0
     20318         1         0     20322         1         0     20327         1         0
     20331         1         0     20335         1         0     20339         1         0
     20343         1         0     20347         1         0     20351         1         0
     20355         1         0     20359         1         0     20363         1         0
     20367         1         0     20371         1         0     20375         1         0
     20379         1         0     20384         2         0     20393         2         0
     20411         1         0     20428         1         0     20446         1         0
     20450         1         0     20454         1         0     20458         1         0
     20462         1         0     20466         1         0     20470         1         0
     20473         1         0     20476         1         0     20480         1         0
     20484         1         0     20488         1         0     20492         1         0
     20496         1         0     20500         1         0     20504         1         0
     20509         1         0     20513         1         0     20517         1         0
     20521         1         0     20525         1         0     20529         1         0
     20533         1         0     20537         1         0     20541         1         0
     20545         1         0     20549         1         0     20553         1         0
     20557         1         0     20561         1         0     20566         2         0
     20575         2         0     20593         1         0     20610         1         0
     20628         1         0     20632         1         0     20636         1         0
     20640         1         0     20644         1         0     20648         1         0
     20652         1         0     20655         1         0     20658         1         0
     20662         1         0     20666         1         0     20670         1         0
     20674         1         0     20678         1         0     20682         1         0
     20686         1         0     20691         1         0     20695         1         0
     20699         1         0     20703         1         0     20707         1         0
     20711         1         0     20715         1         0     20719         1         0
     20723         1         0     20727         1         0     20731         1         0
     20735         1         0     20739         1         0     20743         1         0
     20748         2         0     20757         2         0     20775         1         0
     20792         1         0     20810         1         0     20814         1         0
     20818         1         0     20822         1         0     20826         1         0
     20830         1         0     20834         1         0     20837         1         0
     20840         1         0     20844         1         0     20848         1         0
     20852         1         0     20856         1         0     20860         1         0
     20864         1         0     20868         1         0     20873         1         0
     20877         1         0     20881         1         0     20885         1         0
     20889         1         0     20893         1         0     20897         1         0
     20901         1         0     20905         1         0     20909         1         0
     20913         1         0     20917         1         0     20921         1         0
     20925         1         0     20930         2         0     20939         2         0
     20957         1         0     20974         1         0     20992         1         0
     20996         1         0     21000         1         0     21004         1         0
     21008         1         0     21012         1         0     21016         1         0
     21019         1         0     21022         1         0     21026         1         0
     21030         1         0     21034         1         0     21038         1         0
     21042         1         0     21046         1         0     21050         1         0
     21055         1         0     21059         1         0     21063         1         0
     21067         1         0     21071         1         0     21075         1         0
     21079         1         0     21083         1         0     21087         1         0
     21091         1         0     21095         1         0     21099         1         0
     21103         1         0     21107         1         0     21112         2         0
     21121         2         0     21139         1         0     21156         1         0
     21174         1         0     21178         1         0     21182         1         0
     21186         1         0     21190         1         0     21194         1         0
     21198         1         0     21201         1         0     21204         1         0
     21208         1         0     21212         1         0     21216         1         0
     21220         1         0     21224         1         0     21228         1         0
     21232         1         0     21237         1         0     21241         1         0
     21245         1         0     21249         1         0     21253         1         0
     21257         1         0     21261         1         0     21265         1         0
     21269         1         0     21273         1         0     21277         1         0
     21281         1         0     21285         1         0     21289         1         0
     21294         2         0     21303         2         0     21321         1         0
     21338         1         0     21356         1         0     21360         1         0
     21364         1         0     21368         1         0     21372         1         0
     21376         1         0     21380         1         0     21383         1         0
     21386         1         0     21390         1         0     21394         1         0
     21398         1         0     21402         1         0     21406         1         0
     21410         1         0     21414         1         0     21419         1         0
     21423         1         0     21427         1         0     21431         1         0
     21435         1         0     21439         1         0     21443         1         0
     21447         1         0     21451         1         0     21455         1         0
     21459         1         0     21463         1         0     21467         1         0
     21471         1         0     21476         2         0     21485         2         0
     21503         1         0     21520         1         0     21538         1         0
     21542         1         0     21546         1         0     21550         1         0
     21554         1         0     21558         1         0     21562         1         0
     21565         1         0     21568         1         0     21572         1         0
     21576         1         0     21580         1         0     21584         1         0
     21588         1         0     21592         1         0     21596         1         0
     21601         1         0     21605         1         0     21609         1         0
     21613         1         0     21617         1         0     21621         1         0
     21625         1         0     21629         1         0     21633         1         0
     21637         1         0     21641         1         0     21645         1         0
     21649         1         0     21653         1         0     21658         2         0
     21667         2         0     21685         1         0     21702         1         0
     21720         1         0     21724         1         0     21728         1         0
     21732         1         0     21736         1         0     21740         1         0
     21744         1         0     21747         1         0     21750         1         0
     21754         1         0     21758         1         0     21762         1         0
     21766         1         0     21770         1         0     21774         1         0
     21778         1         0     21783         1         0     21787         1         0
     21791         1         0     21795         1         0     21799         1         0
     21803         1         0     21807         1         0     21811         1         0
     21815         1         0     21819         1         0     21823         1         0
     21827         1         0     21831         1         0     21835         1         0
     21840         2         0     21849         2         0     21867         1         0
     21884         1         0     21902         1         0     21906         1         0
     21910         1         0     21914         1         0     21918         1         0
     21922         1         0     21926         1         0     21929         1         0
     21932         1         0     21936         1         0     21940         1         0
     21944         1         0     21948         1         0     21952         1         0
     21956         1         0     21960         1         0     21965         1         0
     21969         1         0     21973         1         0     21977         1         0
     21981         1         0     21985         1         0     21989         1         0
     21993         1         0     21997         1         0     22001         1         0
     22005         1         0     22009         1         0     22013         1         0
     22017         1         0     22022         2         0     22031         2         0
     22049         1         0     22066         1         0     22084         1         0
     22088         1         0     22092         1         0     22096         1         0
     22100         1         0     22104         1         0     22108         1         0
     22111         1         0     22114         1         0     22118         1         0
     22122         1         0     22126         1         0     22130         1         0
     22134         1         0     22138         1         0     22142         1         0
     22147         1         0     22151         1         0     22155         1         0
     22159         1         0     22163         1         0     22167         1         0
     22171         1         0     22175         1         0     22179         1         0
     22183         1         0     22187         1         0     22191         1         0
     22195         1         0     22199         1         0     22204         2         0
     22213         2         0     22231         1         0     22248         1         0
     22266         1         0     22270         1         0     22274         1         0
     22278         1         0     22282         1         0     22286         1         0
     22290         1         0     22293         1         0     22296         1         0
     22300         1         0     22304         1         0     22308         1         0
     22312         1         0     22316         1         0     22320         1         0
     22324         1         0     22329         1         0     22333         1         0
     22337         1         0     22341         1         0     22345         1         0
     22349         1         0     22353         1         0     22357         1         0
     22361         1         0     22365         1         0     22369         1         0
     22373         1         0     22377         1         0     22381         1         0
     22386         2         0     22395         2         0     22413         1         0
     22430         1         0     22448         1         0     22452         1         0
     22456         1         0     22460         1         0     22464         1         0
     22468         1         0     22472         1         0     22475         1         0
     22478         1         0     22482         1         0     22486         1         0
     22490         1         0     22494         1         0     22498         1         0
     22502         1         0     22506         1         0     22511         1         0
     22515         1         0     22519         1         0     22523         1         0
     22527         1         0     22531         1         0     22535         1         0
     22539         1         0     22543         1         0     22547         1         0
     22551         1         0     22555         1         0     22559         1         0
     22563         1         0     22568         2         0     22577         2         0
     22595         1         0     22612         1         0     22630         1         0
     22634         1         0     22638         1         0     22642         1         0
     22646         1         0     22650         1         0     22654         1         0
     22657         1         0     22660         1         0     22664         1         0
     22668         1         0     22672         1         0     22676         1         0
     22680         1         0     22684         1         0     22688         1         0
     22693         1         0     22697         1         0     22701         1         0
     22705         1         0     22709         1         0     22713         1         0
     22717         1         0     22721         1         0     22725         1         0
     22729         1         0     22733         1         0     22737         1         0
     22741         1         0     22745         1         0     22750         2         0
     22759         2         0     22777         1         0     22794         1         0
     22812         1         0     22816         1         0     22820         1         0
     22824         1         0     22828         1         0     22832         1         0
     22836         1         0     22839         1         0     22842         1         0
     22846         1         0     22850         1         0     22854         1         0
     22858         1         0     22862         1         0     22866         1         0
     22870         1         0     22875         1         0     22879         1         0
     22883         1         0     22887         1         0     22891         1         0
     22895         1         0     22899         1         0     22903         1         0
     22907         1         0     22911         1         0     22915         1         0
     22919         1         0     22923         1         0     22927         1         0
     22932         2         0     22941         2         0     22959         1         0
     22976         1         0     22994         1         0     22998         1         0
     23002         1         0     23006         1         0     23010         1         0
     23014         1         0     23018         1         0     23021         1         0
     23024         1         0     23028         1         0     23032         1         0
     23036         1         0     23040         1         0     23044         1         0
     23048         1         0     23052         1         0     23057         1         0
     23061         1         0     23065         1         0     23069         1         0
     23073         1         0     23077         1         0     23081         1         0
     23085         1         0     23089         1         0     23093         1         0
     23097         1         0     23101         1         0     23105         1         0
     23109         1         0     23114         2         0     23123         2         0
     23141         1         0     23158         1         0     23176         1         0
     23180         1         0     23184         1         0     23188         1         0
     23192         1         0     23196         1         0     23200         1         0
     23203         1         0     23206         1         0     23210         1         0
     23214         1         0     23218         1         0     23222         1         0
     23226         1         0     23230         1         0     23234         1         0
     23239         1         0     23243         1         0     23247         1         0
     23251         1         0     23255         1         0     23259         1         0
     23263         1         0     23267         1         0     23271         1         0
     23275         1         0     23279         1         0     23283         1         0
     23287         1         0     23291         1         0     23296         2         0
     23305         2         0     23323         1         0     23340         1         0
     23358         1         0     23362         1         0     23366         1         0
     23370         1         0     23374         1         0     23378         1         0
     23382         1         0     23385         1         0     23388         1         0
     23392         1         0     23396         1         0     23400         1         0
     23404         1         0     23408         1         0     23412         1         0
     23416         1         0     23421         1         0     23425         1         0
     23429         1         0     23433         1         0     23437         1         0
     23441         1         0     23445         1         0     23449         1         0
     23453         1         0     23457         1         0     23461         1         0
     23465         1         0     23469         1         0     23473         1         0
     23478         2         0     23487         2         0     23505         1         0
     23522         1         0     23540         1         0     23544         1         0
     23548         1         0     23552         1         0     23556         1         0
     23560         1         0     23564         1         0     23567         1         0
     23570         1         0     23574         1         0     23578         1         0
     23582         1         0     23586         1         0     23590         1         0
     23594         1         0     23598         1         0     23603         1         0
     23607         1         0     23611         1         0     23615         1         0
     23619         1         0     23623         1         0     23627         1         0
     23631         1         0     23635         1         0     23639         1         0
     23643         1         0     23647         1         0     23651         1         0
     23655         1         0     23660         2         0     23669         2         0
     23687         1         0     23704         1         0     23722         1         0
     23726         1         0     23730         1         0     23734         1         0
     23738         1         0     23742         1         0     23746         1         0
     23749         1         0     23752         1         0     23756         1         0
     23760         1         0     23764         1         0     23768         1         0
     23772         1         0     23776         1         0     23780         1         0
     23785         1         0     23789         1         0     23793         1         0
     23797         1         0     23801         1         0     23805         1         0
     23809         1         0     23813         1         0     23817         1         0
     23821         1         0     23825         1         0     23829         1         0
     23833         1         0     23837         1         0     23842         2         0
     23851         2         0     23869         1         0     23886         1         0
     23904         1         0     23908         1         0     23912         1         0
     23916         1         0     23920         1         0     23924         1         0
     23928         1         0     23931         1         0     23934         1         0
     23938         1         0     23942         1         0     23946         1         0
     23950         1         0     23954         1         0     23958         1         0
     23962         1         0     23967         1         0     23971         1         0
     23975         1         0     23979         1         0     23983         1         0
     23987         1         0     23991         1         0     23995         1         0
     23999         1         0     24003         1         0     24007         1         0
     24011         1         0     24015         1         0     24019         1         0
     24024         2         0     24033         2         0     24051         1         0
     24068         1         0     24086         1         0     24090         1         0
     24094         1         0     24098         1         0     24102         1         0
     24106         1         0     24110         1         0     24113         1         0
     24116         1         0     24120         1         0     24124         1         0
     24128         1         0     24132         1         0     24136         1         0
     24140         1         0     24144         1         0     24149         1         0
     24153         1         0     24157         1         0     24161         1         0
     24165         1         0     24169         1         0     24173         1         0
     24177         1         0     24181         1         0     24185         1         0
     24189         1         0     24193         1         0     24197         1         0
     24201         1         0     24206         2         0     24215         2         0
     24233         1         0     24250         1         0     24268         1         0
     24272         1         0     24276         1         0     24280         1         0
     24284         1         0     24288         1         0     24292         1         0
     24295         1         0     24298         1         0     24302         1         0
     24306         1         0     24310         1         0     24314         1         0
     24318         1         0     24322         1         0     24326         1         0
     24331         1         0     24335         1         0     24339         1         0
     24343         1         0     24347         1         0     24351         1         0
     24355         1         0     24359         1         0     24363         1         0
     24367         1         0     24371         1         0     24375         1         0
     24379         1         0     24383         1         0     24388         2         0
     24397         2         0     24415         1         0     24432         1         0
     24450         1         0     24454         1         0     24458         1         0
     24462         1         0     24466         1         0     24470         1         0
     24474         1         0     24477         1         0     24480         1         0
     24484         1         0     24488         1         0     24492         1         0
     24496         1         0     24500         1         0     24504         1         0
     24508         1         0     24513         1         0     24517         1         0
     24521         1         0     24525         1         0     24529         1         0
     24533         1         0     24537         1         0     24541         1         0
     24545         1         0     24549         1         0     24553         1         0
     24557         1         0     24561         1         0     24565         1         0
     24570         2         0     24579         2         0     24597         1         0
     24614         1         0     24632         1         0     24636         1         0
     24640         1         0     24644         1         0     24648         1         0
     24652         1         0     24656         1         0     24659         1         0
     24662         1         0     24666         1         0     24670         1         0
     24674         1         0     24678         1         0     24682         1         0
     24686         1         0     24690         1         0     24695         1         0
     24699         1         0     24703         1         0     24707         1         0
     24711         1         0     24715         1         0     24719         1         0
     24723         1         0     24727         1         0     24731         1         0
     24735         1         0     24739         1         0     24743         1         0
     24747         1         0     24752         2         0     24761         2         0
     24779         1         0     24796         1         0     24814         1         0
     24818         1         0     24822         1         0     24826         1         0
     24830         1         0     24834         1         0     24838         1         0
     24841         1         0     24844         1         0     24848         1         0
     24852         1         0     24856         1         0     24860         1         0
     24864         1         0     24868         1         0     24872         1         0
     24877         1         0     24881         1         0     24885         1         0
     24889         1         0     24893         1         0     24897         1         0
     24901         1         0     24905         1         0     24909         1         0
     24913         1         0     24917         1         0     24921         1         0
     24925         1         0     24929         1         0     24934         2         0
     24943         2         0     24961         1         0     24978         1         0
     24996         1         0     25000         1         0     25004         1         0
     25008         1         0     25012         1         0     25016         1         0
     25020         1         0     25023         1         0     25026         1         0
     25030         1         0     25034         1         0     25038         1         0
     25042         1         0     25046         1         0     25050         1         0
     25054         1         0     25059         1         0     25063         1         0
     25067         1         0     25071         1         0     25075         1         0
     25079         1         0     25083         1         0     25087         1         0
     25091         1         0     25095         1         0     25099         1         0
     25103         1         0     25107         1         0     25111         1         0
     25116         2         0     25125         2         0     25143         1         0
     25160         1         0     25178         1         0     25182         1         0
     25186         1         0     25190         1         0     25194         1         0
     25198         1         0     25202         1         0     25205         1         0
     25208         1         0     25212         1         0     25216         1         0
     25220         1         0     25224         1         0     25228         1         0
     25232         1         0     25236         1         0     25241         1         0
     25245         1         0     25249         1         0     25253         1         0
     25257         1         0     25261         1         0     25265         1         0
     25269         1         0     25273         1         0     25277         1         0
     25281         1         0     25285         1         0     25289         1         0
     25293         1         0     25298         2         0     25307         2         0
     25325         1         0     25342         1         0     25360         1         0
     25364         1         0     25368         1         0     25372         1         0
     25376         1         0     25380         1         0     25384         1         0
     25387         1         0     25390         1         0     25394         1         0
     25398         1         0     25402         1         0     25406         1         0
     25410         1         0     25414         1         0     25418         1         0
     25423         1         0     25427         1         0     25431         1         0
     25435         1         0     25439         1         0     25443         1         0
     25447         1         0     25451         1         0     25455         1         0
     25459         1         0     25463         1         0     25467         1         0
     25471         1         0     25475         1         0     25480         2         0
     25489         2         0     25507         1         0     25524         1         0
     25542         1         0     25546         1         0     25550         1         0
     25554         1         0     25558         1         0     25562         1         0
     25566         1         0     25569         1         0     25572         1         0
     25576         1         0     25580         1         0     25584         1         0
     25588         1         0     25592         1         0     25596         1         0
     25600         1         0     25605         1         0     25609         1         0
     25613         1         0     25617         1         0     25621         1         0
     25625         1         0     25629         1         0     25633         1         0
     25637         1         0     25641         1         0     25645         1         0
     25649         1         0     25653         1         0     25657         1         0
     25662         2         0     25671         2         0     25689         1         0
     25706         1         0     25724         1         0     25728         1         0
     25732         1         0     25736         1         0     25740         1         0
     25744         1         0     25748         1         0     25751         1         0
     25754         1         0     25758         1         0     25762         1         0
     25766         1         0     25770         1         0     25774         1         0
     25778         1         0     25782         1         0     25787         1         0
     25791         1         0     25795         1         0     25799         1         0
     25803         1         0     25807         1         0     25811         1         0
     25815         1         0     25819         1         0     25823         1         0
     25827         1         0     25831         1         0     25835         1         0
     25839         1         0     25844         2         0     25853         2         0
     25871         1         0     25888         1         0     25906         1         0
     25910         1         0     25914         1         0     25918         1         0
     25922         1         0     25926         1         0     25930         1         0
     25933         1         0     25936         1         0     25940         1         0
     25944         1         0     25948         1         0     25952         1         0
     25956         1         0     25960         1         0     25964         1         0
     25969         1         0     25973         1         0     25977         1         0
     25981         1         0     25985         1         0     25989         1         0
     25993         1         0     25997         1         0     26001         1         0
     26005         1         0     26009         1         0     26013         1         0
     26017         1         0     26021         1         0     26026         2         0
     26035         2         0     26053         1         0     26070         1         0
     26088         1         0     26092         1         0     26096         1         0
     26100         1         0     26104         1         0     26108         1         0
     26112         1         0     26115         1         0     26118         1         0
     26122         1         0     26126         1         0     26130         1         0
     26134         1         0     26138         1         0     26142         1         0
     26146         1         0     26151         1         0     26155         1         0
     26159         1         0     26163         1         0     26167         1         0
     26171         1         0     26175         1         0     26179         1         0
     26183         1         0     26187         1         0     26191         1         0
     26195         1         0     26199         1         0     26203         1         0
     26208         1         0     26213         1         0     26218         1         0
     26223         1         0     26228         1         0     26233         1         0
     26238         1         0     26243         1         0     26248         1         0
     26253         1         0     26258         1         0     26263         1         0
     26268         1         0     26273         1         0     26278         1         0
     26283         1         0     26288         1         0     26293         1         0
     26298         1         0     26303         1         0     26308         1         0
     26313         1         0     26318         1         0     26323         1         0
     26328         1         0     26333         1         0     26338         1         0
     26343         1         0     26348         1         0     26353         1         0
     26358         1         0     26363         1         0     26368         1         0
     26373         1         0     26378         1         0     26383         1         0
     26388         1         0     26393         1         0     26398         1         0
     26403         1         0     26408         1         0     26413         1         0
     26418         1         0     26423         1         0     26428         1         0
     26433         1         0     26438         1         0     26443         1         0
     26448         1         0     26453         1         0     26458         1         0
     26463         1         0     26468         1         0     26473         1         0
     26478         1         0     26483         1         0     26488         1         0
     26493         1         0     26498         1         0     26503         1         0
     26508         1         0     26513         1         0     26518         1         0
     26523         1         0     26528         1         0     26533         1         0
     26538         1         0     26543         1         0     26548         1         0
     26553         1         0     26558         1         0     26563         1         0
     26568         1         0     26573         1         0     26578         1         0
     26583         1         0     26588         1         0     26593         1         0
     26598         1         0     26603         1         0     26608         1         0
     26613         1         0     26618         1         0     26623         1         0
     26628         1         0     26633         1         0     26638         1         0
     26643         1         0     26648         1         0     26653         1         0
     26658         1         0     26663         1         0     26668         1         0
     26673         1         0     26678         1         0     26683         1         0
     26688         1         0     26693         1         0     26698         1         0
     26703         1         0     26708         1         0     26713         1         0
     26718         1         0     26723         1         0     26728         1         0
     26733         1         0     26738         1         0     26743         1         0
     26748         1         0     26753         1         0     26758         1         0
     26763         1         0     26768         1         0     26773         1         0
     26778         1         0     26783         1         0     26788         1         0
     26793         1         0     26798         1         0     26803         1         0
     26808         1         0     26813         1         0     26818         1         0
     26823         1         0     26828         1         0     26833         1         0
     26838         1         0     26843         1         0     26848         1         0
     26853         1         0     26858         1         0     26863         1         0
     26868         1         0     26873         1         0     26878         1         0
     26883         1         0     26888         1         0     26893         1         0
     26898         1         0     26903         1         0     26908         1         0
     26913         1         0     26918         1         0     26923         1         0
     26928         1         0     26933         1         0     26938         1         0
     26943         1         0     26948         1         0     26953         1         0
     26958         1         0     26963         1         0     26968         1         0
     26973         1         0     26978         1         0     26983         1         0
     26988         1         0     26993         1         0     26998         1         0
     27003         1         0     27008         1         0     27013         1         0
     27018         1         0     27023         1         0     27028         1         0
     27033         1         0     27038         1         0     27043         1         0
     27048         1         0     27053         1         0     27058         1         0
     27063         1         0     27068         1         0     27073         1         0
     27078         1         0     27083         1         0     27088         1         0
     27093         1         0     27098         1         0     27103         1         0
     27108         1         0     27113         1         0     27118         1         0
     27123         1         0     27128         1         0     27133         1         0
     27138         1         0     27143         1         0     27148         1         0
     27153         1         0     27158         1         0     27163         1         0
     27168         1         0     27173         1         0     27178         1         0
     27183         1         0     27188         1         0     27193         1         0
     27198         1         0     27203         1         0     27208         1         0
     27213         1         0     27218         1         0     27223         1         0
     27228         1         0     27233         1         0     27238         1         0
     27243         1         0     27248         1         0     27253         1         0
     27258         1         0     27263         1         0     27268         1         0
     27273         1         0     27278         1         0     27283         1         0
     27288         1         0     27293         1         0     27298         1         0
     27303         1         0     27308         1         0     27313         1         0
     27318         1         0     27323         1         0     27328         1         0
     27333         1         0     27338         1         0     27343         1         0
     27348         1         0     27353         1         0     27358         1         0
     27363         1         0     27368         1         0     27373         1         0
     27378         1         0     27383         1         0     27388         1         0
     27393         1         0     27398         1         0     27403         1         0
     27408         1         0     27413         1         0     27418         1         0
     27423         1         0     27428         1         0     27433         1         0
     27438         1         0     27443         1         0     27448         1         0
     27453         1         0     27458         1         0     27463         1         0
     27468         1         0     27473         1         0     27478         1         0
     27483         1         0     27488         1         0     27493         1         0
     27498         1         0     27503         1         0     27508         1         0
     27513         1         0     27518         1         0     27523         1         0
     27528         1         0     27533         1         0     27538         1         0
     27543         1         0     27548         1         0     27553         1         0
     27558         1         0     27563         1         0     27568         1         0
     27573         1         0     27578         1         0     27583         1         0
     27588         1         0     27593         1         0     27598         1         0
     27603         1         0     27608         1         0     27613         1         0
     27618         1         0     27623         1         0     27628         1         0
     27633         1         0     27638         1         0     27643         1         0
     27648         1         0     27653         1         0     27658         1         0
     27663         1         0     27668         1         0     27673         1         0
     27678         1         0     27683         1         0     27688         1         0
     27693         1         0     27698         1         0     27703         1         0
     27708         1         0     27713         1         0     27718         1         0
     27723         1         0     27728         1         0     27733         1         0
     27738         1         0     27743         1         0     27748         1         0
     27753         1         0     27758         1         0     27763         1         0
     27768         1         0     27773         1         0     27778         1         0
     27783         1         0     27788         1         0     27793         1         0
     27798         1         0     27803         1         0     27808         1         0
     27813         1         0     27818         1         0     27823         1         0
     27828         1         0     27833         1         0     27838         1         0
     27843         1         0     27848         1         0     27853         1         0
     27858         1         0     27863         1         0     27868         1         0
     27873         1         0     27878         1         0     27883         1         0
     27888         1         0     27893         1         0     27898         1         0
     27903         1         0     27908         1         0     27913         1         0
     27918         1         0     27923         1         0     27928         1         0
     27933         1         0     27938         1         0     27943         1         0
     27948         1         0     27953         1         0     27958         1         0
     27963         1         0     27968         1         0     27973         1         0
     27978         1         0     27983         1         0     27988         1         0
     27993         1         0     27998         1         0     28003         1         0
     28008         1         0     28013         1         0     28018         1         0
     28023         1         0     28028         1         0     28033         1         0
     28038         1         0     28043         1         0     28048         1         0
     28053         1         0     28058         1         0     28063         1         0
     28068         1         0     28073         1         0     28078         1         0
     28083         1         0     28088         1         0     28093         1         0
     28098         1         0     28103         1         0     28108         1         0
     28113         1         0     28118         1         0     28123         1         0
     28128         1         0     28133         1         0     28138         1         0
     28143         1         0     28148         1         0     28153         1         0
     28158         1         0     28163         1         0     28168         1         0
     28173         1         0     28178         1         0     28183         1         0
     28188         1         0     28193         1         0     28198         1         0
     28203         1         0     28208         1         0     28213         1         0
     28218         1         0     28223         1         0     28228         1         0
     28233         1         0     28238         1         0     28243         1         0
     28248         1         0     28253         1         0     28258         1         0
     28263         1         0     28268         1         0     28273         1         0
     28278         1         0     28283         1         0     28288         1         0
     28293         1         0     28298         1         0     28303         1         0
     28308         1         0     28313         1         0     28318         1         0
     28323         1         0     28328         1         0     28333         1         0
     28338         1         0     28343         1         0     28348         1         0
     28353         1         0     28358         1         0     28363         1         0
     28368         1         0     28373         1         0     28378         1         0
     28383         1         0     28388         1         0     28393         1         0
     28398         1         0     28403         1         0     28408         1         0
     28413         1         0     28418         1         0     28423         1         0
     28428         1         0     28433         1         0     28438         1         0
     28443         1         0     28448         1         0     28453         1         0
     28458         1         0     28463         1         0     28468         1         0
     28473         1         0     28478         1         0     28483         1         0
     28488         1         0     28493         1         0     28498         1         0
     28503         1         0     28508         1         0     28513         1         0
     28518         1         0     28523         1         0     28528         1         0
     28533         1         0     28538         1         0     28543         1         0
     28548         1         0     28553         1         0     28558         1         0
     28563         1         0     28568         1         0     28573         1         0
     28578         1         0     28583         1         0     28588         1         0
     28593         1         0     28598         1         0     28603         1         0
     28608         1         0     28613         1         0     28618         1         0
     28623         1         0     28628         1         0     28633         1         0
     28638         1         0     28643         1         0     28648         1         0
     28653         1         0     28658         1         0     28663         1         0
     28668         1         0     28673         1         0     28678         1         0
     28683         1         0     28688         1         0     28693         1         0
     28698         1         0     28703         1         0     28708         1         0
     28713         1         0     28718         1         0     28723         1         0
     28728         1         0     28733         1         0     28738         1         0
     28743         1         0     28748         1         0     28753         1         0
     28758         1         0     28763         1         0     28768         1         0
     28773         1         0     28778         1         0     28783         1         0
     28788         1         0     28793         1         0     28798         1         0
     28803         1         0     28808         1         0     28813         1         0
     28818         1         0     28823         1         0     28828         1         0
     28833         1         0     28838         1         0     28843         1         0
     28848         1         0     28853         1         0     28858         1         0
     28863         1         0     28868         1         0     28873         1         0
     28878         1         0     28883         1         0     28888         1         0
     28893         1         0     28898         1         0     28903         1         0
     28908         1         0     28913         1         0     28918         1         0
     28923         1         0     28928         1         0     28933         1         0
     28938         1         0     28943         1         0     28948         1         0
     28953         1         0     28958         1         0     28963         1         0
     28968         1         0     28973         1         0     28978         1         0
     28983         1         0     28988         1         0     28993         1         0
     28998         1         0     29003         1         0     29008         1         0
     29013         1         0     29018         1         0     29023         1         0
     29028         1         0     29033         1         0     29038         1         0
     29043         1         0     29048         1         0     29053         1         0
     29058         1         0     29063         1         0     29068         1         0
     29073         1         0     29078         1         0     29083         1         0
     29088         1         0     29093         1         0     29098         1         0
     29103         1         0     29108         1         0     29113         1         0
     29118         1         0     29123         1         0     29128         1         0
     29133         1         0     29138         1         0     29143         1         0
     29148         1         0     29153         1         0     29158         1         0
     29163         1         0     29168         1         0     29173         1         0
     29178         1         0     29183         1         0     29188         1         0
     29193         1         0     29198         1         0     29203         1         0
     29208         1         0     29213         1         0     29218         1         0
     29223         1         0     29228         1         0     29233         1         0
     29238         1         0     29243         1         0     29248         1         0
     29253         1         0     29258         1         0     29263         1         0
     29268         1         0     29273         1         0     29278         1         0
     29283         1         0     29288         1         0     29293         1         0
     29298         1         0     29303         1         0     29308         1         0
     29313         1         0     29318         1         0     29323         1         0
     29328         1         0     29333         1         0     29338         1         0
     29343         1         0     29348         1         0     29353         1         0
     29358         1         0     29363         1         0     29368         1         0
     29373         1         0     29378         1         0     29383         1         0
     29388         1         0     29393         1         0     29398         1         0
     29403         1         0     29408         1         0     29413         1         0
     29418         1         0     29423         1         0     29428         1         0
     29433         1         0     29438         1         0     29443         1         0
     29448         1         0     29453         1         0     29458         1         0
     29463         1         0     29468         1         0     29473         1         0
     29478         1         0     29483         1         0     29488         1         0
     29493         1         0     29498         1         0     29503         1         0
     29508         1         0     29513         1         0     29518         1         0
     29523         1         0     29528         1         0     29533         1         0
     29538         1         0     29543         1         0     29548         1         0
     29553         1         0     29558         1         0     29563         1         0
     29568         1         0     29573         1         0     29578         1         0
     29583         1         0     29588         1         0     29593         1         0
     29598         1         0     29603         1         0     29608         1         0
     29613         1         0     29618         1         0     29623         1         0
     29628         1         0     29633         1         0     29638         1         0
     29643         1         0     29648         1         0     29653         1         0
     29658         1         0     29663         1         0     29668         1         0
     29673         1         0     29678         1         0     29683         1         0
     29688         1         0     29693         1         0     29698         1         0
     29703         1         0     29708         1         0     29713         1         0
     29718         1         0     29723         1         0     29728         1         0
     29733         1         0     29738         1         0     29743         1         0
     29748         1         0     29753         1         0     29758         1         0
     29763         1         0     29768         1         0     29773         1         0
     29778         1         0     29783         1         0     29788         1         0
     29793         1         0     29798         1         0     29803         1         0
     29808         1         0     29813         1         0     29818         1         0
     29823         1         0     29828         1         0     29833         1         0
     29838         1         0     29843         1         0     29848         1         0
     29853         1         0     29858         1         0     29863         1         0
     29868         1         0     29873         1         0     29878         1         0
     29883         1         0     29888         1         0     29893         1         0
     29898         1         0     29903         1         0     29908         1         0
     29913         1         0     29918         1         0     29923         1         0
     29928         1         0     29933         1         0     29938         1         0
     29943         1         0     29948         1         0     29953         1         0
     29958         1         0     29963         1         0     29968         1         0
     29973         1         0     29978         1         0     29983         1         0
     29988         1         0     29993         1         0     29998         1         0
     30003         1         0     30008         1         0     30013         1         0
     30018         1         0     30023         1         0     30028         1         0
     30033         1         0     30038         1         0     30043         1         0
     30048         1         0     30053         1         0     30058         1         0
     30063         1         0     30068         1         0     30073         1         0
     30078         1         0     30083         1         0     30088         1         0
     30093         1         0     30098         1         0     30103         1         0
     30108         1         0     30113         1         0     30118         1         0
     30123         1         0     30128         1         0     30133         1         0
     30138         1         0     30143         1         0     30148         1         0
     30153         1         0     30158         1         0     30163         1         0
     30168         1         0     30173         1         0     30178         1         0
     30183         1         0     30188         1         0     30193         1         0
     30198         1         0     30203         1         0     30208         1         0
     30213         1         0     30218         1         0     30223         1         0
     30228         1         0     30233         1         0     30238         1         0
     30243         1         0     30248         1         0     30253         1         0
     30258         1         0     30263         1         0     30268         1         0
     30273         1         0     30278         1         0     30283         1         0
     30288         1         0     30293         1         0     30298         1         0
     30303         1         0     30308         1         0     30313         1         0
     30318         1         0     30323         1         0     30328         1         0
     30333         1         0     30338         1         0     30343         1         0
     30348         1         0     30353         1         0     30358         1         0
     30363         1         0     30368         1         0     30373         1         0
     30378         1         0     30383         1         0     30388         1         0
     30393         1         0     30398         1         0     30403         1         0
     30408         1         0     30413         1         0     30418         1         0
     30423         1         0     30428         1         0     30433         1         0
     30438         1         0     30443         1         0     30448         1         0
     30453         1         0     30458         1         0     30463         1         0
     30468         1         0     30473         1         0     30478         1         0
     30483         1         0     30488         1         0     30493         1         0
     30498         1         0     30503         1         0     30508         1         0
     30513         1         0     30518         1         0     30523         1         0
     30528         1         0     30533         1         0     30538         1         0
     30543         1         0     30548         1         0     30553         1         0
     30558         1         0     30563         1         0     30568         1         0
     30573         1         0     30578         1         0     30583         1         0
     30588         1         0     30593         1         0     30598         1         0
     30603         1         0     30608         1         0     30613         1         0
     30618         1         0     30623         1         0     30628         1         0
     30633         1         0     30638         1         0     30643         1         0
     30648         1         0     30653         1         0     30658         1         0
     30663         1         0     30668         1         0     30673         1         0
     30678         1         0     30683         1         0     30688         1         0
     30693         1         0     30698         1         0     30703         1         0
     30708         1         0     30713         1         0     30718         1         0
     30723         1         0     30728         1         0     30733         1         0
     30738         1         0     30743         1         0     30748         1         0
     30753         1         0     30758         1         0     30763         1         0
     30768         1         0     30773         1         0     30778         1         0
     30783         1         0     30788         1         0     30793         1         0
     30798         1         0     30803         1         0     30808         1         0
     30813         1         0     30818         1         0     30823         1         0
     30828         1         0     30833         1         0     30838         1         0
     30843         1         0     30848         1         0     30853         1         0
     30858         1         0     30863         1         0     30868         1         0
     30873         1         0     30878         1         0     30883         1         0
     30888         1         0     30893         1         0     30898         1         0
     30903         1         0     30908         1         0     30913         1         0
     30918         1         0     30923         1         0     30928         1         0
     30933         1         0     30938         1         0     30943         1         0
     30948         1         0     30953         1         0     30958         1         0
     30963         1         0     30968         1         0     30973         1         0
     30978         1         0     30983         1         0     30988         1         0
     30993         1         0     30998         1         0     31003         1         0
     31008         1         0     31013         1         0     31018         1         0
     31023         1         0     31028         1         0     31033         1         0
     31038         1         0     31043         1         0     31048         1         0
     31053         1         0     31058         1         0     31063         1         0
     31068         1         0     31073         1         0     31078         1         0
     31083         1         0     31088         1         0     31093         1         0
     31098         1         0     31103         1         0     31108         1         0
     31113         1         0     31118         1         0     31123         1         0
     31128         1         0     31133         1         0     31138         1         0
     31143         1         0     31148         1         0     31153         1         0
     31158         1         0     31163         1         0     31168         1         0
     31173         1         0     31178         1         0     31183         1         0
     31188         1         0     31193         1         0     31198         1         0
     31203         1         0     31208         1         0     31213         1         0
     31218         1         0     31223         1         0     31228         1         0
     31233         1         0     31238         1         0     31243         1         0
     31248         1         0     31253         1         0     31258         1         0
     31263         1         0     31268         1         0     31273         1         0
     31278         1         0     31283         1         0     31288         1         0
     31293         1         0     31298         1         0     31303         1         0
     31308         1         0     31313         1         0     31318         1         0
     31323         1         0     31328         1         0     31333         1         0
     31338         1         0     31343         1         0     31348         1         0
     31353         1         0     31358         1         0     31363         1         0
     31368         1         0     31373         1         0     31378         1         0
     31383         1         0     31388         1         0     31393         1         0
     31398         1         0     31403         1         0     31408         1         0
     31413         1         0     31418         1         0     31423         1         0
     31428         1         0     31433         1         0     31438         1         0
     31443         1         0     31448         1         0     31453         1         0
     31458         1         0     31463         1         0     31468         1         0
     31473         1         0     31478         1         0     31483         1         0
     31488         1         0     31493         1         0     31498         1         0
     31503         1         0     31508         1         0     31513         1         0
     31518         1         0     31523         1         0     31528         1         0
     31533         1         0     31538         1         0     31543         1         0
     31548         1         0     31553         1         0     31558         1         0
     31563         1         0     31568         1         0     31573         1         0
     31578         1         0     31583         1         0     31588         1         0
     31593         1         0     31598         1         0     31603         1         0
     31608         1         0     31613         1         0     31618         1         0
     31623         1         0     31628         1         0     31633         1         0
     31638         1         0     31643         1         0     31648         1         0
     31653         1         0     31658         1         0     31663         1         0
     31668         1         0     31673         1         0     31678         1         0
     31683         1         0     31688         1         0     31693         1         0
     31698         1         0     31703         1         0     31708         1         0
     31713         1         0     31718         1         0     31723         1         0
     31728         1         0     31733         1         0     31738         1         0
     31743         1         0     31748         1         0     31753         1         0
     31758         1         0     31763         1         0     31768         1         0
     31773         1         0     31778         1         0     31783         1         0
     31788         1         0     31793         1         0     31798         1         0
     31803         1         0     31808         1         0     31813         1         0
     31818         1         0     31823         1         0     31828         1         0
     31833         1         0     31838         1         0     31843         1         0
     31848         1         0     31853         1         0     31858         1         0
     31863         1         0     31868         1         0     31873         1         0
     31878         1         0     31883         1         0     31888         1         0
     31893         1         0     31898         1         0     31903         1         0
     31908         1         0     31913         1         0     31918         1         0
     31923         1         0     31928         1         0     31933         1         0
     31938         1         0     31943         1         0     31948         1         0
     31953         1         0     31958         1         0     31963         1         0
     31968         1         0     31973         1         0     31978         1         0
     31983         1         0     31988         1         0     31993         1         0
     31998         1         0     32003         1         0     32008         1         0
     32013         1         0     32018         1         0     32023         1         0
     32028         1         0     32033         1         0     32038         1         0
     32043         1         0     32048         1         0     32053         1         0
     32058         1         0     32063         1         0     32068         1         0
     32073         1         0     32078         1         0     32083         1         0
     32088         1         0     32093         1         0     32098         1         0
     32103         1         0     32108         1         0     32113         1         0
     32118         1         0     32123         1         0     32128         1         0
     32133         1         0     32138         1         0     32143         1         0
     32148         1         0     32153         1         0     32158         1         0
     32163         1         0     32168         1         0     32173         1         0
     32178         1         0     32183         1         0     32188         1         0
     32193         1         0     32198         1         0     32203         1         0
     32208         1         0     32213         1         0     32218         1         0
     32223         1         0     32228         1         0     32233         1         0
     32238         1         0     32243         1         0     32248         1         0
     32253         1         0     32258         1         0     32263         1         0
     32268         1         0     32273         1         0     32278         1         0
     32283         1         0     32288         1         0     32293         1         0
     32298         1         0     32303         1         0     32308         1         0
     32313         1         0     32318         1         0     32323         1         0
     32328         1         0     32333         1         0     32338         1         0
     32343         1         0     32348         1         0     32353         1         0
     32358         1         0     32363         1         0     32368         1         0
     32373         1         0     32378         1         0     32383         1         0
     32388         1         0     32393         1         0     32398         1         0
     32403         1         0     32408         1         0     32413         1         0
     32418         1         0     32423         1         0     32428         1         0
     32433         1         0     32438         1         0     32443         1         0
     32448         1         0     32453         1         0     32458         1         0
     32463         1         0     32468         1         0     32473         1         0
     32478         1         0     32483         1         0     32488         1         0
     32493         1         0     32498         1         0     32503         1         0
     32508         1         0     32513         1         0     32518         1         0
     32523         1         0     32528         1         0     32533         1         0
     32538         1         0     32543         1         0     32548         1         0
     32553         1         0     32558         1         0     32563         1         0
     32568         1         0     32573         1         0     32578         1         0
     32583         1         0     32588         1         0     32593         1         0
     32598         1         0     32603         1         0     32608         1         0
     32613         1         0     32618         1         0     32623         1         0
     32628         1         0     32633         1         0     32638         1         0
     32643         1         0     32648         1         0     32653         1         0
     32658         1         0     32663         1         0     32668         1         0
     32673         1         0     32678         1         0     32683         1         0
     32688         1         0     32693         1         0     32698         1         0
     32703         1         0     32708         1         0     32713         1         0
     32718         1         0     32723         1         0     32728         1         0
     32733         1         0     32738         1         0     32743         1         0
     32748         1         0     32753         1         0     32758         1         0
     32763         1         0     32768         1         0     32773         1         0
     32778         1         0     32783         1         0     32788         1         0
     32793         1         0     32798         1         0     32803         1         0
     32808         1         0     32813         1         0     32818         1         0
     32823         1         0     32828         1         0     32833         1         0
     32838         1         0     32843         1         0     32848         1         0
     32853         1         0     32858         1         0     32863         1         0
     32868         1         0     32873         1         0     32878         1         0
     32883         1         0     32888         1         0     32893         1         0
     32898         1         0     32903         1         0     32908         1         0
     32913         1         0     32918         1         0     32923         1         0
     32928         1         0     32933         1         0     32938         1         0
     32943         1         0     32948         1         0     32953         1         0
     32958         1         0     32963         1         0     32968         1         0
     32973         1         0     32978         1         0     32983         1         0
     32988         1         0     32993         1         0     32998         1         0
     33003         1         0     33008         1         0     33013         1         0
     33018         1         0     33023         1         0     33028         1         0
     33033         1         0     33038         1         0     33043         1         0
     33048         1         0     33053         1         0     33058         1         0
     33063         1         0     33068         1         0     33073         1         0
     33078         1         0     33083         1         0     33088         1         0
     33093         1         0     33098         1         0     33103         1         0
     33108         1         0     33113         1         0     33118         1         0
     33123         1         0     33128         1         0     33133         1         0
     33138         1         0     33143         1         0     33148         1         0
     33153         1         0     33158         1         0     33163         1         0
     33168         1         0     33173         1         0     33178         1         0
     33183         1         0     33188         1         0     33193         1         0
     33198         1         0     33203         1         0     33208         1         0
     33213         1         0     33218         1         0     33223         1         0
     33228         1         0     33233         1         0     33238         1         0
     33243         1         0     33248         1         0     33253         1         0
     33258         1         0     33263         1         0     33268         1         0
     33273         1         0     33278         1         0     33283         1         0
     33288         1         0     33293         1         0     33298         1         0
     33303         1         0     33308         1         0     33313         1         0
     33318         1         0     33323         1         0     33328         1         0
     33333         1         0     33338         1         0     33343         1         0
     33348         1         0     33353         1         0     33358         1         0
     33363         1         0     33368         1         0     33373         1         0
     33378         1         0     33383         1         0     33388         1         0
     33393         1         0     33398         1         0     33403         1         0
     33408         1         0     33413         1         0     33418         1         0
     33423         1         0     33428         1         0     33433         1         0
     33438         1         0     33443         1         0     33448         1         0
     33453         1         0     33458         1         0     33463         1         0
     33468         1         0     33473         1         0     33478         1         0
     33483         1         0     33488         1         0     33493         1         0
     33498         1         0     33503         1         0     33508         1         0
     33513         1         0     33518         1         0     33523         1         0
     33528         1         0     33533         1         0     33538         1         0
     33543         1         0     33548         1         0     33553         1         0
     33558         1         0     33563         1         0     33568         1         0
     33573         1         0     33578         1         0     33583         1         0
     33588         1         0     33593         1         0     33598         1         0
     33603         1         0     33608         1         0     33613         1         0
     33618         1         0     33623         1         0     33628         1         0
     33633         1         0     33638         1         0     33643         1         0
     33648         1         0     33653         1         0     33658         1         0
     33663         1         0     33668         1         0     33673         1         0
     33678         1         0     33683         1         0     33688         1         0
     33693         1         0     33698         1         0     33703         1         0
     33708         1         0     33713         1         0     33718         1         0
     33723         1         0     33728         1         0     33733         1         0
     33738         1         0     33743         1         0     33748         1         0
     33753         1         0     33758         1         0     33763         1         0
     33768         1         0     33773         1         0     33778         1         0
     33783         1         0     33788         1         0     33793         1         0
     33798         1         0     33803         1         0     33808         1         0
     33813         1         0     33818         1         0     33823         1         0
     33828         1         0     33833         1         0     33838         1         0
     33843         1         0     33848         1         0     33853         1         0
     33858         1         0     33863         1         0     33868         1         0
     33873         1         0     33878         1         0     33883         1         0
     33888         1         0     33893         1         0     33898         1         0
     33903         1         0     33908         1         0     33913         1         0
     33918         1         0     33923         1         0     33928         1         0
     33933         1         0     33938         1         0     33943         1         0
     33948         1         0     33953         1         0     33958         1         0
     33963         1         0     33968         1         0     33973         1         0
     33978         1         0     33983         1         0     33988         1         0
     33993         1         0     33998         1         0     34003         1         0
     34008         1         0     34013         1         0     34018         1         0
     34023         1         0     34028         1         0     34033         1         0
     34038         1         0     34043         1         0     34048         1         0
     34053         1         0     34058         1         0     34063         1         0
     34068         1         0     34073         1         0     34078         1         0
     34083         1         0     34088         1         0     34093         1         0
     34098         1         0     34103         1         0     34108         1         0
     34113         1         0     34118         1         0     34123         1         0
     34128         1         0     34133         1         0     34138         1         0
     34143         1         0     34148         1         0     34153         1         0
     34158         1         0     34163         1         0     34168         1         0
     34173         1         0     34178         1         0     34183         1         0
     34188         1         0     34193         1         0     34198         1         0
     34203         1         0     34208         1         0     34213         1         0
     34218         1         0     34223         1         0     34228         1         0
     34233         1         0     34238         1         0     34243         1         0
     34248         1         0     34253         1         0     34258         1         0
     34263         1         0     34268         1         0     34273         1         0
     34278         1         0     34283         1         0     34288         1         0
     34293         1         0     34298         1         0     34303         1         0
     34308         1         0     34313         1         0     34318         1         0
     34323         1         0     34328         1         0     34333         1         0
     34338         1         0     34343         1         0     34348         1         0
     34353         1         0     34358         1         0     34363         1         0
     34368         1         0     34373         1         0     34378         1         0
     34383         1         0     34388         1         0     34393         1         0
     34398         1         0     34403         1         0     34408         1         0
     34413         1         0     34418         1         0     34423         1         0
     34428         1         0     34433         1         0     34438         1         0
     34443         1         0     34448         1         0     34453         1         0
     34458         1         0     34463         1         0     34468         1         0
     34473         1         0     34478         1         0     34483         1         0
     34488         1         0     34493         1         0     34498         1         0
     34503         1         0     34508         1         0     34513         1         0
     34518         1         0     34523         1         0     34528         1         0
     34533         1         0     34538         1         0     34543         1         0
     34548         1         0     34553         1         0     34558         1         0
     34563         1         0     34568         1         0     34573         1         0
     34578         1         0     34583         1         0     34588         1         0
     34593         1         0     34598         1         0     34603         1         0
     34608         1         0     34613         1         0     34618         1         0
     34623         1         0     34628         1         0     34633         1         0
     34638         1         0     34643         1         0     34648         1         0
     34653         1         0     34658         1         0     34663         1         0
     34668         1         0     34673         1         0     34678         1         0
     34683         1         0     34688         1         0     34693         1         0
     34698         1         0     34703         1         0     34708         1         0
     34713         1         0     34718         1         0     34723         1         0
     34728         1         0     34733         1         0     34738         1         0
     34743         1         0     34748         1         0     34753         1         0
     34758         1         0     34763         1         0     34768         1         0
     34773         1         0     34778         1         0     34783         1         0
     34788         1         0     34793         1         0     34798         1         0
     34803         1         0     34808         1         0     34813         1         0
     34818         1         0     34823         1         0     34828         1         0
     34833         1         0     34838         1         0     34843         1         0
     34848         1         0     34853         1         0     34858         1         0
     34863         1         0     34868         1         0     34873         1         0
     34878         1         0     34883         1         0     34888         1         0
     34893         1         0     34898         1         0     34903         1         0
     34908         1         0     34913         1         0     34918         1         0
     34923         1         0     34928         1         0     34933         1         0
     34938         1         0     34943         1         0     34948         1         0
     34953         1         0     34958         1         0     34963         1         0
     34968         1         0     34973         1         0     34978         1         0
     34983         1         0     34988         1         0     34993         1         0
     34998         1         0     35003         1         0     35008         1         0
     35013         1         0     35018         1         0     35023         1         0
     35028         1         0     35033         1         0     35038         1         0
     35043         1         0     35048         1         0     35053         1         0
     35058         1         0     35063         1         0     35068         1         0
     35073         1         0     35078         1         0     35083         1         0
     35088         1         0     35093         1         0     35098         1         0
     35103         1         0     35108         1         0     35113         1         0
     35118         1         0     35123         1         0     35128         1         0
     35133         1         0     35138         1         0     35143         1         0
     35148         1         0     35153         1         0     35158         1         0
     35163         1         0     35168         1         0     35173         1         0
     35178         1         0     35183         1         0     35188         1         0
     35193         1         0     35198         1         0     35203         1         0
     35208         1         0     35213         1         0     35218         1         0
     35223         1         0     35228         1         0     35233         1         0
     35238         1         0     35243         1         0     35248         1         0
     35253         1         0     35258         1         0     35263         1         0
     35268         1         0     35273         1         0     35278         1         0
     35283         1         0     35288         1         0     35293         1         0
     35298         1         0     35303         1         0     35308         1         0
     35313         1         0     35318         1         0     35323         1         0
     35328         1         0     35333         1         0     35338         1         0
     35343         1         0     35348         1         0     35353         1         0
     35358         1         0     35363         1         0     35368         1         0
     35373         1         0     35378         1         0     35383         1         0
     35388         1         0     35393         1         0     35398         1         0
     35403         1         0     35408         1         0     35413         1         0
     35418         1         0     35423         1         0     35428         1         0
     35433         1         0     35438         1         0     35443         1         0
     35448         1         0     35453         1         0     35458         1         0
     35463         1         0     35468         1         0     35473         1         0
     35478         1         0     35483         1         0     35488         1         0
     35493         1         0     35498         1         0     35503         1         0
     35508         1         0     35513         1         0     35518         1         0
     35523         1         0     35528         1         0     35533         1         0
     35538         1         0     35543         1         0     35548         1         0
     35553         1         0     35558         1         0     35563         1         0
     35568         1         0     35573         1         0     35578         1         0
     35583         1         0     35588         1         0     35593         1         0
     35598         1         0     35603         1         0     35608         1         0
     35613         1         0     35618         1         0     35623         1         0
     35628         1         0     35633         1         0     35638         1         0
     35643         1         0     35648         1         0     35653         1         0
     35658         1         0     35663         1         0     35668         1         0
     35673         1         0     35678         1         0     35683         1         0
     35688         1         0     35693         1         0     35698         1         0
     35703         1         0     35708         1         0     35713         1         0
     35718         1         0     35723         1         0     35728         1         0
     35733         1         0     35738         1         0     35743         1         0
     35748         1         0     35753         1         0     35758         1         0
     35763         1         0     35768         1         0     35773         1         0
     35778         1         0     35783         1         0     35788         1         0
     35793         1         0     35798         1         0     35803         1         0
     35808         1         0     35813         1         0     35818         1         0
     35823         1         0     35828         1         0     35833         1         0
     35838         1         0     35843         1         0     35848         1         0
     35853         1         0     35858         1         0     35863         1         0
     35868         1         0     35873         1         0     35878         1         0
     35883         1         0     35888         1         0     35893         1         0
     35898         1         0     35903         1         0     35908         1         0
     35913         1         0     35918         1         0     35923         1         0
     35928         1         0     35933         1         0     35938         1         0
     35943         1         0     35948         1         0     35953         1         0
     35958         1         0     35963         1         0     35968         1         0
     35973         1         0     35978         1         0     35983         1         0
     35988         1         0     35993         1         0     35998         1         0
     36003         1         0     36008         1         0     36013         1         0
     36018         1         0     36023         1         0     36028         1         0
     36033         1         0     36038         1         0     36043         1         0
     36048         1         0     36053         1         0     36058         1         0
     36063         1         0     36068         1         0     36073         1         0
     36078         1         0     36083         1         0     36088         1         0
     36093         1         0     36098         1         0     36103         1         0
     36108         1         0     36113         1         0     36118         1         0
     36123         1         0     36128         1         0     36133         1         0
     36138         1         0     36143         1         0     36148         1         0
     36153         1         0     36158         1         0     36163         1         0
     36168         1         0     36173         1         0     36178         1         0
     36183         1         0     36188         1         0     36193         1         0
     36198         1         0     36203         1         0     36208         1         0
     36213         1         0     36218         1         0     36223         1         0
     36228         1         0     36233         1         0     36238         1         0
     36243         1         0     36248         1         0     36253         1         0
     36258         1         0     36263         1         0     36268         1         0
     36273         1         0     36278         1         0     36283         1         0
     36288         1         0     36293         1         0     36298         1         0
     36303         1         0     36308         1         0     36313         1         0
     36318         1         0     36323         1         0     36328         1         0
     36333         1         0     36338         1         0     36343         1         0
     36348         1         0     36353         1         0     36358         1         0
     36363         1         0     36368         1         0     36373         1         0
     36378         1         0     36383         1         0     36388         1         0
     36393         1         0     36398         1         0     36403         1         0
     36408         1         0     36413         1         0     36418         1         0
     36423         1         0     36428         1         0     36433         1         0
     36438         1         0     36443         1         0     36448         1         0
     36453         1         0     36458         1         0     36463         1         0
     36468         1         0     36473         1         0     36478         1         0
     36483         1         0     36488         1         0     36493         1         0
     36498         1         0     36503         1         0     36508         1         0
     36513         1         0     36518         1         0     36523         1         0
     36528         1         0     36533         1         0     36538         1         0
     36543         1         0     36548         1         0     36553         1         0
     36558         1         0     36563         1         0     36568         1         0
     36573         1         0     36578         1         0     36583         1         0
     36588         1         0     36593         1         0     36598         1         0
     36603         1         0     36608         1         0     36613         1         0
     36618         1         0     36623         1         0     36628         1         0
     36633         1         0     36638         1         0     36643         1         0
     36648         1         0     36653         1         0     36658         1         0
     36663         1         0     36668         1         0     36673         1         0
     36678         1         0     36683         1         0     36688         1         0
     36693         1         0     36698         1         0     36703         1         0
     36708         1         0     36713         1         0     36718         1         0
     36723         1         0     36728         1         0     36733         1         0
     36738         1         0     36743         1         0     36748         1         0
     36753         1         0     36758         1         0     36763         1         0
     36768         1         0     36773         1         0     36778         1         0
     36783         1         0     36788         1         0     36793         1         0
     36798         1         0     36803         1         0     36808         1         0
     36813         1         0     36818         1         0     36823         1         0
     36828         1         0     36833         1         0     36838         1         0
     36843         1         0     36848         1         0     36853         1         0
     36858         1         0     36863         1         0     36868         1         0
     36873         1         0     36878         1         0     36883         1         0
     36888         1         0     36893         1         0     36898         1         0
     36903         1         0     36908         1         0     36913         1         0
     36918         1         0     36923         1         0     36928         1         0
     36933         1         0     36938         1         0     36943         1         0
     36948         1         0     36953         1         0     36958         1         0
     36963         1         0     36968         1         0     36973         1         0
     36978         1         0     36983         1         0     36988         1         0
     36993         1         0     36998         1         0     37003         1         0
     37008         1         0     37013         1         0     37018         1         0
     37023         1         0     37028         1         0     37033         1         0
     37038         1         0     37043         1         0     37048         1         0
     37053         1         0     37058         1         0     37063         1         0
     37068         1         0     37073         1         0     37078         1         0
     37083         1         0     37088         1         0     37093         1         0
     37098         1         0     37103         1         0     37108         1         0
     37113         1         0     37118         1         0     37123         1         0
     37128         1         0     37133         1         0     37138         1         0
     37143         1         0     37148         1         0     37153         1         0
     37158         1         0     37163         1         0     37168         1         0
     37173         1         0     37178         1         0     37183         1         0
     37188         1         0     37193         1         0     37198         1         0
     37203         1         0     37208         1         0     37213         1         0
     37218         1         0     37223         1         0     37228         1         0
     37233         1         0     37238         1         0     37243         1         0
     37248         1         0     37253         1         0     37258         1         0
     37263         1         0     37268         1         0     37273         1         0
     37278         1         0     37283         1         0     37288         1         0
     37293         1         0     37298         1         0     37303         1         0
     37308         1         0     37313         1         0     37318         1         0
     37323         1         0     37328         1         0     37333         1         0
     37338         1         0     37343         1         0     37348         1         0
     37353         1         0     37358         1         0     37363         1         0
     37368         1         0     37373         1         0     37378         1         0
     37383         1         0     37388         1         0     37393         1         0
     37398         1         0     37403         1         0     37408         1         0
     37413         1         0     37418         1         0     37423         1         0
     37428         1         0     37433         1         0     37438         1         0
     37443         1         0     37448         1         0     37453         1         0
     37458         1         0     37463         1         0     37468         1         0
     37473         1         0     37478         1         0     37483         1         0
     37488         1         0     37493         1         0     37498         1         0
     37503         1         0     37508         1         0     37513         1         0
     37518         1         0     37523         1         0     37528         1         0
     37533         1         0     37538         1         0     37543         1         0
     37548         1         0     37553         1         0     37558         1         0
     37563         1         0     37568         1         0     37573         1         0
     37578         1         0     37583         1         0     37588         1         0
     37593         1         0     37598         1         0     37603         1         0
     37608         1         0     37613         1         0     37618         1         0
     37623         1         0     37628         1         0     37633         1         0
     37638         1         0     37643         1         0     37648         1         0
     37653         1         0     37658         1         0     37663         1         0
     37668         1         0     37673         1         0     37678         1         0
     37683         1         0     37688         1         0     37693         1         0
     37698         1         0     37703         1         0     37708         1         0
     37713         1         0     37718         1         0     37723         1         0
     37728         1         0     37733         1         0     37738         1         0
     37743         1         0     37748         1         0     37753         1         0
     37758         1         0     37763         1         0     37768         1         0
     37773         1         0     37778         1         0     37783         1         0
     37788         1         0     37793         1         0     37798         1         0
     37803         1         0     37808         1         0     37813         1         0
     37818         1         0     37823         1         0     37828         1         0
     37833         1         0     37838         1         0     37843         1         0
     37848         1         0     37853         1         0     37858         1         0
     37863         1         0     37868         1         0     37873         1         0
     37878         1         0     37883         1         0     37888         1         0
     37893         1         0     37898         1         0     37903         1         0
     37908         1         0     37913         1         0     37918         1         0
     37923         1         0     37928         1         0     37933         1         0
     37938         1         0     37943         1         0     37948         1         0
     37953         1         0     37958         1         0     37963         1         0
     37968         1         0     37973         1         0     37978         1         0
     37983         1         0     37988         1         0     37993         1         0
     37998         1         0     38003         1         0     38008         1         0
     38013         1         0     38018         1         0     38023         1         0
     38028         1         0     38033         1         0     38038         1         0
     38043         1         0     38048         1         0     38053         1         0
     38058         1         0     38063         1         0     38068         1         0
     38073         1         0     38078         1         0     38083         1         0
     38088         1         0     38093         1         0     38098         1         0
     38103         1         0     38108         1         0     38113         1         0
     38118         1         0     38123         1         0     38128         1         0
     38133         1         0     38138         1         0     38143         1         0
     38148         1         0     38153         1         0     38158         1         0
     38163         1         0     38168         1         0     38173         1         0
     38178         1         0     38183         1         0     38188         1         0
     38193         1         0     38198         1         0     38203         1         0
     38208         1         0     38213         1         0     38218         1         0
     38223         1         0     38228         1         0     38233         1         0
     38238         1         0     38243         1         0     38248         1         0
     38253         1         0     38258         1         0     38263         1         0
     38268         1         0     38273         1         0     38278         1         0
     38283         1         0     38288         1         0     38293         1         0
     38298         1         0     38303         1         0     38308         1         0
     38313         1         0     38318         1         0     38323         1         0
     38328         1         0     38333         1         0     38338         1         0
     38343         1         0     38348         1         0     38353         1         0
     38358         1         0     38363         1         0     38368         1         0
     38373         1         0     38378         1         0     38383         1         0
     38388         1         0     38393         1         0     38398         1         0
     38403         1         0     38408         1         0     38413         1         0
     38418         1         0     38423         1         0     38428         1         0
     38433         1         0     38438         1         0     38443         1         0
     38448         1         0     38453         1         0     38458         1         0
     38463         1         0     38468         1         0     38473         1         0
     38478         1         0     38483         1         0     38488         1         0
     38493         1         0     38498         1         0     38503         1         0
     38508         1         0     38513         1         0     38518         1         0
     38523         1         0     38528         1         0     38533         1         0
     38538         1         0     38543         1         0     38548         1         0
     38553         1         0     38558         1         0     38563         1         0
     38568         1         0     38573         1         0     38578         1         0
     38583         1         0     38588         1         0     38593         1         0
     38598         1         0     38603         1         0     38608         1         0
     38613         1         0     38618         1         0     38623         1         0
     38628         1         0     38633         1         0     38638         1         0
     38643         1         0     38648         1         0     38653         1         0
     38658         1         0     38663         1         0     38668         1         0
     38673         1         0     38678         1         0     38683         1         0
     38688         1         0     38693         1         0     38698         1         0
     38703         1         0     38708         1         0     38713         1         0
     38718         1         0     38723         1         0     38728         1         0
     38733         1         0     38738         1         0     38743         1         0
     38748         1         0     38753         1         0     38758         1         0
     38763         1         0     38768         1         0     38773         1         0
     38778         1         0     38783         1         0     38788         1         0
     38793         1         0     38798         1         0     38803         1         0
     38808         1         0     38813         1         0     38818         1         0
     38823         1         0     38828         1         0     38833         1         0
     38838         1         0     38843         1         0     38848         1         0
     38853         1         0     38858         1         0     38863         1         0
     38868         1         0     38873         1         0     38878         1         0
     38883         1         0     38888         1         0     38893         1         0
     38898         1         0     38903         1         0     38908         1         0
     38913         1         0     38918         1         0     38923         1         0
     38928         1         0     38933         1         0     38938         1         0
     38943         1         0     38948         1         0     38953         1         0
     38958         1         0     38963         1         0     38968         1         0
     38973         1         0     38978         1         0     38983         1         0
     38988         1         0     38993         1         0     38998         1         0
     39003         1         0     39008         1         0     39013         1         0
     39018         1         0     39023         1         0     39028         1         0
     39033         1         0     39038         1         0     39043         1         0
     39048         1         0     39053         1         0     39058         1         0
     39063         1         0     39068         1         0     39073         1         0
     39078         1         0     39083         1         0     39088         1         0
     39093         1         0     39098         1         0     39103         1         0
     39108         1         0     39113         1         0     39118         1         0
     39123         1         0     39128         1         0     39133         1         0
     39138         1         0     39143         1         0     39148         1         0
     39153         1         0     39158         1         0     39163         1         0
     39168         1         0     39173         1         0     39178         1         0
     39183         1         0     39188         1         0     39193         1         0
     39198         1         0     39203         1         0     39208         1         0
     39213         1         0     39218         1         0     39223         1         0
     39228         1         0     39233         1         0     39238         1         0
     39243         1         0     39248         1         0     39253         1         0
     39258         1         0     39263         1         0     39268         1         0
     39273         1         0     39278         1         0     39283         1         0
     39288         1         0     39293         1         0     39298         1         0
     39303         1         0     39308         1         0     39313         1         0
     39318         1         0     39323         1         0     39328         1         0
     39333         1         0     39338         1         0     39343         1         0
     39348         1         0     39353         1         0     39358         1         0
     39363         1         0     39368         1         0     39373         1         0
     39378         1         0     39383         1         0     39388         1         0
     39393         1         0     39398         1         0     39403         1         0
     39408         1         0     39413         1         0     39418         1         0
     39423         1         0     39428         1         0     39433         1         0
     39438         1         0     39443         1         0     39448         1         0
     39453         1         0     39458         1         0     39463         1         0
     39468         1         0     39473         1         0     39478         1         0
     39483         1         0     39488         1         0     39493         1         0
     39498         1         0     39503         1         0     39508         1         0
     39513         1         0     39518         1         0     39523         1         0
     39528         1         0     39533         1         0     39538         1         0
     39543         1         0     39548         1         0     39553         1         0
     39558         1         0     39563         1         0     39568         1         0
     39573         1         0     39578         1         0     39583         1         0
     39588         1         0     39593         1         0     39598         1         0
     39603         1         0     39608         1         0     39613         1         0
     39618         1         0     39623         1         0     39628         1         0
     39633         1         0     39638         1         0     39643         1         0
     39648         1         0     39653         1         0     39658         1         0
     39663         1         0     39668         1         0     39673         1         0
     39678         1         0     39683         1         0     39688         1         0
     39693         1         0     39698         1         0     39703         1         0
     39708         1         0     39713         1         0     39718         1         0
     39723         1         0     39728         1         0     39733         1         0
     39738         1         0     39743         1         0     39748         1         0
     39753         1         0     39758         1         0     39763         1         0
     39768         1         0     39773         1         0     39778         1         0
     39783         1         0     39788         1         0     39793         1         0
     39798         1         0     39803         1         0     39808         1         0
     39813         1         0     39818         1         0     39823         1         0
     39828         1         0     39833         1         0     39838         1         0
     39843         1         0     39848         1         0     39853         1         0
     39858         1         0     39863         1         0     39868         1         0
     39873         1         0     39878         1         0     39883         1         0
     39888         1         0     39893         1         0     39898         1         0
     39903         1         0     39908         1         0     39913         1         0
     39918         1         0     39923         1         0     39928         1         0
     39933         1         0     39938         1         0     39943         1         0
     39948         1         0     39953         1         0     39958         1         0
     39963         1         0     39968         1         0     39973         1         0
     39978         1         0     39983         1         0     39988         1         0
     39993         1         0     39998         1         0     40003         1         0
     40008         1         0     40013         1         0     40018         1         0
     40023         1         0     40028         1         0     40033         1         0
     40038         1         0     40043         1         0     40048         1         0
     40053         1         0     40058         1         0     40063         1         0
     40068         1         0     40073         1         0     40078         1         0
     40083         1         0     40088         1         0     40093         1         0
     40098         1         0     40103         1         0     40108         1         0
     40113         1         0     40118         1         0     40123         1         0
     40128         1         0     40133         1         0     40138         1         0
     40143         1         0     40148         1         0     40153         1         0
     40158         1         0     40163         1         0     40168         1         0
     40173         1         0     40178         1         0     40183         1         0
     40188         1         0     40193         1         0     40198         1         0
     40203         1         0     40208         1         0     40213         1         0
     40218         1         0     40223         1         0     40228         1         0
     40233         1         0     40238         1         0     40243         1         0
     40248         1         0     40253         1         0     40258         1         0
     40263         1         0     40268         1         0     40273         1         0
     40278         1         0     40283         1         0     40288         1         0
     40293         1         0     40298         1         0     40303         1         0
     40308         1         0     40313         1         0     40318         1         0
     40323         1         0     40328         1         0     40333         1         0
     40338         1         0     40343         1         0     40348         1         0
     40353         1         0     40358         1         0     40363         1         0
     40368         1         0     40373         1         0     40378         1         0
     40383         1         0     40388         1         0     40393         1         0
     40398         1         0     40403         1         0     40408         1         0
     40413         1         0     40418         1         0     40423         1         0
     40428         1         0     40433         1         0     40438         1         0
     40443         1         0     40448         1         0     40453         1         0
     40458         1         0     40463         1         0     40468         1         0
     40473         1         0     40478         1         0     40483         1         0
     40488         1         0     40493         1         0     40498         1         0
     40503         1         0     40508         1         0     40513         1         0
     40518         1         0     40523         1         0     40528         1         0
     40533         1         0     40538         1         0     40543         1         0
     40548         1         0     40553         1         0     40558         1         0
     40563         1         0     40568         1         0     40573         1         0
     40578         1         0     40583         1         0     40588         1         0
     40593         1         0     40598         1         0     40603         1         0
     40608         1         0     40613         1         0     40618         1         0
     40623         1         0     40628         1         0     40633         1         0
     40638         1         0     40643         1         0     40648         1         0
     40653         1         0     40658         1         0     40663         1         0
     40668         1         0     40673         1         0     40678         1         0
     40683         1         0     40688         1         0     40693         1         0
     40698         1         0     40703         1         0     40708         1         0
     40713         1         0     40718         1         0     40723         1         0
     40728         1         0     40733         1         0     40738         1         0
     40743         1         0     40748         1         0     40753         1         0
     40758         1         0     40763         1         0     40768         1         0
     40773         1         0     40778         1         0     40783         1         0
     40788         1         0     40793         1         0     40798         1         0
     40803         1         0     40808         1         0     40813         1         0
     40818         1         0     40823         1         0     40828         1         0
     40833         1         0     40838         1         0     40843         1         0
     40848         1         0     40853         1         0     40858         1         0
     40863         1         0     40868         1         0     40873         1         0
     40878         1         0     40883         1         0     40888         1         0
     40893         1         0     40898         1         0     40903         1         0
     40908         1         0     40913         1         0     40918         1         0
     40923         1         0     40928         1         0     40933         1         0
     40938         1         0     40943         1         0     40948         1         0
     40953         1         0     40958         1         0     40963         1         0
     40968         1         0     40973         1         0     40978         1         0
     40983         1         0     40988         1         0     40993         1         0
     40998         1         0     41003         1         0     41008         1         0
     41013         1         0     41018         1         0     41023         1         0
     41028         1         0     41033         1         0     41038         1         0
     41043         1         0     41048         1         0     41053         1         0
     41058         1         0     41063         1         0     41068         1         0
     41073         1         0     41078         1         0     41083         1         0
     41088         1         0     41093         1         0     41098         1         0
     41103         1         0     41108         1         0     41113         1         0
     41118         1         0     41123         1         0     41128         1         0
     41133         1         0     41138         1         0     41143         1         0
     41148         1         0     41153         1         0     41158         1         0
     41163         1         0     41168         1         0     41173         1         0
     41178         1         0     41183         1         0     41188         1         0
     41193         1         0     41198         1         0     41203         1         0
     41208         1         0     41213         1         0     41218         1         0
     41223         1         0     41228         1         0     41233         1         0
     41238         1         0     41243         1         0     41248         1         0
     41253         1         0     41258         1         0     41263         1         0
     41268         1         0     41273         1         0     41278         1         0
     41283         1         0     41288         1         0     41293         1         0
     41298         1         0     41303         1         0     41308         1         0
     41313         1         0     41318         1         0     41323         1         0
     41328         1         0     41333         1         0     41338         1         0
     41343         1         0     41348         1         0     41353         1         0
     41358         1         0     41363         1         0     41368         1         0
     41373         1         0     41378         1         0     41383         1         0
     41388         1         0     41393         1         0     41398         1         0
     41403         1         0     41408         1         0     41413         1         0
     41418         1         0     41423         1         0     41428         1         0
     41433         1         0     41438         1         0     41443         1         0
     41448         1         0     41453         1         0     41458         1         0
     41463         1         0     41468         1         0     41473         1         0
     41478         1         0     41483         1         0     41488         1         0
     41493         1         0     41498         1         0     41503         1         0
     41508         1         0     41513         1         0     41518         1         0
     41523         1         0     41528         1         0     41533         1         0
     41538         1         0     41543         1         0     41548         1         0
     41553         1         0     41558         1         0     41563         1         0
     41568         1         0     41573         1         0     41578         1         0
     41583         1         0     41588         1         0     41593         1         0
     41598         1         0     41603         1         0     41608         1         0
     41613         1         0     41618         1         0     41623         1         0
     41628         1         0     41633         1         0     41638         1         0
     41643         1         0     41648         1         0     41653         1         0
     41658         1         0     41663         1         0     41668         1         0
     41673         1         0     41678         1         0     41683         1         0
     41688         1         0     41693         1         0     41698         1         0
     41703         1         0     41708         1         0     41713         1         0
     41718         1         0     41723         1         0     41728         1         0
     41733         1         0     41738         1         0     41743         1         0
     41748         1         0     41753         1         0     41758         1         0
     41763         1         0     41768         1         0     41773         1         0
     41778         1         0     41783         1         0     41788         1         0
     41793         1         0     41798         1         0     41803         1         0
     41808         1         0     41813         1         0     41818         1         0
     41823         1         0     41828         1         0     41833         1         0
     41838         1         0     41843         1         0     41848         1         0
     41853         1         0     41858         1         0     41863         1         0
     41868         1         0     41873         1         0     41878         1         0
     41883         1         0     41888         1         0     41893         1         0
     41898         1         0     41903         1         0     41908         1         0
     41913         1         0     41918         1         0     41923         1         0
     41928         1         0     41933         1         0     41938         1         0
     41943         1         0     41948         1         0     41953         1         0
     41958         1         0     41963         1         0     41968         1         0
     41973         1         0     41978         1         0     41983         1         0
     41988         1         0     41993         1         0     41998         1         0
     42003         1         0     42008         1         0     42013         1         0
     42018         1         0     42023         1         0     42028         1         0
     42033         1         0     42038         1         0     42043         1         0
     42048         1         0     42053         1         0     42058         1         0
     42063         1         0     42068         1         0     42073         1         0
     42078         1         0     42083         1         0     42088         1         0
     42093         1         0     42098         1         0     42103         1         0
     42108         1         0     42113         1         0     42118         1         0
     42123         1         0     42128         1         0     42133         1         0
     42138         1         0     42143         1         0     42148         1         0
     42153         1         0     42158         1         0     42163         1         0
     42168         1         0     42173         1         0     42178         1         0
     42183         1         0     42188         1         0     42193         1         0
     42198         1         0     42203         1         0     42208         1         0
     42213         1         0     42218         1         0     42223         1         0
     42228         1         0     42233         1         0     42238         1         0
     42243         1         0     42248         1         0     42253         1         0
     42258         1         0     42263         1         0     42268         1         0
     42273         1         0     42278         1         0     42283         1         0
     42288         1         0     42293         1         0     42298         1         0
     42303         1         0     42308         1         0     42313         1         0
     42318         1         0     42323         1         0     42328         1         0
     42333         1         0     42338         1         0     42343         1         0
     42348         1         0     42353         1         0     42358         1         0
     42363         1         0     42368         1         0     42373         1         0
     42378         1         0     42383         1         0     42388         1         0
     42393         1         0     42398         1         0     42403         1         0
     42408         1         0     42413         1         0     42418         1         0
     42423         1         0     42428         1         0     42433         1         0
     42438         1         0     42443         1         0     42448         1         0
     42453         1         0     42458         1         0     42463         1         0
     42468         1         0     42473         1         0     42478         1         0
     42483         1         0     42488         1         0     42493         1         0
     42498         1         0     42503         1         0     42508         1         0
     42513         1         0     42518         1         0     42523         1         0
     42528         1         0     42533         1         0     42538         1         0
     42543         1         0     42548         1         0     42553         1         0
     42558         1         0     42563         1         0     42568         1         0
     42573         1         0     42578         1         0     42583         1         0
     42588         1         0     42593         1         0     42598         1         0
     42603         1         0     42608         1         0     42613         1         0
     42618         1         0     42623         1         0     42628         1         0
     42633         1         0     42638         1         0     42643         1         0
     42648         1         0     42653         1         0     42658         1         0
     42663         1         0     42668         1         0     42673         1         0
     42678         1         0     42683         1         0     42688         1         0
     42693         1         0     42698         1         0     42703         1         0
     42708         1         0     42713         1         0     42718         1         0
     42723         1         0     42728         1         0     42733         1         0
     42738         1         0     42743         1         0     42748         1         0
     42753         1         0     42758         1         0     42763         1         0
     42768         1         0     42773         1         0     42778         1         0
     42783         1         0     42788         1         0     42793         1         0
     42798         1         0     42803         1         0     42808         1         0
     42813         1         0     42818         1         0     42823         1         0
     42828         1         0     42833         1         0     42838         1         0
     42843         1         0     42848         1         0     42853         1         0
     42858         1         0     42863         1         0     42868         1         0
     42873         1         0     42878         1         0     42883         1         0
     42888         1         0     42893         1         0     42898         1         0
     42903         1         0     42908         1         0     42913         1         0
     42918         1         0     42923         1         0     42928         1         0
     42933         1         0     42938         1         0     42943         1         0
     42948         1         0     42953         1         0     42958         1         0
     42963         1         0     42968         1         0     42973         1         0
     42978         1         0     42983         1         0     42988         1         0
     42993         1         0     42998         1         0     43003         1         0
     43008         1         0     43013         1         0     43018         1         0
     43023         1         0     43028         1         0     43033         1         0
     43038         1         0     43043         1         0     43048         1         0
     43053         1         0     43058         1         0     43063         1         0
     43068         1         0     43073         1         0     43078         1         0
     43083         1         0     43088         1         0     43093         1         0
     43098         1         0     43103         1         0     43108         1         0
     43113         1         0     43118         1         0     43123         1         0
     43128         1         0     43133         1         0     43138         1         0
     43143         1         0     43148         1         0     43153         1         0
     43158         1         0     43163         1         0     43168         1         0
     43173         1         0     43178         1         0     43183         1         0
     43188         1         0     43193         1         0     43198         1         0
     43203         1         0     43208         1         0     43213         1         0
     43218         1         0     43223         1         0     43228         1         0
     43233         1         0     43238         1         0     43243         1         0
     43248         1         0     43253         1         0     43258         1         0
     43263         1         0     43268         1         0     43273         1         0
     43278         1         0     43283         1         0     43288         1         0
     43293         1         0     43298         1         0     43303         1         0
     43308         1         0     43313         1         0     43318         1         0
     43323         1         0     43328         1         0     43333         1         0
     43338         1         0     43343         1         0     43348         1         0
     43353         1         0     43358         1         0     43363         1         0
     43368         1         0     43373         1         0     43378         1         0
     43383         1         0     43388         1         0     43393         1         0
     43398         1         0     43403         1         0     43408         1         0
     43413         1         0     43418         1         0     43423         1         0
     43428         1         0     43433         1         0     43438         1         0
     43443         1         0     43448         1         0     43453         1         0
     43458         1         0     43463         1         0     43468         1         0
     43473         1         0     43478         1         0     43483         1         0
     43488         1         0     43493         1         0     43498         1         0
     43503         1         0     43508         1         0     43513         1         0
     43518         1         0     43523         1         0     43528         1         0
     43533         1         0     43538         1         0     43543         1         0
     43548         1         0     43553         1         0     43558         1         0
     43563         1         0     43568         1         0     43573         1         0
     43578         1         0     43583         1         0     43588         1         0
     43593         1         0     43598         1         0     43603         1         0
     43608         1         0     43613         1         0     43618         1         0
     43623         1         0     43628         1         0     43633         1         0
     43638         1         0     43643         1         0     43648         1         0
     43653         1         0     43658         1         0     43663         1         0
     43668         1         0     43673         1         0     43678         1         0
     43683         1         0     43688         1         0     43693         1         0
     43698         1         0     43703         1         0     43708         1         0
     43713         1         0     43718         1         0     43723         1         0
     43728         1         0     43733         1         0     43738         1         0
     43743         1         0     43748         1         0     43753         1         0
     43758         1         0     43763         1         0     43768         1         0
     43773         1         0     43778         1         0     43783         1         0
     43788         1         0     43793         1         0     43798         1         0
     43803         1         0     43808         1         0     43813         1         0
     43818         1         0     43823         1         0     43828         1         0
     43833         1         0     43838         1         0     43843         1         0
     43848         1         0     43853         1         0     43858         1         0
     43863         1         0     43868         1         0     43873         1         0
     43878         1         0     43883         1         0     43888         1         0
     43893         1         0     43898         1         0     43903         1         0
     43908         1         0     43913         1         0     43918         1         0
     43923         1         0     43928         1         0     43933         1         0
     43938         1         0     43943         1         0     43948         1         0
     43953         1         0     43958         1         0     43963         1         0
     43968         1         0     43973         1         0     43978         1         0
     43983         1         0     43988         1         0     43993         1         0
     43998         1         0     44003         1         0     44008         1         0
     44013         1         0     44018         1         0     44023         1         0
     44028         1         0     44033         1         0     44038         1         0
     44043         1         0     44048         1         0     44053         1         0
     44058         1         0     44063         1         0     44068         1         0
     44073         1         0     44078         1         0     44083         1         0
     44088         1         0     44093         1         0     44098         1         0
     44103         1         0     44108         1         0     44113         1         0
     44118         1         0     44123         1         0     44128         1         0
     44133         1         0     44138         1         0     44143         1         0
     44148         1         0     44153         1         0     44158         1         0
     44163         1         0     44168         1         0     44173         1         0
     44178         1         0     44183         1         0     44188         1         0
     44193         1         0     44198         1         0     44203         1         0
     44208         1         0     44213         1         0     44218         1         0
     44223         1         0     44228         1         0     44233         1         0
     44238         1         0     44243         1         0     44248         1         0
     44253         1         0     44258         1         0     44263         1         0
     44268         1         0     44273         1         0     44278         1         0
     44283         1         0     44288         1         0     44293         1         0
     44298         1         0     44303         1         0     44308         1         0
     44313         1         0     44318         1         0     44323         1         0
     44328         1         0     44333         1         0     44338         1         0
     44343         1         0     44348         1         0     44353         1         0
     44358         1         0     44363         1         0     44368         1         0
     44373         1         0     44378         1         0     44383         1         0
     44388         1         0     44393         1         0     44398         1         0
     44403         1         0     44408         1         0     44413         1         0
     44418         1         0     44423         1         0     44428         1         0
     44433         1         0     44438         1         0     44443         1         0
     44448         1         0     44453         1         0     44458         1         0
     44463         1         0     44468         1         0     44473         1         0
     44478         1         0     44483         1         0     44488         1         0
     44493         1         0     44498         1         0     44503         1         0
     44508         1         0     44513         1         0     44518         1         0
     44523         1         0     44528         1         0     44533         1         0
     44538         1         0     44543         1         0     44548         1         0
     44553         1         0     44558         1         0     44563         1         0
     44568         1         0     44573         1         0     44578         1         0
     44583         1         0     44588         1         0     44593         1         0
     44598         1         0     44603         1         0     44608         1         0
     44613         1         0     44618         1         0     44623         1         0
     44628         1         0     44633         1         0     44638         1         0
     44643         1         0     44648         1         0     44653         1         0
     44658         1         0     44663         1         0     44668         1         0
     44673         1         0     44678         1         0     44683         1         0
     44688         1         0     44693         1         0     44698         1         0
     44703         1         0     44708         1         0     44713         1         0
     44718         1         0     44723         1         0     44728         1         0
     44733         1         0     44738         1         0     44743         1         0
     44748         1         0     44753         1         0     44758         1         0
     44763         1         0     44768         1         0     44773         1         0
     44778         1         0     44783         1         0     44788         1         0
     44793         1         0     44798         1         0     44803         1         0
     44808         1         0     44813         1         0     44818         1         0
     44823         1         0     44828         1         0     44833         1         0
     44838         1         0     44843         1         0     44848         1         0
     44853         1         0     44858         1         0     44863         1         0
     44868         1         0     44873         1         0     44878         1         0
     44883         1         0     44888         1         0     44893         1         0
     44898         1         0     44903         1         0     44908         1         0
     44913         1         0     44918         1         0     44923         1         0
     44928         1         0     44933         1         0     44938         1         0
     44943         1         0     44948         1         0     44953         1         0
     44958         1         0     44963         1         0     44968         1         0
     44973         1         0     44978         1         0     44983         1         0
     44988         1         0     44993         1         0     44998         1         0
     45003         1         0     45008         1         0     45013         1         0
     45018         1         0     45023         1         0     45028         1         0
     45033         1         0     45038         1         0     45043         1         0
     45048         1         0     45053         1         0     45058         1         0
     45063         1         0     45068         1         0     45073         1         0
     45078         1         0     45083         1         0     45088         1         0
     45093         1         0     45098         1         0     45103         1         0
     45108         1         0     45113         1         0     45118         1         0
     45123         1         0     45128         1         0     45133         1         0
     45138         1         0     45143         1         0     45148         1         0
     45153         1         0     45158         1         0     45163         1         0
     45168         1         0     45173         1         0     45178         1         0
     45183         1         0     45188         1         0     45193         1         0
     45198         1         0     45203         1         0     45208         1         0
     45213         1         0     45218         1         0     45223         1         0
     45228         1         0     45233         1         0     45238         1         0
     45243         1         0     45248         1         0     45253         1         0
     45258         1         0     45263         1         0     45268         1         0
     45273         1         0     45278         1         0     45283         1         0
     45288         1         0     45293         1         0     45298         1         0
     45303         1         0     45308         1         0     45313         1         0
     45318         1         0     45323         1         0     45328         1         0
     45333         1         0     45338         1         0     45343         1         0
     45348         1         0     45353         1         0     45358         1         0
     45363         1         0     45368         1         0     45373         1         0
     45378         1         0     45383         1         0     45388         1         0
     45393         1         0     45398         1         0     45403         1         0
     45408         1         0     45413         1         0     45418         1         0
     45423         1         0     45428         1         0     45433         1         0
     45438         1         0     45443         1         0     45448         1         0
     45453         1         0     45458         1         0     45463         1         0
     45468         1         0     45473         1         0     45478         1         0
     45483         1         0     45488         1         0     45493         1         0
     45498         1         0     45503         1         0     45508         1         0
     45513         1         0     45518         1         0     45523         1         0
     45528         1         0     45533         1         0     45538         1         0
     45543         1         0     45548         1         0     45553         1         0
     45558         1         0     45563         1         0     45568         1         0
     45573         1         0     45578         1         0     45583         1         0
     45588         1         0     45593         1         0     45598         1         0
     45603         1         0     45608         1         0     45613         1         0
     45618         1         0     45623         1         0     45628         1         0
     45633         1         0     45638         1         0     45643         1         0
     45648         1         0     45653         1         0     45658         1         0
     45663         1         0     45668         1         0     45673         1         0
     45678         1         0     45683         1         0     45688         1         0
     45693         1         0     45698         1         0     45703         1         0
     45708         1         0     45713         1         0     45718         1         0
     45723         1         0     45728         1         0     45733         1         0
     45738         1         0     45743         1         0     45748         1         0
     45753         1         0     45758         1         0     45763         1         0
     45768         1         0     45773         1         0     45778         1         0
     45783         1         0     45788         1         0     45793         1         0
     45798         1         0     45803         1         0     45808         1         0
     45813         1         0     45818         1         0     45823         1         0
     45828         1         0     45833         1         0     45838         1         0
     45843         1         0     45848         1         0     45853         1         0
     45858         1         0     45863         1         0     45868         1         0
     45873         1         0     45878         1         0     45883         1         0
     45888         1         0     45893         1         0     45898         1         0
     45903         1         0     45908         1         0     45913         1         0
     45918         1         0     45923         1         0     45928         1         0
     45933         1         0     45938         1         0     45943         1         0
     45948         1         0     45953         1         0     45958         1         0
     45963         1         0     45968         1         0     45973         1         0
     45978         1         0     45983         1         0     45988         1         0
     45993         1         0     45998         1         0     46003         1         0
     46008         1         0     46013         1         0     46018         1         0
     46023         1         0     46028         1         0     46033         1         0
     46038         1         0     46043         1         0     46048         1         0
     46053         1         0     46058         1         0     46063         1         0
     46068         1         0     46073         1         0     46078         1         0
     46083         1         0     46088         1         0     46093         1         0
     46098         1         0     46103         1         0     46108         1         0
     46113         1         0     46118         1         0     46123         1         0
     46128         1         0     46133         1         0     46138         1         0
     46143         1         0     46148         1         0     46153         1         0
     46158         1         0     46163         1         0     46168         1         0
     46173         1         0     46178         1         0     46183         1         0
     46188         1         0     46193         1         0     46198         1         0
     46203         1         0     46208         1         0     46213         1         0
     46218         1         0     46223         1         0     46228         1         0
     46233         1         0     46238         1         0     46243         1         0
     46248         1         0     46253         1         0     46258         1         0
     46263         1         0     46268         1         0     46273         1         0
     46278         1         0     46283         1         0     46288         1         0
     46293         1         0     46298         1         0     46303         1         0
     46308         1         0     46313         1         0     46318         1         0
     46323         1         0     46328         1         0     46333         1         0
     46338         1         0     46343         1         0     46348         1         0
     46353         1         0     46358         1         0     46363         1         0
     46368         1         0     46373         1         0     46378         1         0
     46383         1         0     46388         1         0     46393         1         0
     46398         1         0     46403         1         0     46408         1         0
     46413         1         0     46418         1         0     46423         1         0
     46428         1         0     46433         1         0     46438         1         0
     46443         1         0     46448         1         0     46453         1         0
     46458         1         0     46463         1         0     46468         1         0
     46473         1         0     46478         1         0     46483         1         0
     46488         1         0     46493         1         0     46498         1         0
     46503         1         0     46508         1         0     46513         1         0
     46518         1         0     46523         1         0     46528         1         0
     46533         1         0     46538         1         0     46543         1         0
     46548         1         0     46553         1         0     46558         1         0
     46563         1         0     46568         1         0     46573         1         0
     46578         1         0     46583         1         0     46588         1         0
     46593         1         0     46598         1         0     46603         1         0
     46608         1         0     46613         1         0     46618         1         0
     46623         1         0     46628         1         0     46633         1         0
     46638         1         0     46643         1         0     46648         1         0
     46653         1         0     46658         1         0     46663         1         0
     46668         1         0     46673         1         0     46678         1         0
     46683         1         0     46688         1         0     46693         1         0
     46698         1         0     46703         1         0     46708         1         0
     46713         1         0     46718         1         0     46723         1         0
     46728         1         0     46733         1         0     46738         1         0
     46743         1         0     46748         1         0     46753         1         0
     46758         1         0     46763         1         0     46768         1         0
     46773         1         0     46778         1         0     46783         1         0
     46788         1         0     46793         1         0     46798         1         0
     46803         1         0     46808         1         0     46813         1         0
     46818         1         0     46823         1         0     46828         1         0
     46833         1         0     46838         1         0     46843         1         0
     46848         1         0     46853         1         0     46858         1         0
     46863         1         0     46868         1         0     46873         1         0
     46878         1         0     46883         1         0     46888         1         0
     46893         1         0     46898         1         0     46903         1         0
     46908         1         0     46913         1         0     46918         1         0
     46923         1         0     46928         1         0     46933         1         0
     46938         1         0     46943         1         0     46948         1         0
     46953         1         0     46958         1         0     46963         1         0
     46968         1         0     46973         1         0     46978         1         0
     46983         1         0     46988         1         0     46993         1         0
     46998         1         0     47003         1         0     47008         1         0
     47013         1         0     47018         1         0     47023         1         0
     47028         1         0     47033         1         0     47038         1         0
     47043         1         0     47048         1         0     47053         1         0
     47058         1         0     47063         1         0     47068         1         0
     47073         1         0     47078         1         0     47083         1         0
     47088         1         0     47093         1         0     47098         1         0
     47103         1         0     47108         1         0     47113         1         0
     47118         1         0     47123         1         0     47128         1         0
     47133         1         0     47138         1         0     47143         1         0
     47148         1         0     47153         1         0     47158         1         0
     47163         1         0     47168         1         0     47173         1         0
     47178         1         0     47183         1         0     47188         1         0
     47193         1         0     47198         1         0     47203         1         0
     47208         1         0     47213         1         0     47218         1         0
     47223         1         0     47228         1         0     47233         1         0
     47238         1         0     47243         1         0     47248         1         0
     47253         1         0     47258         1         0     47263         1         0
     47268         1         0     47273         1         0     47278         1         0
     47283         1         0     47288         1         0     47293         1         0
     47298         1         0     47303         1         0     47308         1         0
     47313         1         0     47318         1         0     47323         1         0
     47328         1         0     47333         1         0     47338         1         0
     47343         1         0     47348         1         0     47353         1         0
     47358         1         0     47363         1         0     47368         1         0
     47373         1         0     47378         1         0     47383         1         0
     47388         1         0     47393         1         0     47398         1         0
     47403         1         0     47408         1         0     47413         1         0
     47418         1         0     47423         1         0     47428         1         0
     47433         1         0     47438         1         0     47443         1         0
     47448         1         0     47453         1         0     47458         1         0
     47463         1         0     47468         1         0     47473         1         0
     47478         1         0     47483         1         0     47488         1         0
     47493         1         0     47498         1         0     47503         1         0
     47508         1         0     47513         1         0     47518         1         0
     47523         1         0     47528         1         0     47533         1         0
     47538         1         0     47543         1         0     47548         1         0
     47553         1         0     47558         1         0     47563         1         0
     47568         1         0     47573         1         0     47578         1         0
     47583         1         0     47588         1         0     47593         1         0
     47598         1         0     47603         1         0     47608         1         0
     47613         1         0     47618         1         0     47623         1         0
     47628         1         0     47633         1         0     47638         1         0
     47643         1         0     47648         1         0     47653         1         0
     47658         1         0     47663         1         0     47668         1         0
     47673         1         0     47678         1         0     47683         1         0
     47688         1         0     47693         1         0     47698         1         0
     47703         1         0     47708         1         0     47713         1         0
     47718         1         0     47723         1         0     47728         1         0
     47733         1         0     47738         1         0     47743         1         0
     47748         1         0     47753         1         0     47758         1         0
     47763         1         0     47768         1         0     47773         1         0
     47778         1         0     47783         1         0     47788         1         0
     47793         1         0     47798         1         0     47803         1         0
     47808         1         0     47813         1         0     47818         1         0
     47823         1         0     47828         1         0     47833         1         0
     47838         1         0     47843         1         0     47848         1         0
     47853         1         0     47858         1         0     47863         1         0
     47868         1         0     47873         1         0     47878         1         0
     47883         1         0     47888         1         0     47893         1         0
     47898         1         0     47903         1         0     47908         1         0
     47913         1         0     47918         1         0     47923         1         0
     47928         1         0     47933         1         0     47938         1         0
     47943         1         0     47948         1         0     47953         1         0
     47958         1         0     47963         1         0     47968         1         0
     47973         1         0     47978         1         0     47983         1         0
     47988         1         0     47993         1         0     47998         1         0
     48003         1         0     48008         1         0     48013         1         0
     48018         1         0     48023         1         0     48028         1         0
     48033         1         0     48038         1         0     48043         1         0
     48048         1         0     48053         1         0     48058         1         0
     48063         1         0     48068         1         0     48073         1         0
     48078         1         0     48083         1         0     48088         1         0
     48093         1         0     48098         1         0     48103         1         0
     48108         1         0     48113         1         0     48118         1         0
     48123         1         0     48128         1         0     48133         1         0
     48138         1         0     48143         1         0     48148         1         0
     48153         1         0     48158         1         0     48163         1         0
     48168         1         0     48173         1         0     48178         1         0
     48183         1         0     48188         1         0     48193         1         0
     48198         1         0     48203         1         0     48208         1         0
     48213         1         0     48218         1         0     48223         1         0
     48228         1         0     48233         1         0     48238         1         0
     48243         1         0     48248         1         0     48253         1         0
     48258         1         0     48263         1         0     48268         1         0
     48273         1         0     48278         1         0     48283         1         0
     48288         1         0     48293         1         0     48298         1         0
     48303         1         0     48308         1         0     48313         1         0
     48318         1         0     48323         1         0     48328         1         0
     48333         1         0     48338         1         0     48343         1         0
     48348         1         0     48353         1         0     48358         1         0
     48363         1         0     48368         1         0     48373         1         0
     48378         1         0     48383         1         0     48388         1         0
     48393         1         0     48398         1         0     48403         1         0
     48408         1         0     48413         1         0     48418         1         0
     48423         1         0     48428         1         0     48433         1         0
     48438         1         0     48443         1         0     48448         1         0
     48453         1         0     48458         1         0     48463         1         0
     48468         1         0     48473         1         0     48478         1         0
     48483         1         0     48488         1         0     48493         1         0
     48498         1         0     48503         1         0     48508         1         0
     48513         1         0     48518         1         0     48523         1         0
     48528         1         0     48533         1         0     48538         1         0
     48543         1         0     48548         1         0     48553         1         0
     48558         1         0     48563         1         0     48568         1         0
     48573         1         0     48578         1         0     48583         1         0
     48588         1         0     48593         1         0     48598         1         0
     48603         1         0     48608         1         0     48613         1         0
     48618         1         0     48623         1         0     48628         1         0
     48633         1         0     48638         1         0     48643         1         0
     48648         1         0     48653         1         0     48658         1         0
     48663         1         0     48668         1         0     48673         1         0
     48678         1         0     48683         1         0     48688         1         0
     48693         1         0     48698         1         0     48703         1         0
     48708         1         0     48713         1         0     48718         1         0
     48723         1         0     48728         1         0     48733         1         0
     48738         1         0     48743         1         0     48748         1         0
     48753         1         0     48758         1         0     48763         1         0
     48768         1         0     48773         1         0     48778         1         0
     48783         1         0     48788         1         0     48793         1         0
     48798         1         0     48803         1         0     48808         1         0
     48813         1         0     48818         1         0     48823         1         0
     48828         1         0     48833         1         0     48838         1         0
     48843         1         0     48848         1         0     48853         1         0
     48858         1         0     48863         1         0     48868         1         0
     48873         1         0     48878         1         0     48883         1         0
     48888         1         0     48893         1         0     48898         1         0
     48903         1         0     48908         1         0     48913         1         0
     48918         1         0     48923         1         0     48928         1         0
     48933         1         0     48938         1         0     48943         1         0
     48948         1         0     48953         1         0     48958         1         0
     48963         1         0     48968         1         0     48973         1         0
     48978         1         0     48983         1         0     48988         1         0
     48993         1         0     48998         1         0     49003         1         0
     49008         1         0     49013         1         0     49018         1         0
     49023         1         0     49028         1         0     49033         1         0
     49038         1         0     49043         1         0     49048         1         0
     49053         1         0     49058         1         0     49063         1         0
     49068         1         0     49073         1         0     49078         1         0
     49083         1         0     49088         1         0     49093         1         0
     49098         1         0     49103         1         0     49108         1         0
     49113         1         0     49118         1         0     49123         1         0
     49128         1         0     49133         1         0     49138         1         0
     49143         1         0     49148         1         0     49153         1         0
     49158         1         0     49163         1         0     49168         1         0
     49173         1         0     49178         1         0     49183         1         0
     49188         1         0     49193         1         0     49198         1         0
     49203         1         0     49208         1         0     49213         1         0
     49218         1         0     49223         1         0     49228         1         0
     49233         1         0     49238         1         0     49243         1         0
     49248         1         0     49253         1         0     49258         1         0
     49263         1         0     49268         1         0     49273         1         0
     49278         1         0     49283         1         0     49288         1         0
     49293         1         0     49298         1         0     49303         1         0
     49308         1         0     49313         1         0     49318         1         0
     49323         1         0     49328         1         0     49333         1         0
     49338         1         0     49343         1         0     49348         1         0
     49353         1         0     49358         1         0     49363         1         0
     49368         1         0     49373         1         0     49378         1         0
     49383         1         0     49388         1         0     49393         1         0
     49398         1         0     49403         1         0     49408         1         0
     49413         1         0     49418         1         0     49423         1         0
     49428         1         0     49433         1         0     49438         1         0
     49443         1         0     49448         1         0     49453         1         0
     49458         1         0     49463         1         0     49468         1         0
     49473         1         0     49478         1         0     49483         1         0
     49488         1         0     49493         1         0     49498         1         0
     49503         1         0     49508         1         0     49513         1         0
     49518         1         0     49523         1         0     49528         1         0
     49533         1         0     49538         1         0     49543         1         0
     49548         1         0     49553         1         0     49558         1         0
     49563         1         0     49568         1         0     49573         1         0
     49578         1         0     49583         1         0     49588         1         0
     49593         1         0     49598         1         0     49603         1         0
     49608         1         0     49613         1         0     49618         1         0
     49623         1         0     49628         1         0     49633         1         0
     49638         1         0     49643         1         0     49648         1         0
     49653         1         0     49658         1         0     49663         1         0
     49668         1         0     49673         1         0     49678         1         0
     49683         1         0     49688         1         0     49693         1         0
     49698         1         0     49703         1         0     49708         1         0
     49713         1         0     49718         1         0     49723         1         0
     49728         1         0     49733         1         0     49738         1         0
     49743         1         0     49748         1         0     49753         1         0
     49758         1         0     49763         1         0     49768         1         0
     49773         1         0     49778         1         0     49783         1         0
     49788         1         0     49793         1         0     49798         1         0
     49803         1         0     49808         1         0     49813         1         0
     49818         1         0     49823         1         0     49828         1         0
     49833         1         0     49838         1         0     49843         1         0
     49848         1         0     49853         1         0     49858         1         0
     49863         1         0     49868         1         0     49873         1         0
     49878         1         0     49883         1         0     49888         1         0
     49893         1         0     49898         1         0     49903         1         0
     49908         1         0     49913         1         0     49918         1         0
     49923         1         0     49928         1         0     49933         1         0
     49938         1         0     49943         1         0     49948         1         0
     49953         1         0     49958         1         0     49963         1         0
     49968         1         0     49973         1         0     49978         1         0
     49983         1         0     49988         1         0     49993         1         0
     49998         1         0     50003         1         0     50008         1         0
     50013         1         0     50018         1         0     50023         1         0
     50028         1         0     50033         1         0     50038         1         0
     50043         1         0     50048         1         0     50053         1         0
     50058         1         0     50063         1         0     50068         1         0
     50073         1         0     50078         1         0     50083         1         0
     50088         1         0     50093         1         0     50098         1         0
     50103         1         0     50108         1         0     50113         1         0
     50118         1         0     50123         1         0     50128         1         0
     50133         1         0     50138         1         0     50143         1         0
     50148         1         0     50153         1         0     50158         1         0
     50163         1         0     50168         1         0     50173         1         0
     50178         1         0     50183         1         0     50188         1         0
     50193         1         0     50198         1         0     50203         1         0
     50208         1         0     50213         1         0     50218         1         0
     50223         1         0     50228         1         0     50233         1         0
     50238         1         0     50243         1         0     50248         1         0
     50253         1         0     50258         1         0     50263         1         0
     50268         1         0     50273         1         0     50278         1         0
     50283         1         0     50288         1         0     50293         1         0
     50298         1         0     50303         1         0     50308         1         0
     50313         1         0     50318         1         0     50323         1         0
     50328         1         0     50333         1         0     50338         1         0
     50343         1         0     50348         1         0     50353         1         0
     50358         1         0     50363         1         0     50368         1         0
     50373         1         0     50378         1         0     50383         1         0
     50388         1         0     50393         1         0     50398         1         0
     50403         1         0     50408         1         0     50413         1         0
     50418         1         0     50423         1         0     50428         1         0
     50433         1         0     50438         1         0     50443         1         0
     50448         1         0     50453         1         0     50458         1         0
     50463         1         0     50468         1         0     50473         1         0
     50478         1         0     50483         1         0     50488         1         0
     50493         1         0     50498         1         0     50503         1         0
     50508         1         0     50513         1         0     50518         1         0
     50523         1         0     50528         1         0     50533         1         0
     50538         1         0     50543         1         0     50548         1         0
     50553         1         0     50558         1         0     50563         1         0
     50568         1         0     50573         1         0     50578         1         0
     50583         1         0     50588         1         0     50593         1         0
     50598         1         0     50603         1         0     50608         1         0
     50613         1         0     50618         1         0     50623         1         0
     50628         1         0     50633         1         0     50638         1         0
     50643         1         0     50648         1         0     50653         1         0
     50658         1         0     50663         1         0     50668         1         0
     50673         1         0     50678         1         0     50683         1         0
     50688         1         0     50693         1         0     50698         1         0
     50703         1         0     50708         1         0     50713         1         0
     50718         1         0     50723         1         0     50728         1         0
     50733         1         0     50738         1         0     50743         1         0
     50748         1         0     50753         1         0     50758         1         0
     50763         1         0     50768         1         0     50773         1         0
     50778         1         0     50783         1         0     50788         1         0
     50793         1         0     50798         1         0     50803         1         0
     50808         1         0     50813         1         0     50818         1         0
     50823         1         0     50828         1         0     50833         1         0
     50838         1         0     50843         1         0     50848         1         0
     50853         1         0     50858         1         0     50863         1         0
     50868         1         0     50873         1         0     50878         1         0
     50883         1         0     50888         1         0     50893         1         0
     50898         1         0     50903         1         0     50908         1         0
     50913         1         0     50918         1         0     50923         1         0
     50928         1         0     50933         1         0     50938         1         0
     50943         1         0     50948         1         0     50953         1         0
     50958         1         0     50963         1         0     50968         1         0
     50973         1         0     50978         1         0     50983         1         0
     50988         1         0     50993         1         0     50998         1         0
     51003         1         0     51008         1         0     51013         1         0
     51018         1         0     51023         1         0     51028         1         0
     51033         1         0     51038         1         0     51043         1         0
     51048         1         0     51053         1         0     51058         1         0
     51063         1         0     51068         1         0     51073         1         0
     51078         1         0     51083         1         0     51088         1         0
     51093         1         0     51098         1         0     51103         1         0
     51108         1         0     51113         1         0     51118         1         0
     51123         1         0     51128         1         0     51133         1         0
     51138         1         0     51143         1         0     51148         1         0
     51153         1         0     51158         1         0     51163         1         0
     51168         1         0     51173         1         0     51178         1         0
     51183         1         0     51188         1         0     51193         1         0
     51198         1         0     51203         1         0     51208         1         0
     51213         1         0     51218         1         0     51223         1         0
     51228         1         0     51233         1         0     51238         1         0
     51243         1         0     51248         1         0     51253         1         0
     51258         1         0     51263         1         0     51268         1         0
     51273         1         0     51278         1         0     51283         1         0
     51288         1         0     51293         1         0     51298         1         0
     51303         1         0     51308         1         0     51313         1         0
     51318         1         0     51323         1         0     51328         1         0
     51333         1         0     51338         1         0     51343         1         0
     51348         1         0     51353         1         0     51358         1         0
     51363         1         0     51368         1         0     51373         1         0
     51378         1         0     51383         1         0     51388         1         0
     51393         1         0     51398         1         0     51403         1         0

      6192     24768 !NUMLP NUMLPH
         3         1   F  0.300000       91.0000       0.00000    
         3         5   F  0.300000       91.0000       180.000    
         3         9   F  0.300000       91.0000       0.00000    
         3        13   F  0.300000       91.0000       180.000    
         3        17   F  0.350000       110.900       91.0000    
         3        21   F  0.350000       110.900       269.000    
         3        25   F  0.350000       110.900       91.0000    
         3        29   F  0.350000       110.900       269.000    
         3        33   F  0.300000       91.0000       0.00000    
         3        37   F  0.300000       91.0000       180.000    
         3        41   F  0.300000       91.0000       0.00000    
         3        45   F  0.300000       91.0000       180.000    
         3        49   F  0.350000       110.900       91.0000    
         3        53   F  0.350000       110.900       269.000    
         3        57   F  0.350000       110.900       91.0000    
         3        61   F  0.350000       110.900       269.000    
         3        65   F  0.300000       91.0000       0.00000    
         3        69   F  0.300000       91.0000       180.000    
         3        73   F  0.300000       91.0000       0.00000    
         3        77   F  0.300000       91.0000       180.000    
         3        81   F  0.350000       110.900       91.0000    
         3        85   F  0.350000       110.900       269.000    
         3        89   F  0.350000       110.900       91.0000    
         3        93   F  0.350000       110.900       269.000    
         3        97   F  0.300000       91.0000       0.00000    
         3       101   F  0.300000       91.0000       180.000    
         3       105   F  0.300000       91.0000       0.00000    
         3       109   F  0.300000       91.0000       180.000    
         3       113   F  0.350000       110.900       91.0000    
         3       117   F  0.350000       110.900       269.000    
         3       121   F  0.350000       110.900       91.0000    
         3       125   F  0.350000       110.900       269.000    
         3       129   F  0.300000       91.0000       0.00000    
         3       133   F  0.300000       91.0000       180.000    
         3       137   F  0.300000       91.0000       0.00000    
         3       141   F  0.300000       91.0000       180.000    
         3       145   F  0.350000       110.900       91.0000    
         3       149   F  0.350000       110.900       269.000    
         3       153   F  0.350000       110.900       91.0000    
         3       157   F  0.350000       110.900       269.000    
         3       161   F  0.300000       91.0000       0.00000    
         3       165   F  0.300000       91.0000       180.000    
         3       169   F  0.300000       91.0000       0.00000    
         3       173   F  0.300000       91.0000       180.000    
         3       177   F  0.350000       110.900       91.0000    
         3       181   F  0.350000       110.900       269.000    
         3       185   F  0.350000       110.900       91.0000    
         3       189   F  0.350000       110.900       269.000    
         3       193   F  0.300000       91.0000       0.00000    
         3       197   F  0.300000       91.0000       180.000    
         3       201   F  0.300000       91.0000       0.00000    
         3       205   F  0.300000       91.0000       180.000    
         3       209   F  0.350000       110.900       91.0000    
         3       213   F  0.350000       110.900       269.000    
         3       217   F  0.350000       110.900       91.0000    
         3       221   F  0.350000       110.900       269.000    
         3       225   F  0.300000       91.0000       0.00000    
         3       229   F  0.300000       91.0000       180.000    
         3       233   F  0.300000       91.0000       0.00000    
         3       237   F  0.300000       91.0000       180.000    
         3       241   F  0.350000       110.900       91.0000    
         3       245   F  0.350000       110.900       269.000    
         3       249   F  0.350000       110.900       91.0000    
         3       253   F  0.350000       110.900       269.000    
         3       257   F  0.300000       91.0000       0.00000    
         3       261   F  0.300000       91.0000       180.000    
         3       265   F  0.300000       91.0000       0.00000    
         3       269   F  0.300000       91.0000       180.000    
         3       273   F  0.350000       110.900       91.0000    
         3       277   F  0.350000       110.900       269.000    
         3       281   F  0.350000       110.900       91.0000    
         3       285   F  0.350000       110.900       269.000    
         3       289   F  0.300000       91.0000       0.00000    
         3       293   F  0.300000       91.0000       180.000    
         3       297   F  0.300000       91.0000       0.00000    
         3       301   F  0.300000       91.0000       180.000    
         3       305   F  0.350000       110.900       91.0000    
         3       309   F  0.350000       110.900       269.000    
         3       313   F  0.350000       110.900       91.0000    
         3       317   F  0.350000       110.900       269.000    
         3       321   F  0.300000       91.0000       0.00000    
         3       325   F  0.300000       91.0000       180.000    
         3       329   F  0.300000       91.0000       0.00000    
         3       333   F  0.300000       91.0000       180.000    
         3       337   F  0.350000       110.900       91.0000    
         3       341   F  0.350000       110.900       269.000    
         3       345   F  0.350000       110.900       91.0000    
         3       349   F  0.350000       110.900       269.000    
         3       353   F  0.300000       91.0000       0.00000    
         3       357   F  0.300000       91.0000       180.000    
         3       361   F  0.300000       91.0000       0.00000    
         3       365   F  0.300000       91.0000       180.000    
         3       369   F  0.350000       110.900       91.0000    
         3       373   F  0.350000       110.900       269.000    
         3       377   F  0.350000       110.900       91.0000    
         3       381   F  0.350000       110.900       269.000    
         3       385   F  0.300000       91.0000       0.00000    
         3       389   F  0.300000       91.0000       180.000    
         3       393   F  0.300000       91.0000       0.00000    
         3       397   F  0.300000       91.0000       180.000    
         3       401   F  0.350000       110.900       91.0000    
         3       405   F  0.350000       110.900       269.000    
         3       409   F  0.350000       110.900       91.0000    
         3       413   F  0.350000       110.900       269.000    
         3       417   F  0.300000       91.0000       0.00000    
         3       421   F  0.300000       91.0000       180.000    
         3       425   F  0.300000       91.0000       0.00000    
         3       429   F  0.300000       91.0000       180.000    
         3       433   F  0.350000       110.900       91.0000    
         3       437   F  0.350000       110.900       269.000    
         3       441   F  0.350000       110.900       91.0000    
         3       445   F  0.350000       110.900       269.000    
         3       449   F  0.300000       91.0000       0.00000    
         3       453   F  0.300000       91.0000       180.000    
         3       457   F  0.300000       91.0000       0.00000    
         3       461   F  0.300000       91.0000       180.000    
         3       465   F  0.350000       110.900       91.0000    
         3       469   F  0.350000       110.900       269.000    
         3       473   F  0.350000       110.900       91.0000    
         3       477   F  0.350000       110.900       269.000    
         3       481   F  0.300000       91.0000       0.00000    
         3       485   F  0.300000       91.0000       180.000    
         3       489   F  0.300000       91.0000       0.00000    
         3       493   F  0.300000       91.0000       180.000    
         3       497   F  0.350000       110.900       91.0000    
         3       501   F  0.350000       110.900       269.000    
         3       505   F  0.350000       110.900       91.0000    
         3       509   F  0.350000       110.900       269.000    
         3       513   F  0.300000       91.0000       0.00000    
         3       517   F  0.300000       91.0000       180.000    
         3       521   F  0.300000       91.0000       0.00000    
         3       525   F  0.300000       91.0000       180.000    
         3       529   F  0.350000       110.900       91.0000    
         3       533   F  0.350000       110.900       269.000    
         3       537   F  0.350000       110.900       91.0000    
         3       541   F  0.350000       110.900       269.000    
         3       545   F  0.300000       91.0000       0.00000    
         3       549   F  0.300000       91.0000       180.000    
         3       553   F  0.300000       91.0000       0.00000    
         3       557   F  0.300000       91.0000       180.000    
         3       561   F  0.350000       110.900       91.0000    
         3       565   F  0.350000       110.900       269.000    
         3       569   F  0.350000       110.900       91.0000    
         3       573   F  0.350000       110.900       269.000    
         3       577   F  0.300000       91.0000       0.00000    
         3       581   F  0.300000       91.0000       180.000    
         3       585   F  0.300000       91.0000       0.00000    
         3       589   F  0.300000       91.0000       180.000    
         3       593   F  0.350000       110.900       91.0000    
         3       597   F  0.350000       110.900       269.000    
         3       601   F  0.350000       110.900       91.0000    
         3       605   F  0.350000       110.900       269.000    
         3       609   F  0.300000       91.0000       0.00000    
         3       613   F  0.300000       91.0000       180.000    
         3       617   F  0.300000       91.0000       0.00000    
         3       621   F  0.300000       91.0000       180.000    
         3       625   F  0.350000       110.900       91.0000    
         3       629   F  0.350000       110.900       269.000    
         3       633   F  0.350000       110.900       91.0000    
         3       637   F  0.350000       110.900       269.000    
         3       641   F  0.300000       91.0000       0.00000    
         3       645   F  0.300000       91.0000       180.000    
         3       649   F  0.300000       91.0000       0.00000    
         3       653   F  0.300000       91.0000       180.000    
         3       657   F  0.350000       110.900       91.0000    
         3       661   F  0.350000       110.900       269.000    
         3       665   F  0.350000       110.900       91.0000    
         3       669   F  0.350000       110.900       269.000    
         3       673   F  0.300000       91.0000       0.00000    
         3       677   F  0.300000       91.0000       180.000    
         3       681   F  0.300000       91.0000       0.00000    
         3       685   F  0.300000       91.0000       180.000    
         3       689   F  0.350000       110.900       91.0000    
         3       693   F  0.350000       110.900       269.000    
         3       697   F  0.350000       110.900       91.0000    
         3       701   F  0.350000       110.900       269.000    
         3       705   F  0.300000       91.0000       0.00000    
         3       709   F  0.300000       91.0000       180.000    
         3       713   F  0.300000       91.0000       0.00000    
         3       717   F  0.300000       91.0000       180.000    
         3       721   F  0.350000       110.900       91.0000    
         3       725   F  0.350000       110.900       269.000    
         3       729   F  0.350000       110.900       91.0000    
         3       733   F  0.350000       110.900       269.000    
         3       737   F  0.300000       91.0000       0.00000    
         3       741   F  0.300000       91.0000       180.000    
         3       745   F  0.300000       91.0000       0.00000    
         3       749   F  0.300000       91.0000       180.000    
         3       753   F  0.350000       110.900       91.0000    
         3       757   F  0.350000       110.900       269.000    
         3       761   F  0.350000       110.900       91.0000    
         3       765   F  0.350000       110.900       269.000    
         3       769   F  0.300000       91.0000       0.00000    
         3       773   F  0.300000       91.0000       180.000    
         3       777   F  0.300000       91.0000       0.00000    
         3       781   F  0.300000       91.0000       180.000    
         3       785   F  0.350000       110.900       91.0000    
         3       789   F  0.350000       110.900       269.000    
         3       793   F  0.350000       110.900       91.0000    
         3       797   F  0.350000       110.900       269.000    
         3       801   F  0.300000       91.0000       0.00000    
         3       805   F  0.300000       91.0000       180.000    
         3       809   F  0.300000       91.0000       0.00000    
         3       813   F  0.300000       91.0000       180.000    
         3       817   F  0.350000       110.900       91.0000    
         3       821   F  0.350000       110.900       269.000    
         3       825   F  0.350000       110.900       91.0000    
         3       829   F  0.350000       110.900       269.000    
         3       833   F  0.300000       91.0000       0.00000    
         3       837   F  0.300000       91.0000       180.000    
         3       841   F  0.300000       91.0000       0.00000    
         3       845   F  0.300000       91.0000       180.000    
         3       849   F  0.350000       110.900       91.0000    
         3       853   F  0.350000       110.900       269.000    
         3       857   F  0.350000       110.900       91.0000    
         3       861   F  0.350000       110.900       269.000    
         3       865   F  0.300000       91.0000       0.00000    
         3       869   F  0.300000       91.0000       180.000    
         3       873   F  0.300000       91.0000       0.00000    
         3       877   F  0.300000       91.0000       180.000    
         3       881   F  0.350000       110.900       91.0000    
         3       885   F  0.350000       110.900       269.000    
         3       889   F  0.350000       110.900       91.0000    
         3       893   F  0.350000       110.900       269.000    
         3       897   F  0.300000       91.0000       0.00000    
         3       901   F  0.300000       91.0000       180.000    
         3       905   F  0.300000       91.0000       0.00000    
         3       909   F  0.300000       91.0000       180.000    
         3       913   F  0.350000       110.900       91.0000    
         3       917   F  0.350000       110.900       269.000    
         3       921   F  0.350000       110.900       91.0000    
         3       925   F  0.350000       110.900       269.000    
         3       929   F  0.300000       91.0000       0.00000    
         3       933   F  0.300000       91.0000       180.000    
         3       937   F  0.300000       91.0000       0.00000    
         3       941   F  0.300000       91.0000       180.000    
         3       945   F  0.350000       110.900       91.0000    
         3       949   F  0.350000       110.900       269.000    
         3       953   F  0.350000       110.900       91.0000    
         3       957   F  0.350000       110.900       269.000    
         3       961   F  0.300000       91.0000       0.00000    
         3       965   F  0.300000       91.0000       180.000    
         3       969   F  0.300000       91.0000       0.00000    
         3       973   F  0.300000       91.0000       180.000    
         3       977   F  0.350000       110.900       91.0000    
         3       981   F  0.350000       110.900       269.000    
         3       985   F  0.350000       110.900       91.0000    
         3       989   F  0.350000       110.900       269.000    
         3       993   F  0.300000       91.0000       0.00000    
         3       997   F  0.300000       91.0000       180.000    
         3      1001   F  0.300000       91.0000       0.00000    
         3      1005   F  0.300000       91.0000       180.000    
         3      1009   F  0.350000       110.900       91.0000    
         3      1013   F  0.350000       110.900       269.000    
         3      1017   F  0.350000       110.900       91.0000    
         3      1021   F  0.350000       110.900       269.000    
         3      1025   F  0.300000       91.0000       0.00000    
         3      1029   F  0.300000       91.0000       180.000    
         3      1033   F  0.300000       91.0000       0.00000    
         3      1037   F  0.300000       91.0000       180.000    
         3      1041   F  0.350000       110.900       91.0000    
         3      1045   F  0.350000       110.900       269.000    
         3      1049   F  0.350000       110.900       91.0000    
         3      1053   F  0.350000       110.900       269.000    
         3      1057   F  0.300000       91.0000       0.00000    
         3      1061   F  0.300000       91.0000       180.000    
         3      1065   F  0.300000       91.0000       0.00000    
         3      1069   F  0.300000       91.0000       180.000    
         3      1073   F  0.350000       110.900       91.0000    
         3      1077   F  0.350000       110.900       269.000    
         3      1081   F  0.350000       110.900       91.0000    
         3      1085   F  0.350000       110.900       269.000    
         3      1089   F  0.300000       91.0000       0.00000    
         3      1093   F  0.300000       91.0000       180.000    
         3      1097   F  0.300000       91.0000       0.00000    
         3      1101   F  0.300000       91.0000       180.000    
         3      1105   F  0.350000       110.900       91.0000    
         3      1109   F  0.350000       110.900       269.000    
         3      1113   F  0.350000       110.900       91.0000    
         3      1117   F  0.350000       110.900       269.000    
         3      1121   F  0.300000       91.0000       0.00000    
         3      1125   F  0.300000       91.0000       180.000    
         3      1129   F  0.300000       91.0000       0.00000    
         3      1133   F  0.300000       91.0000       180.000    
         3      1137   F  0.350000       110.900       91.0000    
         3      1141   F  0.350000       110.900       269.000    
         3      1145   F  0.350000       110.900       91.0000    
         3      1149   F  0.350000       110.900       269.000    
         3      1153   F  0.300000       91.0000       0.00000    
         3      1157   F  0.300000       91.0000       180.000    
         3      1161   F  0.300000       91.0000       0.00000    
         3      1165   F  0.300000       91.0000       180.000    
         3      1169   F  0.350000       110.900       91.0000    
         3      1173   F  0.350000       110.900       269.000    
         3      1177   F  0.350000       110.900       91.0000    
         3      1181   F  0.350000       110.900       269.000    
         3      1185   F  0.300000       91.0000       0.00000    
         3      1189   F  0.300000       91.0000       180.000    
         3      1193   F  0.300000       91.0000       0.00000    
         3      1197   F  0.300000       91.0000       180.000    
         3      1201   F  0.350000       110.900       91.0000    
         3      1205   F  0.350000       110.900       269.000    
         3      1209   F  0.350000       110.900       91.0000    
         3      1213   F  0.350000       110.900       269.000    
         3      1217   F  0.300000       91.0000       0.00000    
         3      1221   F  0.300000       91.0000       180.000    
         3      1225   F  0.300000       91.0000       0.00000    
         3      1229   F  0.300000       91.0000       180.000    
         3      1233   F  0.350000       110.900       91.0000    
         3      1237   F  0.350000       110.900       269.000    
         3      1241   F  0.350000       110.900       91.0000    
         3      1245   F  0.350000       110.900       269.000    
         3      1249   F  0.300000       91.0000       0.00000    
         3      1253   F  0.300000       91.0000       180.000    
         3      1257   F  0.300000       91.0000       0.00000    
         3      1261   F  0.300000       91.0000       180.000    
         3      1265   F  0.350000       110.900       91.0000    
         3      1269   F  0.350000       110.900       269.000    
         3      1273   F  0.350000       110.900       91.0000    
         3      1277   F  0.350000       110.900       269.000    
         3      1281   F  0.300000       91.0000       0.00000    
         3      1285   F  0.300000       91.0000       180.000    
         3      1289   F  0.300000       91.0000       0.00000    
         3      1293   F  0.300000       91.0000       180.000    
         3      1297   F  0.350000       110.900       91.0000    
         3      1301   F  0.350000       110.900       269.000    
         3      1305   F  0.350000       110.900       91.0000    
         3      1309   F  0.350000       110.900       269.000    
         3      1313   F  0.300000       91.0000       0.00000    
         3      1317   F  0.300000       91.0000       180.000    
         3      1321   F  0.300000       91.0000       0.00000    
         3      1325   F  0.300000       91.0000       180.000    
         3      1329   F  0.350000       110.900       91.0000    
         3      1333   F  0.350000       110.900       269.000    
         3      1337   F  0.350000       110.900       91.0000    
         3      1341   F  0.350000       110.900       269.000    
         3      1345   F  0.300000       91.0000       0.00000    
         3      1349   F  0.300000       91.0000       180.000    
         3      1353   F  0.300000       91.0000       0.00000    
         3      1357   F  0.300000       91.0000       180.000    
         3      1361   F  0.350000       110.900       91.0000    
         3      1365   F  0.350000       110.900       269.000    
         3      1369   F  0.350000       110.900       91.0000    
         3      1373   F  0.350000       110.900       269.000    
         3      1377   F  0.300000       91.0000       0.00000    
         3      1381   F  0.300000       91.0000       180.000    
         3      1385   F  0.300000       91.0000       0.00000    
         3      1389   F  0.300000       91.0000       180.000    
         3      1393   F  0.350000       110.900       91.0000    
         3      1397   F  0.350000       110.900       269.000    
         3      1401   F  0.350000       110.900       91.0000    
         3      1405   F  0.350000       110.900       269.000    
         3      1409   F  0.300000       91.0000       0.00000    
         3      1413   F  0.300000       91.0000       180.000    
         3      1417   F  0.300000       91.0000       0.00000    
         3      1421   F  0.300000       91.0000       180.000    
         3      1425   F  0.350000       110.900       91.0000    
         3      1429   F  0.350000       110.900       269.000    
         3      1433   F  0.350000       110.900       91.0000    
         3      1437   F  0.350000       110.900       269.000    
         3      1441   F  0.300000       91.0000       0.00000    
         3      1445   F  0.300000       91.0000       180.000    
         3      1449   F  0.300000       91.0000       0.00000    
         3      1453   F  0.300000       91.0000       180.000    
         3      1457   F  0.350000       110.900       91.0000    
         3      1461   F  0.350000       110.900       269.000    
         3      1465   F  0.350000       110.900       91.0000    
         3      1469   F  0.350000       110.900       269.000    
         3      1473   F  0.300000       91.0000       0.00000    
         3      1477   F  0.300000       91.0000       180.000    
         3      1481   F  0.300000       91.0000       0.00000    
         3      1485   F  0.300000       91.0000       180.000    
         3      1489   F  0.350000       110.900       91.0000    
         3      1493   F  0.350000       110.900       269.000    
         3      1497   F  0.350000       110.900       91.0000    
         3      1501   F  0.350000       110.900       269.000    
         3      1505   F  0.300000       91.0000       0.00000    
         3      1509   F  0.300000       91.0000       180.000    
         3      1513   F  0.300000       91.0000       0.00000    
         3      1517   F  0.300000       91.0000       180.000    
         3      1521   F  0.350000       110.900       91.0000    
         3      1525   F  0.350000       110.900       269.000    
         3      1529   F  0.350000       110.900       91.0000    
         3      1533   F  0.350000       110.900       269.000    
         3      1537   F  0.300000       91.0000       0.00000    
         3      1541   F  0.300000       91.0000       180.000    
         3      1545   F  0.300000       91.0000       0.00000    
         3      1549   F  0.300000       91.0000       180.000    
         3      1553   F  0.350000       110.900       91.0000    
         3      1557   F  0.350000       110.900       269.000    
         3      1561   F  0.350000       110.900       91.0000    
         3      1565   F  0.350000       110.900       269.000    
         3      1569   F  0.300000       91.0000       0.00000    
         3      1573   F  0.300000       91.0000       180.000    
         3      1577   F  0.300000       91.0000       0.00000    
         3      1581   F  0.300000       91.0000       180.000    
         3      1585   F  0.350000       110.900       91.0000    
         3      1589   F  0.350000       110.900       269.000    
         3      1593   F  0.350000       110.900       91.0000    
         3      1597   F  0.350000       110.900       269.000    
         3      1601   F  0.300000       91.0000       0.00000    
         3      1605   F  0.300000       91.0000       180.000    
         3      1609   F  0.300000       91.0000       0.00000    
         3      1613   F  0.300000       91.0000       180.000    
         3      1617   F  0.350000       110.900       91.0000    
         3      1621   F  0.350000       110.900       269.000    
         3      1625   F  0.350000       110.900       91.0000    
         3      1629   F  0.350000       110.900       269.000    
         3      1633   F  0.300000       91.0000       0.00000    
         3      1637   F  0.300000       91.0000       180.000    
         3      1641   F  0.300000       91.0000       0.00000    
         3      1645   F  0.300000       91.0000       180.000    
         3      1649   F  0.350000       110.900       91.0000    
         3      1653   F  0.350000       110.900       269.000    
         3      1657   F  0.350000       110.900       91.0000    
         3      1661   F  0.350000       110.900       269.000    
         3      1665   F  0.300000       91.0000       0.00000    
         3      1669   F  0.300000       91.0000       180.000    
         3      1673   F  0.300000       91.0000       0.00000    
         3      1677   F  0.300000       91.0000       180.000    
         3      1681   F  0.350000       110.900       91.0000    
         3      1685   F  0.350000       110.900       269.000    
         3      1689   F  0.350000       110.900       91.0000    
         3      1693   F  0.350000       110.900       269.000    
         3      1697   F  0.300000       91.0000       0.00000    
         3      1701   F  0.300000       91.0000       180.000    
         3      1705   F  0.300000       91.0000       0.00000    
         3      1709   F  0.300000       91.0000       180.000    
         3      1713   F  0.350000       110.900       91.0000    
         3      1717   F  0.350000       110.900       269.000    
         3      1721   F  0.350000       110.900       91.0000    
         3      1725   F  0.350000       110.900       269.000    
         3      1729   F  0.300000       91.0000       0.00000    
         3      1733   F  0.300000       91.0000       180.000    
         3      1737   F  0.300000       91.0000       0.00000    
         3      1741   F  0.300000       91.0000       180.000    
         3      1745   F  0.350000       110.900       91.0000    
         3      1749   F  0.350000       110.900       269.000    
         3      1753   F  0.350000       110.900       91.0000    
         3      1757   F  0.350000       110.900       269.000    
         3      1761   F  0.300000       91.0000       0.00000    
         3      1765   F  0.300000       91.0000       180.000    
         3      1769   F  0.300000       91.0000       0.00000    
         3      1773   F  0.300000       91.0000       180.000    
         3      1777   F  0.350000       110.900       91.0000    
         3      1781   F  0.350000       110.900       269.000    
         3      1785   F  0.350000       110.900       91.0000    
         3      1789   F  0.350000       110.900       269.000    
         3      1793   F  0.300000       91.0000       0.00000    
         3      1797   F  0.300000       91.0000       180.000    
         3      1801   F  0.300000       91.0000       0.00000    
         3      1805   F  0.300000       91.0000       180.000    
         3      1809   F  0.350000       110.900       91.0000    
         3      1813   F  0.350000       110.900       269.000    
         3      1817   F  0.350000       110.900       91.0000    
         3      1821   F  0.350000       110.900       269.000    
         3      1825   F  0.300000       91.0000       0.00000    
         3      1829   F  0.300000       91.0000       180.000    
         3      1833   F  0.300000       91.0000       0.00000    
         3      1837   F  0.300000       91.0000       180.000    
         3      1841   F  0.350000       110.900       91.0000    
         3      1845   F  0.350000       110.900       269.000    
         3      1849   F  0.350000       110.900       91.0000    
         3      1853   F  0.350000       110.900       269.000    
         3      1857   F  0.300000       91.0000       0.00000    
         3      1861   F  0.300000       91.0000       180.000    
         3      1865   F  0.300000       91.0000       0.00000    
         3      1869   F  0.300000       91.0000       180.000    
         3      1873   F  0.350000       110.900       91.0000    
         3      1877   F  0.350000       110.900       269.000    
         3      1881   F  0.350000       110.900       91.0000    
         3      1885   F  0.350000       110.900       269.000    
         3      1889   F  0.300000       91.0000       0.00000    
         3      1893   F  0.300000       91.0000       180.000    
         3      1897   F  0.300000       91.0000       0.00000    
         3      1901   F  0.300000       91.0000       180.000    
         3      1905   F  0.350000       110.900       91.0000    
         3      1909   F  0.350000       110.900       269.000    
         3      1913   F  0.350000       110.900       91.0000    
         3      1917   F  0.350000       110.900       269.000    
         3      1921   F  0.300000       91.0000       0.00000    
         3      1925   F  0.300000       91.0000       180.000    
         3      1929   F  0.300000       91.0000       0.00000    
         3      1933   F  0.300000       91.0000       180.000    
         3      1937   F  0.350000       110.900       91.0000    
         3      1941   F  0.350000       110.900       269.000    
         3      1945   F  0.350000       110.900       91.0000    
         3      1949   F  0.350000       110.900       269.000    
         3      1953   F  0.300000       91.0000       0.00000    
         3      1957   F  0.300000       91.0000       180.000    
         3      1961   F  0.300000       91.0000       0.00000    
         3      1965   F  0.300000       91.0000       180.000    
         3      1969   F  0.350000       110.900       91.0000    
         3      1973   F  0.350000       110.900       269.000    
         3      1977   F  0.350000       110.900       91.0000    
         3      1981   F  0.350000       110.900       269.000    
         3      1985   F  0.300000       91.0000       0.00000    
         3      1989   F  0.300000       91.0000       180.000    
         3      1993   F  0.300000       91.0000       0.00000    
         3      1997   F  0.300000       91.0000       180.000    
         3      2001   F  0.350000       110.900       91.0000    
         3      2005   F  0.350000       110.900       269.000    
         3      2009   F  0.350000       110.900       91.0000    
         3      2013   F  0.350000       110.900       269.000    
         3      2017   F  0.300000       91.0000       0.00000    
         3      2021   F  0.300000       91.0000       180.000    
         3      2025   F  0.300000       91.0000       0.00000    
         3      2029   F  0.300000       91.0000       180.000    
         3      2033   F  0.350000       110.900       91.0000    
         3      2037   F  0.350000       110.900       269.000    
         3      2041   F  0.350000       110.900       91.0000    
         3      2045   F  0.350000       110.900       269.000    
         3      2049   F  0.300000       91.0000       0.00000    
         3      2053   F  0.300000       91.0000       180.000    
         3      2057   F  0.300000       91.0000       0.00000    
         3      2061   F  0.300000       91.0000       180.000    
         3      2065   F  0.350000       110.900       91.0000    
         3      2069   F  0.350000       110.900       269.000    
         3      2073   F  0.350000       110.900       91.0000    
         3      2077   F  0.350000       110.900       269.000    
         3      2081   F  0.300000       91.0000       0.00000    
         3      2085   F  0.300000       91.0000       180.000    
         3      2089   F  0.300000       91.0000       0.00000    
         3      2093   F  0.300000       91.0000       180.000    
         3      2097   F  0.350000       110.900       91.0000    
         3      2101   F  0.350000       110.900       269.000    
         3      2105   F  0.350000       110.900       91.0000    
         3      2109   F  0.350000       110.900       269.000    
         3      2113   F  0.300000       91.0000       0.00000    
         3      2117   F  0.300000       91.0000       180.000    
         3      2121   F  0.300000       91.0000       0.00000    
         3      2125   F  0.300000       91.0000       180.000    
         3      2129   F  0.350000       110.900       91.0000    
         3      2133   F  0.350000       110.900       269.000    
         3      2137   F  0.350000       110.900       91.0000    
         3      2141   F  0.350000       110.900       269.000    
         3      2145   F  0.300000       91.0000       0.00000    
         3      2149   F  0.300000       91.0000       180.000    
         3      2153   F  0.300000       91.0000       0.00000    
         3      2157   F  0.300000       91.0000       180.000    
         3      2161   F  0.350000       110.900       91.0000    
         3      2165   F  0.350000       110.900       269.000    
         3      2169   F  0.350000       110.900       91.0000    
         3      2173   F  0.350000       110.900       269.000    
         3      2177   F  0.300000       91.0000       0.00000    
         3      2181   F  0.300000       91.0000       180.000    
         3      2185   F  0.300000       91.0000       0.00000    
         3      2189   F  0.300000       91.0000       180.000    
         3      2193   F  0.350000       110.900       91.0000    
         3      2197   F  0.350000       110.900       269.000    
         3      2201   F  0.350000       110.900       91.0000    
         3      2205   F  0.350000       110.900       269.000    
         3      2209   F  0.300000       91.0000       0.00000    
         3      2213   F  0.300000       91.0000       180.000    
         3      2217   F  0.300000       91.0000       0.00000    
         3      2221   F  0.300000       91.0000       180.000    
         3      2225   F  0.350000       110.900       91.0000    
         3      2229   F  0.350000       110.900       269.000    
         3      2233   F  0.350000       110.900       91.0000    
         3      2237   F  0.350000       110.900       269.000    
         3      2241   F  0.300000       91.0000       0.00000    
         3      2245   F  0.300000       91.0000       180.000    
         3      2249   F  0.300000       91.0000       0.00000    
         3      2253   F  0.300000       91.0000       180.000    
         3      2257   F  0.350000       110.900       91.0000    
         3      2261   F  0.350000       110.900       269.000    
         3      2265   F  0.350000       110.900       91.0000    
         3      2269   F  0.350000       110.900       269.000    
         3      2273   F  0.300000       91.0000       0.00000    
         3      2277   F  0.300000       91.0000       180.000    
         3      2281   F  0.300000       91.0000       0.00000    
         3      2285   F  0.300000       91.0000       180.000    
         3      2289   F  0.350000       110.900       91.0000    
         3      2293   F  0.350000       110.900       269.000    
         3      2297   F  0.350000       110.900       91.0000    
         3      2301   F  0.350000       110.900       269.000    
         3      2305   F  0.300000       91.0000       0.00000    
         3      2309   F  0.300000       91.0000       180.000    
         3      2313   F  0.300000       91.0000       0.00000    
         3      2317   F  0.300000       91.0000       180.000    
         3      2321   F  0.350000       110.900       91.0000    
         3      2325   F  0.350000       110.900       269.000    
         3      2329   F  0.350000       110.900       91.0000    
         3      2333   F  0.350000       110.900       269.000    
         3      2337   F  0.300000       91.0000       0.00000    
         3      2341   F  0.300000       91.0000       180.000    
         3      2345   F  0.300000       91.0000       0.00000    
         3      2349   F  0.300000       91.0000       180.000    
         3      2353   F  0.350000       110.900       91.0000    
         3      2357   F  0.350000       110.900       269.000    
         3      2361   F  0.350000       110.900       91.0000    
         3      2365   F  0.350000       110.900       269.000    
         3      2369   F  0.300000       91.0000       0.00000    
         3      2373   F  0.300000       91.0000       180.000    
         3      2377   F  0.300000       91.0000       0.00000    
         3      2381   F  0.300000       91.0000       180.000    
         3      2385   F  0.350000       110.900       91.0000    
         3      2389   F  0.350000       110.900       269.000    
         3      2393   F  0.350000       110.900       91.0000    
         3      2397   F  0.350000       110.900       269.000    
         3      2401   F  0.300000       91.0000       0.00000    
         3      2405   F  0.300000       91.0000       180.000    
         3      2409   F  0.300000       91.0000       0.00000    
         3      2413   F  0.300000       91.0000       180.000    
         3      2417   F  0.350000       110.900       91.0000    
         3      2421   F  0.350000       110.900       269.000    
         3      2425   F  0.350000       110.900       91.0000    
         3      2429   F  0.350000       110.900       269.000    
         3      2433   F  0.300000       91.0000       0.00000    
         3      2437   F  0.300000       91.0000       180.000    
         3      2441   F  0.300000       91.0000       0.00000    
         3      2445   F  0.300000       91.0000       180.000    
         3      2449   F  0.350000       110.900       91.0000    
         3      2453   F  0.350000       110.900       269.000    
         3      2457   F  0.350000       110.900       91.0000    
         3      2461   F  0.350000       110.900       269.000    
         3      2465   F  0.300000       91.0000       0.00000    
         3      2469   F  0.300000       91.0000       180.000    
         3      2473   F  0.300000       91.0000       0.00000    
         3      2477   F  0.300000       91.0000       180.000    
         3      2481   F  0.350000       110.900       91.0000    
         3      2485   F  0.350000       110.900       269.000    
         3      2489   F  0.350000       110.900       91.0000    
         3      2493   F  0.350000       110.900       269.000    
         3      2497   F  0.300000       91.0000       0.00000    
         3      2501   F  0.300000       91.0000       180.000    
         3      2505   F  0.300000       91.0000       0.00000    
         3      2509   F  0.300000       91.0000       180.000    
         3      2513   F  0.350000       110.900       91.0000    
         3      2517   F  0.350000       110.900       269.000    
         3      2521   F  0.350000       110.900       91.0000    
         3      2525   F  0.350000       110.900       269.000    
         3      2529   F  0.300000       91.0000       0.00000    
         3      2533   F  0.300000       91.0000       180.000    
         3      2537   F  0.300000       91.0000       0.00000    
         3      2541   F  0.300000       91.0000       180.000    
         3      2545   F  0.350000       110.900       91.0000    
         3      2549   F  0.350000       110.900       269.000    
         3      2553   F  0.350000       110.900       91.0000    
         3      2557   F  0.350000       110.900       269.000    
         3      2561   F  0.300000       91.0000       0.00000    
         3      2565   F  0.300000       91.0000       180.000    
         3      2569   F  0.300000       91.0000       0.00000    
         3      2573   F  0.300000       91.0000       180.000    
         3      2577   F  0.350000       110.900       91.0000    
         3      2581   F  0.350000       110.900       269.000    
         3      2585   F  0.350000       110.900       91.0000    
         3      2589   F  0.350000       110.900       269.000    
         3      2593   F  0.300000       91.0000       0.00000    
         3      2597   F  0.300000       91.0000       180.000    
         3      2601   F  0.300000       91.0000       0.00000    
         3      2605   F  0.300000       91.0000       180.000    
         3      2609   F  0.350000       110.900       91.0000    
         3      2613   F  0.350000       110.900       269.000    
         3      2617   F  0.350000       110.900       91.0000    
         3      2621   F  0.350000       110.900       269.000    
         3      2625   F  0.300000       91.0000       0.00000    
         3      2629   F  0.300000       91.0000       180.000    
         3      2633   F  0.300000       91.0000       0.00000    
         3      2637   F  0.300000       91.0000       180.000    
         3      2641   F  0.350000       110.900       91.0000    
         3      2645   F  0.350000       110.900       269.000    
         3      2649   F  0.350000       110.900       91.0000    
         3      2653   F  0.350000       110.900       269.000    
         3      2657   F  0.300000       91.0000       0.00000    
         3      2661   F  0.300000       91.0000       180.000    
         3      2665   F  0.300000       91.0000       0.00000    
         3      2669   F  0.300000       91.0000       180.000    
         3      2673   F  0.350000       110.900       91.0000    
         3      2677   F  0.350000       110.900       269.000    
         3      2681   F  0.350000       110.900       91.0000    
         3      2685   F  0.350000       110.900       269.000    
         3      2689   F  0.300000       91.0000       0.00000    
         3      2693   F  0.300000       91.0000       180.000    
         3      2697   F  0.300000       91.0000       0.00000    
         3      2701   F  0.300000       91.0000       180.000    
         3      2705   F  0.350000       110.900       91.0000    
         3      2709   F  0.350000       110.900       269.000    
         3      2713   F  0.350000       110.900       91.0000    
         3      2717   F  0.350000       110.900       269.000    
         3      2721   F  0.300000       91.0000       0.00000    
         3      2725   F  0.300000       91.0000       180.000    
         3      2729   F  0.300000       91.0000       0.00000    
         3      2733   F  0.300000       91.0000       180.000    
         3      2737   F  0.350000       110.900       91.0000    
         3      2741   F  0.350000       110.900       269.000    
         3      2745   F  0.350000       110.900       91.0000    
         3      2749   F  0.350000       110.900       269.000    
         3      2753   F  0.300000       91.0000       0.00000    
         3      2757   F  0.300000       91.0000       180.000    
         3      2761   F  0.300000       91.0000       0.00000    
         3      2765   F  0.300000       91.0000       180.000    
         3      2769   F  0.350000       110.900       91.0000    
         3      2773   F  0.350000       110.900       269.000    
         3      2777   F  0.350000       110.900       91.0000    
         3      2781   F  0.350000       110.900       269.000    
         3      2785   F  0.300000       91.0000       0.00000    
         3      2789   F  0.300000       91.0000       180.000    
         3      2793   F  0.300000       91.0000       0.00000    
         3      2797   F  0.300000       91.0000       180.000    
         3      2801   F  0.350000       110.900       91.0000    
         3      2805   F  0.350000       110.900       269.000    
         3      2809   F  0.350000       110.900       91.0000    
         3      2813   F  0.350000       110.900       269.000    
         3      2817   F  0.300000       91.0000       0.00000    
         3      2821   F  0.300000       91.0000       180.000    
         3      2825   F  0.300000       91.0000       0.00000    
         3      2829   F  0.300000       91.0000       180.000    
         3      2833   F  0.350000       110.900       91.0000    
         3      2837   F  0.350000       110.900       269.000    
         3      2841   F  0.350000       110.900       91.0000    
         3      2845   F  0.350000       110.900       269.000    
         3      2849   F  0.300000       91.0000       0.00000    
         3      2853   F  0.300000       91.0000       180.000    
         3      2857   F  0.300000       91.0000       0.00000    
         3      2861   F  0.300000       91.0000       180.000    
         3      2865   F  0.350000       110.900       91.0000    
         3      2869   F  0.350000       110.900       269.000    
         3      2873   F  0.350000       110.900       91.0000    
         3      2877   F  0.350000       110.900       269.000    
         3      2881   F  0.300000       91.0000       0.00000    
         3      2885   F  0.300000       91.0000       180.000    
         3      2889   F  0.300000       91.0000       0.00000    
         3      2893   F  0.300000       91.0000       180.000    
         3      2897   F  0.350000       110.900       91.0000    
         3      2901   F  0.350000       110.900       269.000    
         3      2905   F  0.350000       110.900       91.0000    
         3      2909   F  0.350000       110.900       269.000    
         3      2913   F  0.300000       91.0000       0.00000    
         3      2917   F  0.300000       91.0000       180.000    
         3      2921   F  0.300000       91.0000       0.00000    
         3      2925   F  0.300000       91.0000       180.000    
         3      2929   F  0.350000       110.900       91.0000    
         3      2933   F  0.350000       110.900       269.000    
         3      2937   F  0.350000       110.900       91.0000    
         3      2941   F  0.350000       110.900       269.000    
         3      2945   F  0.300000       91.0000       0.00000    
         3      2949   F  0.300000       91.0000       180.000    
         3      2953   F  0.300000       91.0000       0.00000    
         3      2957   F  0.300000       91.0000       180.000    
         3      2961   F  0.350000       110.900       91.0000    
         3      2965   F  0.350000       110.900       269.000    
         3      2969   F  0.350000       110.900       91.0000    
         3      2973   F  0.350000       110.900       269.000    
         3      2977   F  0.300000       91.0000       0.00000    
         3      2981   F  0.300000       91.0000       180.000    
         3      2985   F  0.300000       91.0000       0.00000    
         3      2989   F  0.300000       91.0000       180.000    
         3      2993   F  0.350000       110.900       91.0000    
         3      2997   F  0.350000       110.900       269.000    
         3      3001   F  0.350000       110.900       91.0000    
         3      3005   F  0.350000       110.900       269.000    
         3      3009   F  0.300000       91.0000       0.00000    
         3      3013   F  0.300000       91.0000       180.000    
         3      3017   F  0.300000       91.0000       0.00000    
         3      3021   F  0.300000       91.0000       180.000    
         3      3025   F  0.350000       110.900       91.0000    
         3      3029   F  0.350000       110.900       269.000    
         3      3033   F  0.350000       110.900       91.0000    
         3      3037   F  0.350000       110.900       269.000    
         3      3041   F  0.300000       91.0000       0.00000    
         3      3045   F  0.300000       91.0000       180.000    
         3      3049   F  0.300000       91.0000       0.00000    
         3      3053   F  0.300000       91.0000       180.000    
         3      3057   F  0.350000       110.900       91.0000    
         3      3061   F  0.350000       110.900       269.000    
         3      3065   F  0.350000       110.900       91.0000    
         3      3069   F  0.350000       110.900       269.000    
         3      3073   F  0.300000       91.0000       0.00000    
         3      3077   F  0.300000       91.0000       180.000    
         3      3081   F  0.300000       91.0000       0.00000    
         3      3085   F  0.300000       91.0000       180.000    
         3      3089   F  0.350000       110.900       91.0000    
         3      3093   F  0.350000       110.900       269.000    
         3      3097   F  0.350000       110.900       91.0000    
         3      3101   F  0.350000       110.900       269.000    
         3      3105   F  0.300000       91.0000       0.00000    
         3      3109   F  0.300000       91.0000       180.000    
         3      3113   F  0.300000       91.0000       0.00000    
         3      3117   F  0.300000       91.0000       180.000    
         3      3121   F  0.350000       110.900       91.0000    
         3      3125   F  0.350000       110.900       269.000    
         3      3129   F  0.350000       110.900       91.0000    
         3      3133   F  0.350000       110.900       269.000    
         3      3137   F  0.300000       91.0000       0.00000    
         3      3141   F  0.300000       91.0000       180.000    
         3      3145   F  0.300000       91.0000       0.00000    
         3      3149   F  0.300000       91.0000       180.000    
         3      3153   F  0.350000       110.900       91.0000    
         3      3157   F  0.350000       110.900       269.000    
         3      3161   F  0.350000       110.900       91.0000    
         3      3165   F  0.350000       110.900       269.000    
         3      3169   F  0.300000       91.0000       0.00000    
         3      3173   F  0.300000       91.0000       180.000    
         3      3177   F  0.300000       91.0000       0.00000    
         3      3181   F  0.300000       91.0000       180.000    
         3      3185   F  0.350000       110.900       91.0000    
         3      3189   F  0.350000       110.900       269.000    
         3      3193   F  0.350000       110.900       91.0000    
         3      3197   F  0.350000       110.900       269.000    
         3      3201   F  0.300000       91.0000       0.00000    
         3      3205   F  0.300000       91.0000       180.000    
         3      3209   F  0.300000       91.0000       0.00000    
         3      3213   F  0.300000       91.0000       180.000    
         3      3217   F  0.350000       110.900       91.0000    
         3      3221   F  0.350000       110.900       269.000    
         3      3225   F  0.350000       110.900       91.0000    
         3      3229   F  0.350000       110.900       269.000    
         3      3233   F  0.300000       91.0000       0.00000    
         3      3237   F  0.300000       91.0000       180.000    
         3      3241   F  0.300000       91.0000       0.00000    
         3      3245   F  0.300000       91.0000       180.000    
         3      3249   F  0.350000       110.900       91.0000    
         3      3253   F  0.350000       110.900       269.000    
         3      3257   F  0.350000       110.900       91.0000    
         3      3261   F  0.350000       110.900       269.000    
         3      3265   F  0.300000       91.0000       0.00000    
         3      3269   F  0.300000       91.0000       180.000    
         3      3273   F  0.300000       91.0000       0.00000    
         3      3277   F  0.300000       91.0000       180.000    
         3      3281   F  0.350000       110.900       91.0000    
         3      3285   F  0.350000       110.900       269.000    
         3      3289   F  0.350000       110.900       91.0000    
         3      3293   F  0.350000       110.900       269.000    
         3      3297   F  0.300000       91.0000       0.00000    
         3      3301   F  0.300000       91.0000       180.000    
         3      3305   F  0.300000       91.0000       0.00000    
         3      3309   F  0.300000       91.0000       180.000    
         3      3313   F  0.350000       110.900       91.0000    
         3      3317   F  0.350000       110.900       269.000    
         3      3321   F  0.350000       110.900       91.0000    
         3      3325   F  0.350000       110.900       269.000    
         3      3329   F  0.300000       91.0000       0.00000    
         3      3333   F  0.300000       91.0000       180.000    
         3      3337   F  0.300000       91.0000       0.00000    
         3      3341   F  0.300000       91.0000       180.000    
         3      3345   F  0.350000       110.900       91.0000    
         3      3349   F  0.350000       110.900       269.000    
         3      3353   F  0.350000       110.900       91.0000    
         3      3357   F  0.350000       110.900       269.000    
         3      3361   F  0.300000       91.0000       0.00000    
         3      3365   F  0.300000       91.0000       180.000    
         3      3369   F  0.300000       91.0000       0.00000    
         3      3373   F  0.300000       91.0000       180.000    
         3      3377   F  0.350000       110.900       91.0000    
         3      3381   F  0.350000       110.900       269.000    
         3      3385   F  0.350000       110.900       91.0000    
         3      3389   F  0.350000       110.900       269.000    
         3      3393   F  0.300000       91.0000       0.00000    
         3      3397   F  0.300000       91.0000       180.000    
         3      3401   F  0.300000       91.0000       0.00000    
         3      3405   F  0.300000       91.0000       180.000    
         3      3409   F  0.350000       110.900       91.0000    
         3      3413   F  0.350000       110.900       269.000    
         3      3417   F  0.350000       110.900       91.0000    
         3      3421   F  0.350000       110.900       269.000    
         3      3425   F  0.300000       91.0000       0.00000    
         3      3429   F  0.300000       91.0000       180.000    
         3      3433   F  0.300000       91.0000       0.00000    
         3      3437   F  0.300000       91.0000       180.000    
         3      3441   F  0.350000       110.900       91.0000    
         3      3445   F  0.350000       110.900       269.000    
         3      3449   F  0.350000       110.900       91.0000    
         3      3453   F  0.350000       110.900       269.000    
         3      3457   F  0.300000       91.0000       0.00000    
         3      3461   F  0.300000       91.0000       180.000    
         3      3465   F  0.300000       91.0000       0.00000    
         3      3469   F  0.300000       91.0000       180.000    
         3      3473   F  0.350000       110.900       91.0000    
         3      3477   F  0.350000       110.900       269.000    
         3      3481   F  0.350000       110.900       91.0000    
         3      3485   F  0.350000       110.900       269.000    
         3      3489   F  0.300000       91.0000       0.00000    
         3      3493   F  0.300000       91.0000       180.000    
         3      3497   F  0.300000       91.0000       0.00000    
         3      3501   F  0.300000       91.0000       180.000    
         3      3505   F  0.350000       110.900       91.0000    
         3      3509   F  0.350000       110.900       269.000    
         3      3513   F  0.350000       110.900       91.0000    
         3      3517   F  0.350000       110.900       269.000    
         3      3521   F  0.300000       91.0000       0.00000    
         3      3525   F  0.300000       91.0000       180.000    
         3      3529   F  0.300000       91.0000       0.00000    
         3      3533   F  0.300000       91.0000       180.000    
         3      3537   F  0.350000       110.900       91.0000    
         3      3541   F  0.350000       110.900       269.000    
         3      3545   F  0.350000       110.900       91.0000    
         3      3549   F  0.350000       110.900       269.000    
         3      3553   F  0.300000       91.0000       0.00000    
         3      3557   F  0.300000       91.0000       180.000    
         3      3561   F  0.300000       91.0000       0.00000    
         3      3565   F  0.300000       91.0000       180.000    
         3      3569   F  0.350000       110.900       91.0000    
         3      3573   F  0.350000       110.900       269.000    
         3      3577   F  0.350000       110.900       91.0000    
         3      3581   F  0.350000       110.900       269.000    
         3      3585   F  0.300000       91.0000       0.00000    
         3      3589   F  0.300000       91.0000       180.000    
         3      3593   F  0.300000       91.0000       0.00000    
         3      3597   F  0.300000       91.0000       180.000    
         3      3601   F  0.350000       110.900       91.0000    
         3      3605   F  0.350000       110.900       269.000    
         3      3609   F  0.350000       110.900       91.0000    
         3      3613   F  0.350000       110.900       269.000    
         3      3617   F  0.300000       91.0000       0.00000    
         3      3621   F  0.300000       91.0000       180.000    
         3      3625   F  0.300000       91.0000       0.00000    
         3      3629   F  0.300000       91.0000       180.000    
         3      3633   F  0.350000       110.900       91.0000    
         3      3637   F  0.350000       110.900       269.000    
         3      3641   F  0.350000       110.900       91.0000    
         3      3645   F  0.350000       110.900       269.000    
         3      3649   F  0.300000       91.0000       0.00000    
         3      3653   F  0.300000       91.0000       180.000    
         3      3657   F  0.300000       91.0000       0.00000    
         3      3661   F  0.300000       91.0000       180.000    
         3      3665   F  0.350000       110.900       91.0000    
         3      3669   F  0.350000       110.900       269.000    
         3      3673   F  0.350000       110.900       91.0000    
         3      3677   F  0.350000       110.900       269.000    
         3      3681   F  0.300000       91.0000       0.00000    
         3      3685   F  0.300000       91.0000       180.000    
         3      3689   F  0.300000       91.0000       0.00000    
         3      3693   F  0.300000       91.0000       180.000    
         3      3697   F  0.350000       110.900       91.0000    
         3      3701   F  0.350000       110.900       269.000    
         3      3705   F  0.350000       110.900       91.0000    
         3      3709   F  0.350000       110.900       269.000    
         3      3713   F  0.300000       91.0000       0.00000    
         3      3717   F  0.300000       91.0000       180.000    
         3      3721   F  0.300000       91.0000       0.00000    
         3      3725   F  0.300000       91.0000       180.000    
         3      3729   F  0.350000       110.900       91.0000    
         3      3733   F  0.350000       110.900       269.000    
         3      3737   F  0.350000       110.900       91.0000    
         3      3741   F  0.350000       110.900       269.000    
         3      3745   F  0.300000       91.0000       0.00000    
         3      3749   F  0.300000       91.0000       180.000    
         3      3753   F  0.300000       91.0000       0.00000    
         3      3757   F  0.300000       91.0000       180.000    
         3      3761   F  0.350000       110.900       91.0000    
         3      3765   F  0.350000       110.900       269.000    
         3      3769   F  0.350000       110.900       91.0000    
         3      3773   F  0.350000       110.900       269.000    
         3      3777   F  0.300000       91.0000       0.00000    
         3      3781   F  0.300000       91.0000       180.000    
         3      3785   F  0.300000       91.0000       0.00000    
         3      3789   F  0.300000       91.0000       180.000    
         3      3793   F  0.350000       110.900       91.0000    
         3      3797   F  0.350000       110.900       269.000    
         3      3801   F  0.350000       110.900       91.0000    
         3      3805   F  0.350000       110.900       269.000    
         3      3809   F  0.300000       91.0000       0.00000    
         3      3813   F  0.300000       91.0000       180.000    
         3      3817   F  0.300000       91.0000       0.00000    
         3      3821   F  0.300000       91.0000       180.000    
         3      3825   F  0.350000       110.900       91.0000    
         3      3829   F  0.350000       110.900       269.000    
         3      3833   F  0.350000       110.900       91.0000    
         3      3837   F  0.350000       110.900       269.000    
         3      3841   F  0.300000       91.0000       0.00000    
         3      3845   F  0.300000       91.0000       180.000    
         3      3849   F  0.300000       91.0000       0.00000    
         3      3853   F  0.300000       91.0000       180.000    
         3      3857   F  0.350000       110.900       91.0000    
         3      3861   F  0.350000       110.900       269.000    
         3      3865   F  0.350000       110.900       91.0000    
         3      3869   F  0.350000       110.900       269.000    
         3      3873   F  0.300000       91.0000       0.00000    
         3      3877   F  0.300000       91.0000       180.000    
         3      3881   F  0.300000       91.0000       0.00000    
         3      3885   F  0.300000       91.0000       180.000    
         3      3889   F  0.350000       110.900       91.0000    
         3      3893   F  0.350000       110.900       269.000    
         3      3897   F  0.350000       110.900       91.0000    
         3      3901   F  0.350000       110.900       269.000    
         3      3905   F  0.300000       91.0000       0.00000    
         3      3909   F  0.300000       91.0000       180.000    
         3      3913   F  0.300000       91.0000       0.00000    
         3      3917   F  0.300000       91.0000       180.000    
         3      3921   F  0.350000       110.900       91.0000    
         3      3925   F  0.350000       110.900       269.000    
         3      3929   F  0.350000       110.900       91.0000    
         3      3933   F  0.350000       110.900       269.000    
         3      3937   F  0.300000       91.0000       0.00000    
         3      3941   F  0.300000       91.0000       180.000    
         3      3945   F  0.300000       91.0000       0.00000    
         3      3949   F  0.300000       91.0000       180.000    
         3      3953   F  0.350000       110.900       91.0000    
         3      3957   F  0.350000       110.900       269.000    
         3      3961   F  0.350000       110.900       91.0000    
         3      3965   F  0.350000       110.900       269.000    
         3      3969   F  0.300000       91.0000       0.00000    
         3      3973   F  0.300000       91.0000       180.000    
         3      3977   F  0.300000       91.0000       0.00000    
         3      3981   F  0.300000       91.0000       180.000    
         3      3985   F  0.350000       110.900       91.0000    
         3      3989   F  0.350000       110.900       269.000    
         3      3993   F  0.350000       110.900       91.0000    
         3      3997   F  0.350000       110.900       269.000    
         3      4001   F  0.300000       91.0000       0.00000    
         3      4005   F  0.300000       91.0000       180.000    
         3      4009   F  0.300000       91.0000       0.00000    
         3      4013   F  0.300000       91.0000       180.000    
         3      4017   F  0.350000       110.900       91.0000    
         3      4021   F  0.350000       110.900       269.000    
         3      4025   F  0.350000       110.900       91.0000    
         3      4029   F  0.350000       110.900       269.000    
         3      4033   F  0.300000       91.0000       0.00000    
         3      4037   F  0.300000       91.0000       180.000    
         3      4041   F  0.300000       91.0000       0.00000    
         3      4045   F  0.300000       91.0000       180.000    
         3      4049   F  0.350000       110.900       91.0000    
         3      4053   F  0.350000       110.900       269.000    
         3      4057   F  0.350000       110.900       91.0000    
         3      4061   F  0.350000       110.900       269.000    
         3      4065   F  0.300000       91.0000       0.00000    
         3      4069   F  0.300000       91.0000       180.000    
         3      4073   F  0.300000       91.0000       0.00000    
         3      4077   F  0.300000       91.0000       180.000    
         3      4081   F  0.350000       110.900       91.0000    
         3      4085   F  0.350000       110.900       269.000    
         3      4089   F  0.350000       110.900       91.0000    
         3      4093   F  0.350000       110.900       269.000    
         3      4097   F  0.300000       91.0000       0.00000    
         3      4101   F  0.300000       91.0000       180.000    
         3      4105   F  0.300000       91.0000       0.00000    
         3      4109   F  0.300000       91.0000       180.000    
         3      4113   F  0.350000       110.900       91.0000    
         3      4117   F  0.350000       110.900       269.000    
         3      4121   F  0.350000       110.900       91.0000    
         3      4125   F  0.350000       110.900       269.000    
         3      4129   F  0.300000       91.0000       0.00000    
         3      4133   F  0.300000       91.0000       180.000    
         3      4137   F  0.300000       91.0000       0.00000    
         3      4141   F  0.300000       91.0000       180.000    
         3      4145   F  0.350000       110.900       91.0000    
         3      4149   F  0.350000       110.900       269.000    
         3      4153   F  0.350000       110.900       91.0000    
         3      4157   F  0.350000       110.900       269.000    
         3      4161   F  0.300000       91.0000       0.00000    
         3      4165   F  0.300000       91.0000       180.000    
         3      4169   F  0.300000       91.0000       0.00000    
         3      4173   F  0.300000       91.0000       180.000    
         3      4177   F  0.350000       110.900       91.0000    
         3      4181   F  0.350000       110.900       269.000    
         3      4185   F  0.350000       110.900       91.0000    
         3      4189   F  0.350000       110.900       269.000    
         3      4193   F  0.300000       91.0000       0.00000    
         3      4197   F  0.300000       91.0000       180.000    
         3      4201   F  0.300000       91.0000       0.00000    
         3      4205   F  0.300000       91.0000       180.000    
         3      4209   F  0.350000       110.900       91.0000    
         3      4213   F  0.350000       110.900       269.000    
         3      4217   F  0.350000       110.900       91.0000    
         3      4221   F  0.350000       110.900       269.000    
         3      4225   F  0.300000       91.0000       0.00000    
         3      4229   F  0.300000       91.0000       180.000    
         3      4233   F  0.300000       91.0000       0.00000    
         3      4237   F  0.300000       91.0000       180.000    
         3      4241   F  0.350000       110.900       91.0000    
         3      4245   F  0.350000       110.900       269.000    
         3      4249   F  0.350000       110.900       91.0000    
         3      4253   F  0.350000       110.900       269.000    
         3      4257   F  0.300000       91.0000       0.00000    
         3      4261   F  0.300000       91.0000       180.000    
         3      4265   F  0.300000       91.0000       0.00000    
         3      4269   F  0.300000       91.0000       180.000    
         3      4273   F  0.350000       110.900       91.0000    
         3      4277   F  0.350000       110.900       269.000    
         3      4281   F  0.350000       110.900       91.0000    
         3      4285   F  0.350000       110.900       269.000    
         3      4289   F  0.300000       91.0000       0.00000    
         3      4293   F  0.300000       91.0000       180.000    
         3      4297   F  0.300000       91.0000       0.00000    
         3      4301   F  0.300000       91.0000       180.000    
         3      4305   F  0.350000       110.900       91.0000    
         3      4309   F  0.350000       110.900       269.000    
         3      4313   F  0.350000       110.900       91.0000    
         3      4317   F  0.350000       110.900       269.000    
         3      4321   F  0.300000       91.0000       0.00000    
         3      4325   F  0.300000       91.0000       180.000    
         3      4329   F  0.300000       91.0000       0.00000    
         3      4333   F  0.300000       91.0000       180.000    
         3      4337   F  0.350000       110.900       91.0000    
         3      4341   F  0.350000       110.900       269.000    
         3      4345   F  0.350000       110.900       91.0000    
         3      4349   F  0.350000       110.900       269.000    
         3      4353   F  0.300000       91.0000       0.00000    
         3      4357   F  0.300000       91.0000       180.000    
         3      4361   F  0.300000       91.0000       0.00000    
         3      4365   F  0.300000       91.0000       180.000    
         3      4369   F  0.350000       110.900       91.0000    
         3      4373   F  0.350000       110.900       269.000    
         3      4377   F  0.350000       110.900       91.0000    
         3      4381   F  0.350000       110.900       269.000    
         3      4385   F  0.300000       91.0000       0.00000    
         3      4389   F  0.300000       91.0000       180.000    
         3      4393   F  0.300000       91.0000       0.00000    
         3      4397   F  0.300000       91.0000       180.000    
         3      4401   F  0.350000       110.900       91.0000    
         3      4405   F  0.350000       110.900       269.000    
         3      4409   F  0.350000       110.900       91.0000    
         3      4413   F  0.350000       110.900       269.000    
         3      4417   F  0.300000       91.0000       0.00000    
         3      4421   F  0.300000       91.0000       180.000    
         3      4425   F  0.300000       91.0000       0.00000    
         3      4429   F  0.300000       91.0000       180.000    
         3      4433   F  0.350000       110.900       91.0000    
         3      4437   F  0.350000       110.900       269.000    
         3      4441   F  0.350000       110.900       91.0000    
         3      4445   F  0.350000       110.900       269.000    
         3      4449   F  0.300000       91.0000       0.00000    
         3      4453   F  0.300000       91.0000       180.000    
         3      4457   F  0.300000       91.0000       0.00000    
         3      4461   F  0.300000       91.0000       180.000    
         3      4465   F  0.350000       110.900       91.0000    
         3      4469   F  0.350000       110.900       269.000    
         3      4473   F  0.350000       110.900       91.0000    
         3      4477   F  0.350000       110.900       269.000    
         3      4481   F  0.300000       91.0000       0.00000    
         3      4485   F  0.300000       91.0000       180.000    
         3      4489   F  0.300000       91.0000       0.00000    
         3      4493   F  0.300000       91.0000       180.000    
         3      4497   F  0.350000       110.900       91.0000    
         3      4501   F  0.350000       110.900       269.000    
         3      4505   F  0.350000       110.900       91.0000    
         3      4509   F  0.350000       110.900       269.000    
         3      4513   F  0.300000       91.0000       0.00000    
         3      4517   F  0.300000       91.0000       180.000    
         3      4521   F  0.300000       91.0000       0.00000    
         3      4525   F  0.300000       91.0000       180.000    
         3      4529   F  0.350000       110.900       91.0000    
         3      4533   F  0.350000       110.900       269.000    
         3      4537   F  0.350000       110.900       91.0000    
         3      4541   F  0.350000       110.900       269.000    
         3      4545   F  0.300000       91.0000       0.00000    
         3      4549   F  0.300000       91.0000       180.000    
         3      4553   F  0.300000       91.0000       0.00000    
         3      4557   F  0.300000       91.0000       180.000    
         3      4561   F  0.350000       110.900       91.0000    
         3      4565   F  0.350000       110.900       269.000    
         3      4569   F  0.350000       110.900       91.0000    
         3      4573   F  0.350000       110.900       269.000    
         3      4577   F  0.300000       91.0000       0.00000    
         3      4581   F  0.300000       91.0000       180.000    
         3      4585   F  0.300000       91.0000       0.00000    
         3      4589   F  0.300000       91.0000       180.000    
         3      4593   F  0.350000       110.900       91.0000    
         3      4597   F  0.350000       110.900       269.000    
         3      4601   F  0.350000       110.900       91.0000    
         3      4605   F  0.350000       110.900       269.000    
         3      4609   F -0.240345       0.00000       0.00000    
         3      4613   F -0.240345       0.00000       0.00000    
         3      4617   F -0.240345       0.00000       0.00000    
         3      4621   F -0.240345       0.00000       0.00000    
         3      4625   F -0.240345       0.00000       0.00000    
         3      4629   F -0.240345       0.00000       0.00000    
         3      4633   F -0.240345       0.00000       0.00000    
         3      4637   F -0.240345       0.00000       0.00000    
         3      4641   F -0.240345       0.00000       0.00000    
         3      4645   F -0.240345       0.00000       0.00000    
         3      4649   F -0.240345       0.00000       0.00000    
         3      4653   F -0.240345       0.00000       0.00000    
         3      4657   F -0.240345       0.00000       0.00000    
         3      4661   F -0.240345       0.00000       0.00000    
         3      4665   F -0.240345       0.00000       0.00000    
         3      4669   F -0.240345       0.00000       0.00000    
         3      4673   F -0.240345       0.00000       0.00000    
         3      4677   F -0.240345       0.00000       0.00000    
         3      4681   F -0.240345       0.00000       0.00000    
         3      4685   F -0.240345       0.00000       0.00000    
         3      4689   F -0.240345       0.00000       0.00000    
         3      4693   F -0.240345       0.00000       0.00000    
         3      4697   F -0.240345       0.00000       0.00000    
         3      4701   F -0.240345       0.00000       0.00000    
         3      4705   F -0.240345       0.00000       0.00000    
         3      4709   F -0.240345       0.00000       0.00000    
         3      4713   F -0.240345       0.00000       0.00000    
         3      4717   F -0.240345       0.00000       0.00000    
         3      4721   F -0.240345       0.00000       0.00000    
         3      4725   F -0.240345       0.00000       0.00000    
         3      4729   F -0.240345       0.00000       0.00000    
         3      4733   F -0.240345       0.00000       0.00000    
         3      4737   F -0.240345       0.00000       0.00000    
         3      4741   F -0.240345       0.00000       0.00000    
         3      4745   F -0.240345       0.00000       0.00000    
         3      4749   F -0.240345       0.00000       0.00000    
         3      4753   F -0.240345       0.00000       0.00000    
         3      4757   F -0.240345       0.00000       0.00000    
         3      4761   F -0.240345       0.00000       0.00000    
         3      4765   F -0.240345       0.00000       0.00000    
         3      4769   F -0.240345       0.00000       0.00000    
         3      4773   F -0.240345       0.00000       0.00000    
         3      4777   F -0.240345       0.00000       0.00000    
         3      4781   F -0.240345       0.00000       0.00000    
         3      4785   F -0.240345       0.00000       0.00000    
         3      4789   F -0.240345       0.00000       0.00000    
         3      4793   F -0.240345       0.00000       0.00000    
         3      4797   F -0.240345       0.00000       0.00000    
         3      4801   F -0.240345       0.00000       0.00000    
         3      4805   F -0.240345       0.00000       0.00000    
         3      4809   F -0.240345       0.00000       0.00000    
         3      4813   F -0.240345       0.00000       0.00000    
         3      4817   F -0.240345       0.00000       0.00000    
         3      4821   F -0.240345       0.00000       0.00000    
         3      4825   F -0.240345       0.00000       0.00000    
         3      4829   F -0.240345       0.00000       0.00000    
         3      4833   F -0.240345       0.00000       0.00000    
         3      4837   F -0.240345       0.00000       0.00000    
         3      4841   F -0.240345       0.00000       0.00000    
         3      4845   F -0.240345       0.00000       0.00000    
         3      4849   F -0.240345       0.00000       0.00000    
         3      4853   F -0.240345       0.00000       0.00000    
         3      4857   F -0.240345       0.00000       0.00000    
         3      4861   F -0.240345       0.00000       0.00000    
         3      4865   F -0.240345       0.00000       0.00000    
         3      4869   F -0.240345       0.00000       0.00000    
         3      4873   F -0.240345       0.00000       0.00000    
         3      4877   F -0.240345       0.00000       0.00000    
         3      4881   F -0.240345       0.00000       0.00000    
         3      4885   F -0.240345       0.00000       0.00000    
         3      4889   F -0.240345       0.00000       0.00000    
         3      4893   F -0.240345       0.00000       0.00000    
         3      4897   F -0.240345       0.00000       0.00000    
         3      4901   F -0.240345       0.00000       0.00000    
         3      4905   F -0.240345       0.00000       0.00000    
         3      4909   F -0.240345       0.00000       0.00000    
         3      4913   F -0.240345       0.00000       0.00000    
         3      4917   F -0.240345       0.00000       0.00000    
         3      4921   F -0.240345       0.00000       0.00000    
         3      4925   F -0.240345       0.00000       0.00000    
         3      4929   F -0.240345       0.00000       0.00000    
         3      4933   F -0.240345       0.00000       0.00000    
         3      4937   F -0.240345       0.00000       0.00000    
         3      4941   F -0.240345       0.00000       0.00000    
         3      4945   F -0.240345       0.00000       0.00000    
         3      4949   F -0.240345       0.00000       0.00000    
         3      4953   F -0.240345       0.00000       0.00000    
         3      4957   F -0.240345       0.00000       0.00000    
         3      4961   F -0.240345       0.00000       0.00000    
         3      4965   F -0.240345       0.00000       0.00000    
         3      4969   F -0.240345       0.00000       0.00000    
         3      4973   F -0.240345       0.00000       0.00000    
         3      4977   F -0.240345       0.00000       0.00000    
         3      4981   F -0.240345       0.00000       0.00000    
         3      4985   F -0.240345       0.00000       0.00000    
         3      4989   F -0.240345       0.00000       0.00000    
         3      4993   F -0.240345       0.00000       0.00000    
         3      4997   F -0.240345       0.00000       0.00000    
         3      5001   F -0.240345       0.00000       0.00000    
         3      5005   F -0.240345       0.00000       0.00000    
         3      5009   F -0.240345       0.00000       0.00000    
         3      5013   F -0.240345       0.00000       0.00000    
         3      5017   F -0.240345       0.00000       0.00000    
         3      5021   F -0.240345       0.00000       0.00000    
         3      5025   F -0.240345       0.00000       0.00000    
         3      5029   F -0.240345       0.00000       0.00000    
         3      5033   F -0.240345       0.00000       0.00000    
         3      5037   F -0.240345       0.00000       0.00000    
         3      5041   F -0.240345       0.00000       0.00000    
         3      5045   F -0.240345       0.00000       0.00000    
         3      5049   F -0.240345       0.00000       0.00000    
         3      5053   F -0.240345       0.00000       0.00000    
         3      5057   F -0.240345       0.00000       0.00000    
         3      5061   F -0.240345       0.00000       0.00000    
         3      5065   F -0.240345       0.00000       0.00000    
         3      5069   F -0.240345       0.00000       0.00000    
         3      5073   F -0.240345       0.00000       0.00000    
         3      5077   F -0.240345       0.00000       0.00000    
         3      5081   F -0.240345       0.00000       0.00000    
         3      5085   F -0.240345       0.00000       0.00000    
         3      5089   F -0.240345       0.00000       0.00000    
         3      5093   F -0.240345       0.00000       0.00000    
         3      5097   F -0.240345       0.00000       0.00000    
         3      5101   F -0.240345       0.00000       0.00000    
         3      5105   F -0.240345       0.00000       0.00000    
         3      5109   F -0.240345       0.00000       0.00000    
         3      5113   F -0.240345       0.00000       0.00000    
         3      5117   F -0.240345       0.00000       0.00000    
         3      5121   F -0.240345       0.00000       0.00000    
         3      5125   F -0.240345       0.00000       0.00000    
         3      5129   F -0.240345       0.00000       0.00000    
         3      5133   F -0.240345       0.00000       0.00000    
         3      5137   F -0.240345       0.00000       0.00000    
         3      5141   F -0.240345       0.00000       0.00000    
         3      5145   F -0.240345       0.00000       0.00000    
         3      5149   F -0.240345       0.00000       0.00000    
         3      5153   F -0.240345       0.00000       0.00000    
         3      5157   F -0.240345       0.00000       0.00000    
         3      5161   F -0.240345       0.00000       0.00000    
         3      5165   F -0.240345       0.00000       0.00000    
         3      5169   F -0.240345       0.00000       0.00000    
         3      5173   F -0.240345       0.00000       0.00000    
         3      5177   F -0.240345       0.00000       0.00000    
         3      5181   F -0.240345       0.00000       0.00000    
         3      5185   F -0.240345       0.00000       0.00000    
         3      5189   F -0.240345       0.00000       0.00000    
         3      5193   F -0.240345       0.00000       0.00000    
         3      5197   F -0.240345       0.00000       0.00000    
         3      5201   F -0.240345       0.00000       0.00000    
         3      5205   F -0.240345       0.00000       0.00000    
         3      5209   F -0.240345       0.00000       0.00000    
         3      5213   F -0.240345       0.00000       0.00000    
         3      5217   F -0.240345       0.00000       0.00000    
         3      5221   F -0.240345       0.00000       0.00000    
         3      5225   F -0.240345       0.00000       0.00000    
         3      5229   F -0.240345       0.00000       0.00000    
         3      5233   F -0.240345       0.00000       0.00000    
         3      5237   F -0.240345       0.00000       0.00000    
         3      5241   F -0.240345       0.00000       0.00000    
         3      5245   F -0.240345       0.00000       0.00000    
         3      5249   F -0.240345       0.00000       0.00000    
         3      5253   F -0.240345       0.00000       0.00000    
         3      5257   F -0.240345       0.00000       0.00000    
         3      5261   F -0.240345       0.00000       0.00000    
         3      5265   F -0.240345       0.00000       0.00000    
         3      5269   F -0.240345       0.00000       0.00000    
         3      5273   F -0.240345       0.00000       0.00000    
         3      5277   F -0.240345       0.00000       0.00000    
         3      5281   F -0.240345       0.00000       0.00000    
         3      5285   F -0.240345       0.00000       0.00000    
         3      5289   F -0.240345       0.00000       0.00000    
         3      5293   F -0.240345       0.00000       0.00000    
         3      5297   F -0.240345       0.00000       0.00000    
         3      5301   F -0.240345       0.00000       0.00000    
         3      5305   F -0.240345       0.00000       0.00000    
         3      5309   F -0.240345       0.00000       0.00000    
         3      5313   F -0.240345       0.00000       0.00000    
         3      5317   F -0.240345       0.00000       0.00000    
         3      5321   F -0.240345       0.00000       0.00000    
         3      5325   F -0.240345       0.00000       0.00000    
         3      5329   F -0.240345       0.00000       0.00000    
         3      5333   F -0.240345       0.00000       0.00000    
         3      5337   F -0.240345       0.00000       0.00000    
         3      5341   F -0.240345       0.00000       0.00000    
         3      5345   F -0.240345       0.00000       0.00000    
         3      5349   F -0.240345       0.00000       0.00000    
         3      5353   F -0.240345       0.00000       0.00000    
         3      5357   F -0.240345       0.00000       0.00000    
         3      5361   F -0.240345       0.00000       0.00000    
         3      5365   F -0.240345       0.00000       0.00000    
         3      5369   F -0.240345       0.00000       0.00000    
         3      5373   F -0.240345       0.00000       0.00000    
         3      5377   F -0.240345       0.00000       0.00000    
         3      5381   F -0.240345       0.00000       0.00000    
         3      5385   F -0.240345       0.00000       0.00000    
         3      5389   F -0.240345       0.00000       0.00000    
         3      5393   F -0.240345       0.00000       0.00000    
         3      5397   F -0.240345       0.00000       0.00000    
         3      5401   F -0.240345       0.00000       0.00000    
         3      5405   F -0.240345       0.00000       0.00000    
         3      5409   F -0.240345       0.00000       0.00000    
         3      5413   F -0.240345       0.00000       0.00000    
         3      5417   F -0.240345       0.00000       0.00000    
         3      5421   F -0.240345       0.00000       0.00000    
         3      5425   F -0.240345       0.00000       0.00000    
         3      5429   F -0.240345       0.00000       0.00000    
         3      5433   F -0.240345       0.00000       0.00000    
         3      5437   F -0.240345       0.00000       0.00000    
         3      5441   F -0.240345       0.00000       0.00000    
         3      5445   F -0.240345       0.00000       0.00000    
         3      5449   F -0.240345       0.00000       0.00000    
         3      5453   F -0.240345       0.00000       0.00000    
         3      5457   F -0.240345       0.00000       0.00000    
         3      5461   F -0.240345       0.00000       0.00000    
         3      5465   F -0.240345       0.00000       0.00000    
         3      5469   F -0.240345       0.00000       0.00000    
         3      5473   F -0.240345       0.00000       0.00000    
         3      5477   F -0.240345       0.00000       0.00000    
         3      5481   F -0.240345       0.00000       0.00000    
         3      5485   F -0.240345       0.00000       0.00000    
         3      5489   F -0.240345       0.00000       0.00000    
         3      5493   F -0.240345       0.00000       0.00000    
         3      5497   F -0.240345       0.00000       0.00000    
         3      5501   F -0.240345       0.00000       0.00000    
         3      5505   F -0.240345       0.00000       0.00000    
         3      5509   F -0.240345       0.00000       0.00000    
         3      5513   F -0.240345       0.00000       0.00000    
         3      5517   F -0.240345       0.00000       0.00000    
         3      5521   F -0.240345       0.00000       0.00000    
         3      5525   F -0.240345       0.00000       0.00000    
         3      5529   F -0.240345       0.00000       0.00000    
         3      5533   F -0.240345       0.00000       0.00000    
         3      5537   F -0.240345       0.00000       0.00000    
         3      5541   F -0.240345       0.00000       0.00000    
         3      5545   F -0.240345       0.00000       0.00000    
         3      5549   F -0.240345       0.00000       0.00000    
         3      5553   F -0.240345       0.00000       0.00000    
         3      5557   F -0.240345       0.00000       0.00000    
         3      5561   F -0.240345       0.00000       0.00000    
         3      5565   F -0.240345       0.00000       0.00000    
         3      5569   F -0.240345       0.00000       0.00000    
         3      5573   F -0.240345       0.00000       0.00000    
         3      5577   F -0.240345       0.00000       0.00000    
         3      5581   F -0.240345       0.00000       0.00000    
         3      5585   F -0.240345       0.00000       0.00000    
         3      5589   F -0.240345       0.00000       0.00000    
         3      5593   F -0.240345       0.00000       0.00000    
         3      5597   F -0.240345       0.00000       0.00000    
         3      5601   F -0.240345       0.00000       0.00000    
         3      5605   F -0.240345       0.00000       0.00000    
         3      5609   F -0.240345       0.00000       0.00000    
         3      5613   F -0.240345       0.00000       0.00000    
         3      5617   F -0.240345       0.00000       0.00000    
         3      5621   F -0.240345       0.00000       0.00000    
         3      5625   F -0.240345       0.00000       0.00000    
         3      5629   F -0.240345       0.00000       0.00000    
         3      5633   F -0.240345       0.00000       0.00000    
         3      5637   F -0.240345       0.00000       0.00000    
         3      5641   F -0.240345       0.00000       0.00000    
         3      5645   F -0.240345       0.00000       0.00000    
         3      5649   F -0.240345       0.00000       0.00000    
         3      5653   F -0.240345       0.00000       0.00000    
         3      5657   F -0.240345       0.00000       0.00000    
         3      5661   F -0.240345       0.00000       0.00000    
         3      5665   F -0.240345       0.00000       0.00000    
         3      5669   F -0.240345       0.00000       0.00000    
         3      5673   F -0.240345       0.00000       0.00000    
         3      5677   F -0.240345       0.00000       0.00000    
         3      5681   F -0.240345       0.00000       0.00000    
         3      5685   F -0.240345       0.00000       0.00000    
         3      5689   F -0.240345       0.00000       0.00000    
         3      5693   F -0.240345       0.00000       0.00000    
         3      5697   F -0.240345       0.00000       0.00000    
         3      5701   F -0.240345       0.00000       0.00000    
         3      5705   F -0.240345       0.00000       0.00000    
         3      5709   F -0.240345       0.00000       0.00000    
         3      5713   F -0.240345       0.00000       0.00000    
         3      5717   F -0.240345       0.00000       0.00000    
         3      5721   F -0.240345       0.00000       0.00000    
         3      5725   F -0.240345       0.00000       0.00000    
         3      5729   F -0.240345       0.00000       0.00000    
         3      5733   F -0.240345       0.00000       0.00000    
         3      5737   F -0.240345       0.00000       0.00000    
         3      5741   F -0.240345       0.00000       0.00000    
         3      5745   F -0.240345       0.00000       0.00000    
         3      5749   F -0.240345       0.00000       0.00000    
         3      5753   F -0.240345       0.00000       0.00000    
         3      5757   F -0.240345       0.00000       0.00000    
         3      5761   F -0.240345       0.00000       0.00000    
         3      5765   F -0.240345       0.00000       0.00000    
         3      5769   F -0.240345       0.00000       0.00000    
         3      5773   F -0.240345       0.00000       0.00000    
         3      5777   F -0.240345       0.00000       0.00000    
         3      5781   F -0.240345       0.00000       0.00000    
         3      5785   F -0.240345       0.00000       0.00000    
         3      5789   F -0.240345       0.00000       0.00000    
         3      5793   F -0.240345       0.00000       0.00000    
         3      5797   F -0.240345       0.00000       0.00000    
         3      5801   F -0.240345       0.00000       0.00000    
         3      5805   F -0.240345       0.00000       0.00000    
         3      5809   F -0.240345       0.00000       0.00000    
         3      5813   F -0.240345       0.00000       0.00000    
         3      5817   F -0.240345       0.00000       0.00000    
         3      5821   F -0.240345       0.00000       0.00000    
         3      5825   F -0.240345       0.00000       0.00000    
         3      5829   F -0.240345       0.00000       0.00000    
         3      5833   F -0.240345       0.00000       0.00000    
         3      5837   F -0.240345       0.00000       0.00000    
         3      5841   F -0.240345       0.00000       0.00000    
         3      5845   F -0.240345       0.00000       0.00000    
         3      5849   F -0.240345       0.00000       0.00000    
         3      5853   F -0.240345       0.00000       0.00000    
         3      5857   F -0.240345       0.00000       0.00000    
         3      5861   F -0.240345       0.00000       0.00000    
         3      5865   F -0.240345       0.00000       0.00000    
         3      5869   F -0.240345       0.00000       0.00000    
         3      5873   F -0.240345       0.00000       0.00000    
         3      5877   F -0.240345       0.00000       0.00000    
         3      5881   F -0.240345       0.00000       0.00000    
         3      5885   F -0.240345       0.00000       0.00000    
         3      5889   F -0.240345       0.00000       0.00000    
         3      5893   F -0.240345       0.00000       0.00000    
         3      5897   F -0.240345       0.00000       0.00000    
         3      5901   F -0.240345       0.00000       0.00000    
         3      5905   F -0.240345       0.00000       0.00000    
         3      5909   F -0.240345       0.00000       0.00000    
         3      5913   F -0.240345       0.00000       0.00000    
         3      5917   F -0.240345       0.00000       0.00000    
         3      5921   F -0.240345       0.00000       0.00000    
         3      5925   F -0.240345       0.00000       0.00000    
         3      5929   F -0.240345       0.00000       0.00000    
         3      5933   F -0.240345       0.00000       0.00000    
         3      5937   F -0.240345       0.00000       0.00000    
         3      5941   F -0.240345       0.00000       0.00000    
         3      5945   F -0.240345       0.00000       0.00000    
         3      5949   F -0.240345       0.00000       0.00000    
         3      5953   F -0.240345       0.00000       0.00000    
         3      5957   F -0.240345       0.00000       0.00000    
         3      5961   F -0.240345       0.00000       0.00000    
         3      5965   F -0.240345       0.00000       0.00000    
         3      5969   F -0.240345       0.00000       0.00000    
         3      5973   F -0.240345       0.00000       0.00000    
         3      5977   F -0.240345       0.00000       0.00000    
         3      5981   F -0.240345       0.00000       0.00000    
         3      5985   F -0.240345       0.00000       0.00000    
         3      5989   F -0.240345       0.00000       0.00000    
         3      5993   F -0.240345       0.00000       0.00000    
         3      5997   F -0.240345       0.00000       0.00000    
         3      6001   F -0.240345       0.00000       0.00000    
         3      6005   F -0.240345       0.00000       0.00000    
         3      6009   F -0.240345       0.00000       0.00000    
         3      6013   F -0.240345       0.00000       0.00000    
         3      6017   F -0.240345       0.00000       0.00000    
         3      6021   F -0.240345       0.00000       0.00000    
         3      6025   F -0.240345       0.00000       0.00000    
         3      6029   F -0.240345       0.00000       0.00000    
         3      6033   F -0.240345       0.00000       0.00000    
         3      6037   F -0.240345       0.00000       0.00000    
         3      6041   F -0.240345       0.00000       0.00000    
         3      6045   F -0.240345       0.00000       0.00000    
         3      6049   F -0.240345       0.00000       0.00000    
         3      6053   F -0.240345       0.00000       0.00000    
         3      6057   F -0.240345       0.00000       0.00000    
         3      6061   F -0.240345       0.00000       0.00000    
         3      6065   F -0.240345       0.00000       0.00000    
         3      6069   F -0.240345       0.00000       0.00000    
         3      6073   F -0.240345       0.00000       0.00000    
         3      6077   F -0.240345       0.00000       0.00000    
         3      6081   F -0.240345       0.00000       0.00000    
         3      6085   F -0.240345       0.00000       0.00000    
         3      6089   F -0.240345       0.00000       0.00000    
         3      6093   F -0.240345       0.00000       0.00000    
         3      6097   F -0.240345       0.00000       0.00000    
         3      6101   F -0.240345       0.00000       0.00000    
         3      6105   F -0.240345       0.00000       0.00000    
         3      6109   F -0.240345       0.00000       0.00000    
         3      6113   F -0.240345       0.00000       0.00000    
         3      6117   F -0.240345       0.00000       0.00000    
         3      6121   F -0.240345       0.00000       0.00000    
         3      6125   F -0.240345       0.00000       0.00000    
         3      6129   F -0.240345       0.00000       0.00000    
         3      6133   F -0.240345       0.00000       0.00000    
         3      6137   F -0.240345       0.00000       0.00000    
         3      6141   F -0.240345       0.00000       0.00000    
         3      6145   F -0.240345       0.00000       0.00000    
         3      6149   F -0.240345       0.00000       0.00000    
         3      6153   F -0.240345       0.00000       0.00000    
         3      6157   F -0.240345       0.00000       0.00000    
         3      6161   F -0.240345       0.00000       0.00000    
         3      6165   F -0.240345       0.00000       0.00000    
         3      6169   F -0.240345       0.00000       0.00000    
         3      6173   F -0.240345       0.00000       0.00000    
         3      6177   F -0.240345       0.00000       0.00000    
         3      6181   F -0.240345       0.00000       0.00000    
         3      6185   F -0.240345       0.00000       0.00000    
         3      6189   F -0.240345       0.00000       0.00000    
         3      6193   F -0.240345       0.00000       0.00000    
         3      6197   F -0.240345       0.00000       0.00000    
         3      6201   F -0.240345       0.00000       0.00000    
         3      6205   F -0.240345       0.00000       0.00000    
         3      6209   F -0.240345       0.00000       0.00000    
         3      6213   F -0.240345       0.00000       0.00000    
         3      6217   F -0.240345       0.00000       0.00000    
         3      6221   F -0.240345       0.00000       0.00000    
         3      6225   F -0.240345       0.00000       0.00000    
         3      6229   F -0.240345       0.00000       0.00000    
         3      6233   F -0.240345       0.00000       0.00000    
         3      6237   F -0.240345       0.00000       0.00000    
         3      6241   F -0.240345       0.00000       0.00000    
         3      6245   F -0.240345       0.00000       0.00000    
         3      6249   F -0.240345       0.00000       0.00000    
         3      6253   F -0.240345       0.00000       0.00000    
         3      6257   F -0.240345       0.00000       0.00000    
         3      6261   F -0.240345       0.00000       0.00000    
         3      6265   F -0.240345       0.00000       0.00000    
         3      6269   F -0.240345       0.00000       0.00000    
         3      6273   F -0.240345       0.00000       0.00000    
         3      6277   F -0.240345       0.00000       0.00000    
         3      6281   F -0.240345       0.00000       0.00000    
         3      6285   F -0.240345       0.00000       0.00000    
         3      6289   F -0.240345       0.00000       0.00000    
         3      6293   F -0.240345       0.00000       0.00000    
         3      6297   F -0.240345       0.00000       0.00000    
         3      6301   F -0.240345       0.00000       0.00000    
         3      6305   F -0.240345       0.00000       0.00000    
         3      6309   F -0.240345       0.00000       0.00000    
         3      6313   F -0.240345       0.00000       0.00000    
         3      6317   F -0.240345       0.00000       0.00000    
         3      6321   F -0.240345       0.00000       0.00000    
         3      6325   F -0.240345       0.00000       0.00000    
         3      6329   F -0.240345       0.00000       0.00000    
         3      6333   F -0.240345       0.00000       0.00000    
         3      6337   F -0.240345       0.00000       0.00000    
         3      6341   F -0.240345       0.00000       0.00000    
         3      6345   F -0.240345       0.00000       0.00000    
         3      6349   F -0.240345       0.00000       0.00000    
         3      6353   F -0.240345       0.00000       0.00000    
         3      6357   F -0.240345       0.00000       0.00000    
         3      6361   F -0.240345       0.00000       0.00000    
         3      6365   F -0.240345       0.00000       0.00000    
         3      6369   F -0.240345       0.00000       0.00000    
         3      6373   F -0.240345       0.00000       0.00000    
         3      6377   F -0.240345       0.00000       0.00000    
         3      6381   F -0.240345       0.00000       0.00000    
         3      6385   F -0.240345       0.00000       0.00000    
         3      6389   F -0.240345       0.00000       0.00000    
         3      6393   F -0.240345       0.00000       0.00000    
         3      6397   F -0.240345       0.00000       0.00000    
         3      6401   F -0.240345       0.00000       0.00000    
         3      6405   F -0.240345       0.00000       0.00000    
         3      6409   F -0.240345       0.00000       0.00000    
         3      6413   F -0.240345       0.00000       0.00000    
         3      6417   F -0.240345       0.00000       0.00000    
         3      6421   F -0.240345       0.00000       0.00000    
         3      6425   F -0.240345       0.00000       0.00000    
         3      6429   F -0.240345       0.00000       0.00000    
         3      6433   F -0.240345       0.00000       0.00000    
         3      6437   F -0.240345       0.00000       0.00000    
         3      6441   F -0.240345       0.00000       0.00000    
         3      6445   F -0.240345       0.00000       0.00000    
         3      6449   F -0.240345       0.00000       0.00000    
         3      6453   F -0.240345       0.00000       0.00000    
         3      6457   F -0.240345       0.00000       0.00000    
         3      6461   F -0.240345       0.00000       0.00000    
         3      6465   F -0.240345       0.00000       0.00000    
         3      6469   F -0.240345       0.00000       0.00000    
         3      6473   F -0.240345       0.00000       0.00000    
         3      6477   F -0.240345       0.00000       0.00000    
         3      6481   F -0.240345       0.00000       0.00000    
         3      6485   F -0.240345       0.00000       0.00000    
         3      6489   F -0.240345       0.00000       0.00000    
         3      6493   F -0.240345       0.00000       0.00000    
         3      6497   F -0.240345       0.00000       0.00000    
         3      6501   F -0.240345       0.00000       0.00000    
         3      6505   F -0.240345       0.00000       0.00000    
         3      6509   F -0.240345       0.00000       0.00000    
         3      6513   F -0.240345       0.00000       0.00000    
         3      6517   F -0.240345       0.00000       0.00000    
         3      6521   F -0.240345       0.00000       0.00000    
         3      6525   F -0.240345       0.00000       0.00000    
         3      6529   F -0.240345       0.00000       0.00000    
         3      6533   F -0.240345       0.00000       0.00000    
         3      6537   F -0.240345       0.00000       0.00000    
         3      6541   F -0.240345       0.00000       0.00000    
         3      6545   F -0.240345       0.00000       0.00000    
         3      6549   F -0.240345       0.00000       0.00000    
         3      6553   F -0.240345       0.00000       0.00000    
         3      6557   F -0.240345       0.00000       0.00000    
         3      6561   F -0.240345       0.00000       0.00000    
         3      6565   F -0.240345       0.00000       0.00000    
         3      6569   F -0.240345       0.00000       0.00000    
         3      6573   F -0.240345       0.00000       0.00000    
         3      6577   F -0.240345       0.00000       0.00000    
         3      6581   F -0.240345       0.00000       0.00000    
         3      6585   F -0.240345       0.00000       0.00000    
         3      6589   F -0.240345       0.00000       0.00000    
         3      6593   F -0.240345       0.00000       0.00000    
         3      6597   F -0.240345       0.00000       0.00000    
         3      6601   F -0.240345       0.00000       0.00000    
         3      6605   F -0.240345       0.00000       0.00000    
         3      6609   F -0.240345       0.00000       0.00000    
         3      6613   F -0.240345       0.00000       0.00000    
         3      6617   F -0.240345       0.00000       0.00000    
         3      6621   F -0.240345       0.00000       0.00000    
         3      6625   F -0.240345       0.00000       0.00000    
         3      6629   F -0.240345       0.00000       0.00000    
         3      6633   F -0.240345       0.00000       0.00000    
         3      6637   F -0.240345       0.00000       0.00000    
         3      6641   F -0.240345       0.00000       0.00000    
         3      6645   F -0.240345       0.00000       0.00000    
         3      6649   F -0.240345       0.00000       0.00000    
         3      6653   F -0.240345       0.00000       0.00000    
         3      6657   F -0.240345       0.00000       0.00000    
         3      6661   F -0.240345       0.00000       0.00000    
         3      6665   F -0.240345       0.00000       0.00000    
         3      6669   F -0.240345       0.00000       0.00000    
         3      6673   F -0.240345       0.00000       0.00000    
         3      6677   F -0.240345       0.00000       0.00000    
         3      6681   F -0.240345       0.00000       0.00000    
         3      6685   F -0.240345       0.00000       0.00000    
         3      6689   F -0.240345       0.00000       0.00000    
         3      6693   F -0.240345       0.00000       0.00000    
         3      6697   F -0.240345       0.00000       0.00000    
         3      6701   F -0.240345       0.00000       0.00000    
         3      6705   F -0.240345       0.00000       0.00000    
         3      6709   F -0.240345       0.00000       0.00000    
         3      6713   F -0.240345       0.00000       0.00000    
         3      6717   F -0.240345       0.00000       0.00000    
         3      6721   F -0.240345       0.00000       0.00000    
         3      6725   F -0.240345       0.00000       0.00000    
         3      6729   F -0.240345       0.00000       0.00000    
         3      6733   F -0.240345       0.00000       0.00000    
         3      6737   F -0.240345       0.00000       0.00000    
         3      6741   F -0.240345       0.00000       0.00000    
         3      6745   F -0.240345       0.00000       0.00000    
         3      6749   F -0.240345       0.00000       0.00000    
         3      6753   F -0.240345       0.00000       0.00000    
         3      6757   F -0.240345       0.00000       0.00000    
         3      6761   F -0.240345       0.00000       0.00000    
         3      6765   F -0.240345       0.00000       0.00000    
         3      6769   F -0.240345       0.00000       0.00000    
         3      6773   F -0.240345       0.00000       0.00000    
         3      6777   F -0.240345       0.00000       0.00000    
         3      6781   F -0.240345       0.00000       0.00000    
         3      6785   F -0.240345       0.00000       0.00000    
         3      6789   F -0.240345       0.00000       0.00000    
         3      6793   F -0.240345       0.00000       0.00000    
         3      6797   F -0.240345       0.00000       0.00000    
         3      6801   F -0.240345       0.00000       0.00000    
         3      6805   F -0.240345       0.00000       0.00000    
         3      6809   F -0.240345       0.00000       0.00000    
         3      6813   F -0.240345       0.00000       0.00000    
         3      6817   F -0.240345       0.00000       0.00000    
         3      6821   F -0.240345       0.00000       0.00000    
         3      6825   F -0.240345       0.00000       0.00000    
         3      6829   F -0.240345       0.00000       0.00000    
         3      6833   F -0.240345       0.00000       0.00000    
         3      6837   F -0.240345       0.00000       0.00000    
         3      6841   F -0.240345       0.00000       0.00000    
         3      6845   F -0.240345       0.00000       0.00000    
         3      6849   F -0.240345       0.00000       0.00000    
         3      6853   F -0.240345       0.00000       0.00000    
         3      6857   F -0.240345       0.00000       0.00000    
         3      6861   F -0.240345       0.00000       0.00000    
         3      6865   F -0.240345       0.00000       0.00000    
         3      6869   F -0.240345       0.00000       0.00000    
         3      6873   F -0.240345       0.00000       0.00000    
         3      6877   F -0.240345       0.00000       0.00000    
         3      6881   F -0.240345       0.00000       0.00000    
         3      6885   F -0.240345       0.00000       0.00000    
         3      6889   F -0.240345       0.00000       0.00000    
         3      6893   F -0.240345       0.00000       0.00000    
         3      6897   F -0.240345       0.00000       0.00000    
         3      6901   F -0.240345       0.00000       0.00000    
         3      6905   F -0.240345       0.00000       0.00000    
         3      6909   F -0.240345       0.00000       0.00000    
         3      6913   F -0.240345       0.00000       0.00000    
         3      6917   F -0.240345       0.00000       0.00000    
         3      6921   F -0.240345       0.00000       0.00000    
         3      6925   F -0.240345       0.00000       0.00000    
         3      6929   F -0.240345       0.00000       0.00000    
         3      6933   F -0.240345       0.00000       0.00000    
         3      6937   F -0.240345       0.00000       0.00000    
         3      6941   F -0.240345       0.00000       0.00000    
         3      6945   F -0.240345       0.00000       0.00000    
         3      6949   F -0.240345       0.00000       0.00000    
         3      6953   F -0.240345       0.00000       0.00000    
         3      6957   F -0.240345       0.00000       0.00000    
         3      6961   F -0.240345       0.00000       0.00000    
         3      6965   F -0.240345       0.00000       0.00000    
         3      6969   F -0.240345       0.00000       0.00000    
         3      6973   F -0.240345       0.00000       0.00000    
         3      6977   F -0.240345       0.00000       0.00000    
         3      6981   F -0.240345       0.00000       0.00000    
         3      6985   F -0.240345       0.00000       0.00000    
         3      6989   F -0.240345       0.00000       0.00000    
         3      6993   F -0.240345       0.00000       0.00000    
         3      6997   F -0.240345       0.00000       0.00000    
         3      7001   F -0.240345       0.00000       0.00000    
         3      7005   F -0.240345       0.00000       0.00000    
         3      7009   F -0.240345       0.00000       0.00000    
         3      7013   F -0.240345       0.00000       0.00000    
         3      7017   F -0.240345       0.00000       0.00000    
         3      7021   F -0.240345       0.00000       0.00000    
         3      7025   F -0.240345       0.00000       0.00000    
         3      7029   F -0.240345       0.00000       0.00000    
         3      7033   F -0.240345       0.00000       0.00000    
         3      7037   F -0.240345       0.00000       0.00000    
         3      7041   F -0.240345       0.00000       0.00000    
         3      7045   F -0.240345       0.00000       0.00000    
         3      7049   F -0.240345       0.00000       0.00000    
         3      7053   F -0.240345       0.00000       0.00000    
         3      7057   F -0.240345       0.00000       0.00000    
         3      7061   F -0.240345       0.00000       0.00000    
         3      7065   F -0.240345       0.00000       0.00000    
         3      7069   F -0.240345       0.00000       0.00000    
         3      7073   F -0.240345       0.00000       0.00000    
         3      7077   F -0.240345       0.00000       0.00000    
         3      7081   F -0.240345       0.00000       0.00000    
         3      7085   F -0.240345       0.00000       0.00000    
         3      7089   F -0.240345       0.00000       0.00000    
         3      7093   F -0.240345       0.00000       0.00000    
         3      7097   F -0.240345       0.00000       0.00000    
         3      7101   F -0.240345       0.00000       0.00000    
         3      7105   F -0.240345       0.00000       0.00000    
         3      7109   F -0.240345       0.00000       0.00000    
         3      7113   F -0.240345       0.00000       0.00000    
         3      7117   F -0.240345       0.00000       0.00000    
         3      7121   F -0.240345       0.00000       0.00000    
         3      7125   F -0.240345       0.00000       0.00000    
         3      7129   F -0.240345       0.00000       0.00000    
         3      7133   F -0.240345       0.00000       0.00000    
         3      7137   F -0.240345       0.00000       0.00000    
         3      7141   F -0.240345       0.00000       0.00000    
         3      7145   F -0.240345       0.00000       0.00000    
         3      7149   F -0.240345       0.00000       0.00000    
         3      7153   F -0.240345       0.00000       0.00000    
         3      7157   F -0.240345       0.00000       0.00000    
         3      7161   F -0.240345       0.00000       0.00000    
         3      7165   F -0.240345       0.00000       0.00000    
         3      7169   F -0.240345       0.00000       0.00000    
         3      7173   F -0.240345       0.00000       0.00000    
         3      7177   F -0.240345       0.00000       0.00000    
         3      7181   F -0.240345       0.00000       0.00000    
         3      7185   F -0.240345       0.00000       0.00000    
         3      7189   F -0.240345       0.00000       0.00000    
         3      7193   F -0.240345       0.00000       0.00000    
         3      7197   F -0.240345       0.00000       0.00000    
         3      7201   F -0.240345       0.00000       0.00000    
         3      7205   F -0.240345       0.00000       0.00000    
         3      7209   F -0.240345       0.00000       0.00000    
         3      7213   F -0.240345       0.00000       0.00000    
         3      7217   F -0.240345       0.00000       0.00000    
         3      7221   F -0.240345       0.00000       0.00000    
         3      7225   F -0.240345       0.00000       0.00000    
         3      7229   F -0.240345       0.00000       0.00000    
         3      7233   F -0.240345       0.00000       0.00000    
         3      7237   F -0.240345       0.00000       0.00000    
         3      7241   F -0.240345       0.00000       0.00000    
         3      7245   F -0.240345       0.00000       0.00000    
         3      7249   F -0.240345       0.00000       0.00000    
         3      7253   F -0.240345       0.00000       0.00000    
         3      7257   F -0.240345       0.00000       0.00000    
         3      7261   F -0.240345       0.00000       0.00000    
         3      7265   F -0.240345       0.00000       0.00000    
         3      7269   F -0.240345       0.00000       0.00000    
         3      7273   F -0.240345       0.00000       0.00000    
         3      7277   F -0.240345       0.00000       0.00000    
         3      7281   F -0.240345       0.00000       0.00000    
         3      7285   F -0.240345       0.00000       0.00000    
         3      7289   F -0.240345       0.00000       0.00000    
         3      7293   F -0.240345       0.00000       0.00000    
         3      7297   F -0.240345       0.00000       0.00000    
         3      7301   F -0.240345       0.00000       0.00000    
         3      7305   F -0.240345       0.00000       0.00000    
         3      7309   F -0.240345       0.00000       0.00000    
         3      7313   F -0.240345       0.00000       0.00000    
         3      7317   F -0.240345       0.00000       0.00000    
         3      7321   F -0.240345       0.00000       0.00000    
         3      7325   F -0.240345       0.00000       0.00000    
         3      7329   F -0.240345       0.00000       0.00000    
         3      7333   F -0.240345       0.00000       0.00000    
         3      7337   F -0.240345       0.00000       0.00000    
         3      7341   F -0.240345       0.00000       0.00000    
         3      7345   F -0.240345       0.00000       0.00000    
         3      7349   F -0.240345       0.00000       0.00000    
         3      7353   F -0.240345       0.00000       0.00000    
         3      7357   F -0.240345       0.00000       0.00000    
         3      7361   F -0.240345       0.00000       0.00000    
         3      7365   F -0.240345       0.00000       0.00000    
         3      7369   F -0.240345       0.00000       0.00000    
         3      7373   F -0.240345       0.00000       0.00000    
         3      7377   F -0.240345       0.00000       0.00000    
         3      7381   F -0.240345       0.00000       0.00000    
         3      7385   F -0.240345       0.00000       0.00000    
         3      7389   F -0.240345       0.00000       0.00000    
         3      7393   F -0.240345       0.00000       0.00000    
         3      7397   F -0.240345       0.00000       0.00000    
         3      7401   F -0.240345       0.00000       0.00000    
         3      7405   F -0.240345       0.00000       0.00000    
         3      7409   F -0.240345       0.00000       0.00000    
         3      7413   F -0.240345       0.00000       0.00000    
         3      7417   F -0.240345       0.00000       0.00000    
         3      7421   F -0.240345       0.00000       0.00000    
         3      7425   F -0.240345       0.00000       0.00000    
         3      7429   F -0.240345       0.00000       0.00000    
         3      7433   F -0.240345       0.00000       0.00000    
         3      7437   F -0.240345       0.00000       0.00000    
         3      7441   F -0.240345       0.00000       0.00000    
         3      7445   F -0.240345       0.00000       0.00000    
         3      7449   F -0.240345       0.00000       0.00000    
         3      7453   F -0.240345       0.00000       0.00000    
         3      7457   F -0.240345       0.00000       0.00000    
         3      7461   F -0.240345       0.00000       0.00000    
         3      7465   F -0.240345       0.00000       0.00000    
         3      7469   F -0.240345       0.00000       0.00000    
         3      7473   F -0.240345       0.00000       0.00000    
         3      7477   F -0.240345       0.00000       0.00000    
         3      7481   F -0.240345       0.00000       0.00000    
         3      7485   F -0.240345       0.00000       0.00000    
         3      7489   F -0.240345       0.00000       0.00000    
         3      7493   F -0.240345       0.00000       0.00000    
         3      7497   F -0.240345       0.00000       0.00000    
         3      7501   F -0.240345       0.00000       0.00000    
         3      7505   F -0.240345       0.00000       0.00000    
         3      7509   F -0.240345       0.00000       0.00000    
         3      7513   F -0.240345       0.00000       0.00000    
         3      7517   F -0.240345       0.00000       0.00000    
         3      7521   F -0.240345       0.00000       0.00000    
         3      7525   F -0.240345       0.00000       0.00000    
         3      7529   F -0.240345       0.00000       0.00000    
         3      7533   F -0.240345       0.00000       0.00000    
         3      7537   F -0.240345       0.00000       0.00000    
         3      7541   F -0.240345       0.00000       0.00000    
         3      7545   F -0.240345       0.00000       0.00000    
         3      7549   F -0.240345       0.00000       0.00000    
         3      7553   F -0.240345       0.00000       0.00000    
         3      7557   F -0.240345       0.00000       0.00000    
         3      7561   F -0.240345       0.00000       0.00000    
         3      7565   F -0.240345       0.00000       0.00000    
         3      7569   F -0.240345       0.00000       0.00000    
         3      7573   F -0.240345       0.00000       0.00000    
         3      7577   F -0.240345       0.00000       0.00000    
         3      7581   F -0.240345       0.00000       0.00000    
         3      7585   F -0.240345       0.00000       0.00000    
         3      7589   F -0.240345       0.00000       0.00000    
         3      7593   F -0.240345       0.00000       0.00000    
         3      7597   F -0.240345       0.00000       0.00000    
         3      7601   F -0.240345       0.00000       0.00000    
         3      7605   F -0.240345       0.00000       0.00000    
         3      7609   F -0.240345       0.00000       0.00000    
         3      7613   F -0.240345       0.00000       0.00000    
         3      7617   F -0.240345       0.00000       0.00000    
         3      7621   F -0.240345       0.00000       0.00000    
         3      7625   F -0.240345       0.00000       0.00000    
         3      7629   F -0.240345       0.00000       0.00000    
         3      7633   F -0.240345       0.00000       0.00000    
         3      7637   F -0.240345       0.00000       0.00000    
         3      7641   F -0.240345       0.00000       0.00000    
         3      7645   F -0.240345       0.00000       0.00000    
         3      7649   F -0.240345       0.00000       0.00000    
         3      7653   F -0.240345       0.00000       0.00000    
         3      7657   F -0.240345       0.00000       0.00000    
         3      7661   F -0.240345       0.00000       0.00000    
         3      7665   F -0.240345       0.00000       0.00000    
         3      7669   F -0.240345       0.00000       0.00000    
         3      7673   F -0.240345       0.00000       0.00000    
         3      7677   F -0.240345       0.00000       0.00000    
         3      7681   F -0.240345       0.00000       0.00000    
         3      7685   F -0.240345       0.00000       0.00000    
         3      7689   F -0.240345       0.00000       0.00000    
         3      7693   F -0.240345       0.00000       0.00000    
         3      7697   F -0.240345       0.00000       0.00000    
         3      7701   F -0.240345       0.00000       0.00000    
         3      7705   F -0.240345       0.00000       0.00000    
         3      7709   F -0.240345       0.00000       0.00000    
         3      7713   F -0.240345       0.00000       0.00000    
         3      7717   F -0.240345       0.00000       0.00000    
         3      7721   F -0.240345       0.00000       0.00000    
         3      7725   F -0.240345       0.00000       0.00000    
         3      7729   F -0.240345       0.00000       0.00000    
         3      7733   F -0.240345       0.00000       0.00000    
         3      7737   F -0.240345       0.00000       0.00000    
         3      7741   F -0.240345       0.00000       0.00000    
         3      7745   F -0.240345       0.00000       0.00000    
         3      7749   F -0.240345       0.00000       0.00000    
         3      7753   F -0.240345       0.00000       0.00000    
         3      7757   F -0.240345       0.00000       0.00000    
         3      7761   F -0.240345       0.00000       0.00000    
         3      7765   F -0.240345       0.00000       0.00000    
         3      7769   F -0.240345       0.00000       0.00000    
         3      7773   F -0.240345       0.00000       0.00000    
         3      7777   F -0.240345       0.00000       0.00000    
         3      7781   F -0.240345       0.00000       0.00000    
         3      7785   F -0.240345       0.00000       0.00000    
         3      7789   F -0.240345       0.00000       0.00000    
         3      7793   F -0.240345       0.00000       0.00000    
         3      7797   F -0.240345       0.00000       0.00000    
         3      7801   F -0.240345       0.00000       0.00000    
         3      7805   F -0.240345       0.00000       0.00000    
         3      7809   F -0.240345       0.00000       0.00000    
         3      7813   F -0.240345       0.00000       0.00000    
         3      7817   F -0.240345       0.00000       0.00000    
         3      7821   F -0.240345       0.00000       0.00000    
         3      7825   F -0.240345       0.00000       0.00000    
         3      7829   F -0.240345       0.00000       0.00000    
         3      7833   F -0.240345       0.00000       0.00000    
         3      7837   F -0.240345       0.00000       0.00000    
         3      7841   F -0.240345       0.00000       0.00000    
         3      7845   F -0.240345       0.00000       0.00000    
         3      7849   F -0.240345       0.00000       0.00000    
         3      7853   F -0.240345       0.00000       0.00000    
         3      7857   F -0.240345       0.00000       0.00000    
         3      7861   F -0.240345       0.00000       0.00000    
         3      7865   F -0.240345       0.00000       0.00000    
         3      7869   F -0.240345       0.00000       0.00000    
         3      7873   F -0.240345       0.00000       0.00000    
         3      7877   F -0.240345       0.00000       0.00000    
         3      7881   F -0.240345       0.00000       0.00000    
         3      7885   F -0.240345       0.00000       0.00000    
         3      7889   F -0.240345       0.00000       0.00000    
         3      7893   F -0.240345       0.00000       0.00000    
         3      7897   F -0.240345       0.00000       0.00000    
         3      7901   F -0.240345       0.00000       0.00000    
         3      7905   F -0.240345       0.00000       0.00000    
         3      7909   F -0.240345       0.00000       0.00000    
         3      7913   F -0.240345       0.00000       0.00000    
         3      7917   F -0.240345       0.00000       0.00000    
         3      7921   F -0.240345       0.00000       0.00000    
         3      7925   F -0.240345       0.00000       0.00000    
         3      7929   F -0.240345       0.00000       0.00000    
         3      7933   F -0.240345       0.00000       0.00000    
         3      7937   F -0.240345       0.00000       0.00000    
         3      7941   F -0.240345       0.00000       0.00000    
         3      7945   F -0.240345       0.00000       0.00000    
         3      7949   F -0.240345       0.00000       0.00000    
         3      7953   F -0.240345       0.00000       0.00000    
         3      7957   F -0.240345       0.00000       0.00000    
         3      7961   F -0.240345       0.00000       0.00000    
         3      7965   F -0.240345       0.00000       0.00000    
         3      7969   F -0.240345       0.00000       0.00000    
         3      7973   F -0.240345       0.00000       0.00000    
         3      7977   F -0.240345       0.00000       0.00000    
         3      7981   F -0.240345       0.00000       0.00000    
         3      7985   F -0.240345       0.00000       0.00000    
         3      7989   F -0.240345       0.00000       0.00000    
         3      7993   F -0.240345       0.00000       0.00000    
         3      7997   F -0.240345       0.00000       0.00000    
         3      8001   F -0.240345       0.00000       0.00000    
         3      8005   F -0.240345       0.00000       0.00000    
         3      8009   F -0.240345       0.00000       0.00000    
         3      8013   F -0.240345       0.00000       0.00000    
         3      8017   F -0.240345       0.00000       0.00000    
         3      8021   F -0.240345       0.00000       0.00000    
         3      8025   F -0.240345       0.00000       0.00000    
         3      8029   F -0.240345       0.00000       0.00000    
         3      8033   F -0.240345       0.00000       0.00000    
         3      8037   F -0.240345       0.00000       0.00000    
         3      8041   F -0.240345       0.00000       0.00000    
         3      8045   F -0.240345       0.00000       0.00000    
         3      8049   F -0.240345       0.00000       0.00000    
         3      8053   F -0.240345       0.00000       0.00000    
         3      8057   F -0.240345       0.00000       0.00000    
         3      8061   F -0.240345       0.00000       0.00000    
         3      8065   F -0.240345       0.00000       0.00000    
         3      8069   F -0.240345       0.00000       0.00000    
         3      8073   F -0.240345       0.00000       0.00000    
         3      8077   F -0.240345       0.00000       0.00000    
         3      8081   F -0.240345       0.00000       0.00000    
         3      8085   F -0.240345       0.00000       0.00000    
         3      8089   F -0.240345       0.00000       0.00000    
         3      8093   F -0.240345       0.00000       0.00000    
         3      8097   F -0.240345       0.00000       0.00000    
         3      8101   F -0.240345       0.00000       0.00000    
         3      8105   F -0.240345       0.00000       0.00000    
         3      8109   F -0.240345       0.00000       0.00000    
         3      8113   F -0.240345       0.00000       0.00000    
         3      8117   F -0.240345       0.00000       0.00000    
         3      8121   F -0.240345       0.00000       0.00000    
         3      8125   F -0.240345       0.00000       0.00000    
         3      8129   F -0.240345       0.00000       0.00000    
         3      8133   F -0.240345       0.00000       0.00000    
         3      8137   F -0.240345       0.00000       0.00000    
         3      8141   F -0.240345       0.00000       0.00000    
         3      8145   F -0.240345       0.00000       0.00000    
         3      8149   F -0.240345       0.00000       0.00000    
         3      8153   F -0.240345       0.00000       0.00000    
         3      8157   F -0.240345       0.00000       0.00000    
         3      8161   F -0.240345       0.00000       0.00000    
         3      8165   F -0.240345       0.00000       0.00000    
         3      8169   F -0.240345       0.00000       0.00000    
         3      8173   F -0.240345       0.00000       0.00000    
         3      8177   F -0.240345       0.00000       0.00000    
         3      8181   F -0.240345       0.00000       0.00000    
         3      8185   F -0.240345       0.00000       0.00000    
         3      8189   F -0.240345       0.00000       0.00000    
         3      8193   F -0.240345       0.00000       0.00000    
         3      8197   F -0.240345       0.00000       0.00000    
         3      8201   F -0.240345       0.00000       0.00000    
         3      8205   F -0.240345       0.00000       0.00000    
         3      8209   F -0.240345       0.00000       0.00000    
         3      8213   F -0.240345       0.00000       0.00000    
         3      8217   F -0.240345       0.00000       0.00000    
         3      8221   F -0.240345       0.00000       0.00000    
         3      8225   F -0.240345       0.00000       0.00000    
         3      8229   F -0.240345       0.00000       0.00000    
         3      8233   F -0.240345       0.00000       0.00000    
         3      8237   F -0.240345       0.00000       0.00000    
         3      8241   F -0.240345       0.00000       0.00000    
         3      8245   F -0.240345       0.00000       0.00000    
         3      8249   F -0.240345       0.00000       0.00000    
         3      8253   F -0.240345       0.00000       0.00000    
         3      8257   F -0.240345       0.00000       0.00000    
         3      8261   F -0.240345       0.00000       0.00000    
         3      8265   F -0.240345       0.00000       0.00000    
         3      8269   F -0.240345       0.00000       0.00000    
         3      8273   F -0.240345       0.00000       0.00000    
         3      8277   F -0.240345       0.00000       0.00000    
         3      8281   F -0.240345       0.00000       0.00000    
         3      8285   F -0.240345       0.00000       0.00000    
         3      8289   F -0.240345       0.00000       0.00000    
         3      8293   F -0.240345       0.00000       0.00000    
         3      8297   F -0.240345       0.00000       0.00000    
         3      8301   F -0.240345       0.00000       0.00000    
         3      8305   F -0.240345       0.00000       0.00000    
         3      8309   F -0.240345       0.00000       0.00000    
         3      8313   F -0.240345       0.00000       0.00000    
         3      8317   F -0.240345       0.00000       0.00000    
         3      8321   F -0.240345       0.00000       0.00000    
         3      8325   F -0.240345       0.00000       0.00000    
         3      8329   F -0.240345       0.00000       0.00000    
         3      8333   F -0.240345       0.00000       0.00000    
         3      8337   F -0.240345       0.00000       0.00000    
         3      8341   F -0.240345       0.00000       0.00000    
         3      8345   F -0.240345       0.00000       0.00000    
         3      8349   F -0.240345       0.00000       0.00000    
         3      8353   F -0.240345       0.00000       0.00000    
         3      8357   F -0.240345       0.00000       0.00000    
         3      8361   F -0.240345       0.00000       0.00000    
         3      8365   F -0.240345       0.00000       0.00000    
         3      8369   F -0.240345       0.00000       0.00000    
         3      8373   F -0.240345       0.00000       0.00000    
         3      8377   F -0.240345       0.00000       0.00000    
         3      8381   F -0.240345       0.00000       0.00000    
         3      8385   F -0.240345       0.00000       0.00000    
         3      8389   F -0.240345       0.00000       0.00000    
         3      8393   F -0.240345       0.00000       0.00000    
         3      8397   F -0.240345       0.00000       0.00000    
         3      8401   F -0.240345       0.00000       0.00000    
         3      8405   F -0.240345       0.00000       0.00000    
         3      8409   F -0.240345       0.00000       0.00000    
         3      8413   F -0.240345       0.00000       0.00000    
         3      8417   F -0.240345       0.00000       0.00000    
         3      8421   F -0.240345       0.00000       0.00000    
         3      8425   F -0.240345       0.00000       0.00000    
         3      8429   F -0.240345       0.00000       0.00000    
         3      8433   F -0.240345       0.00000       0.00000    
         3      8437   F -0.240345       0.00000       0.00000    
         3      8441   F -0.240345       0.00000       0.00000    
         3      8445   F -0.240345       0.00000       0.00000    
         3      8449   F -0.240345       0.00000       0.00000    
         3      8453   F -0.240345       0.00000       0.00000    
         3      8457   F -0.240345       0.00000       0.00000    
         3      8461   F -0.240345       0.00000       0.00000    
         3      8465   F -0.240345       0.00000       0.00000    
         3      8469   F -0.240345       0.00000       0.00000    
         3      8473   F -0.240345       0.00000       0.00000    
         3      8477   F -0.240345       0.00000       0.00000    
         3      8481   F -0.240345       0.00000       0.00000    
         3      8485   F -0.240345       0.00000       0.00000    
         3      8489   F -0.240345       0.00000       0.00000    
         3      8493   F -0.240345       0.00000       0.00000    
         3      8497   F -0.240345       0.00000       0.00000    
         3      8501   F -0.240345       0.00000       0.00000    
         3      8505   F -0.240345       0.00000       0.00000    
         3      8509   F -0.240345       0.00000       0.00000    
         3      8513   F -0.240345       0.00000       0.00000    
         3      8517   F -0.240345       0.00000       0.00000    
         3      8521   F -0.240345       0.00000       0.00000    
         3      8525   F -0.240345       0.00000       0.00000    
         3      8529   F -0.240345       0.00000       0.00000    
         3      8533   F -0.240345       0.00000       0.00000    
         3      8537   F -0.240345       0.00000       0.00000    
         3      8541   F -0.240345       0.00000       0.00000    
         3      8545   F -0.240345       0.00000       0.00000    
         3      8549   F -0.240345       0.00000       0.00000    
         3      8553   F -0.240345       0.00000       0.00000    
         3      8557   F -0.240345       0.00000       0.00000    
         3      8561   F -0.240345       0.00000       0.00000    
         3      8565   F -0.240345       0.00000       0.00000    
         3      8569   F -0.240345       0.00000       0.00000    
         3      8573   F -0.240345       0.00000       0.00000    
         3      8577   F -0.240345       0.00000       0.00000    
         3      8581   F -0.240345       0.00000       0.00000    
         3      8585   F -0.240345       0.00000       0.00000    
         3      8589   F -0.240345       0.00000       0.00000    
         3      8593   F -0.240345       0.00000       0.00000    
         3      8597   F -0.240345       0.00000       0.00000    
         3      8601   F -0.240345       0.00000       0.00000    
         3      8605   F -0.240345       0.00000       0.00000    
         3      8609   F -0.240345       0.00000       0.00000    
         3      8613   F -0.240345       0.00000       0.00000    
         3      8617   F -0.240345       0.00000       0.00000    
         3      8621   F -0.240345       0.00000       0.00000    
         3      8625   F -0.240345       0.00000       0.00000    
         3      8629   F -0.240345       0.00000       0.00000    
         3      8633   F -0.240345       0.00000       0.00000    
         3      8637   F -0.240345       0.00000       0.00000    
         3      8641   F -0.240345       0.00000       0.00000    
         3      8645   F -0.240345       0.00000       0.00000    
         3      8649   F -0.240345       0.00000       0.00000    
         3      8653   F -0.240345       0.00000       0.00000    
         3      8657   F -0.240345       0.00000       0.00000    
         3      8661   F -0.240345       0.00000       0.00000    
         3      8665   F -0.240345       0.00000       0.00000    
         3      8669   F -0.240345       0.00000       0.00000    
         3      8673   F -0.240345       0.00000       0.00000    
         3      8677   F -0.240345       0.00000       0.00000    
         3      8681   F -0.240345       0.00000       0.00000    
         3      8685   F -0.240345       0.00000       0.00000    
         3      8689   F -0.240345       0.00000       0.00000    
         3      8693   F -0.240345       0.00000       0.00000    
         3      8697   F -0.240345       0.00000       0.00000    
         3      8701   F -0.240345       0.00000       0.00000    
         3      8705   F -0.240345       0.00000       0.00000    
         3      8709   F -0.240345       0.00000       0.00000    
         3      8713   F -0.240345       0.00000       0.00000    
         3      8717   F -0.240345       0.00000       0.00000    
         3      8721   F -0.240345       0.00000       0.00000    
         3      8725   F -0.240345       0.00000       0.00000    
         3      8729   F -0.240345       0.00000       0.00000    
         3      8733   F -0.240345       0.00000       0.00000    
         3      8737   F -0.240345       0.00000       0.00000    
         3      8741   F -0.240345       0.00000       0.00000    
         3      8745   F -0.240345       0.00000       0.00000    
         3      8749   F -0.240345       0.00000       0.00000    
         3      8753   F -0.240345       0.00000       0.00000    
         3      8757   F -0.240345       0.00000       0.00000    
         3      8761   F -0.240345       0.00000       0.00000    
         3      8765   F -0.240345       0.00000       0.00000    
         3      8769   F -0.240345       0.00000       0.00000    
         3      8773   F -0.240345       0.00000       0.00000    
         3      8777   F -0.240345       0.00000       0.00000    
         3      8781   F -0.240345       0.00000       0.00000    
         3      8785   F -0.240345       0.00000       0.00000    
         3      8789   F -0.240345       0.00000       0.00000    
         3      8793   F -0.240345       0.00000       0.00000    
         3      8797   F -0.240345       0.00000       0.00000    
         3      8801   F -0.240345       0.00000       0.00000    
         3      8805   F -0.240345       0.00000       0.00000    
         3      8809   F -0.240345       0.00000       0.00000    
         3      8813   F -0.240345       0.00000       0.00000    
         3      8817   F -0.240345       0.00000       0.00000    
         3      8821   F -0.240345       0.00000       0.00000    
         3      8825   F -0.240345       0.00000       0.00000    
         3      8829   F -0.240345       0.00000       0.00000    
         3      8833   F -0.240345       0.00000       0.00000    
         3      8837   F -0.240345       0.00000       0.00000    
         3      8841   F -0.240345       0.00000       0.00000    
         3      8845   F -0.240345       0.00000       0.00000    
         3      8849   F -0.240345       0.00000       0.00000    
         3      8853   F -0.240345       0.00000       0.00000    
         3      8857   F -0.240345       0.00000       0.00000    
         3      8861   F -0.240345       0.00000       0.00000    
         3      8865   F -0.240345       0.00000       0.00000    
         3      8869   F -0.240345       0.00000       0.00000    
         3      8873   F -0.240345       0.00000       0.00000    
         3      8877   F -0.240345       0.00000       0.00000    
         3      8881   F -0.240345       0.00000       0.00000    
         3      8885   F -0.240345       0.00000       0.00000    
         3      8889   F -0.240345       0.00000       0.00000    
         3      8893   F -0.240345       0.00000       0.00000    
         3      8897   F -0.240345       0.00000       0.00000    
         3      8901   F -0.240345       0.00000       0.00000    
         3      8905   F -0.240345       0.00000       0.00000    
         3      8909   F -0.240345       0.00000       0.00000    
         3      8913   F -0.240345       0.00000       0.00000    
         3      8917   F -0.240345       0.00000       0.00000    
         3      8921   F -0.240345       0.00000       0.00000    
         3      8925   F -0.240345       0.00000       0.00000    
         3      8929   F -0.240345       0.00000       0.00000    
         3      8933   F -0.240345       0.00000       0.00000    
         3      8937   F -0.240345       0.00000       0.00000    
         3      8941   F -0.240345       0.00000       0.00000    
         3      8945   F -0.240345       0.00000       0.00000    
         3      8949   F -0.240345       0.00000       0.00000    
         3      8953   F -0.240345       0.00000       0.00000    
         3      8957   F -0.240345       0.00000       0.00000    
         3      8961   F -0.240345       0.00000       0.00000    
         3      8965   F -0.240345       0.00000       0.00000    
         3      8969   F -0.240345       0.00000       0.00000    
         3      8973   F -0.240345       0.00000       0.00000    
         3      8977   F -0.240345       0.00000       0.00000    
         3      8981   F -0.240345       0.00000       0.00000    
         3      8985   F -0.240345       0.00000       0.00000    
         3      8989   F -0.240345       0.00000       0.00000    
         3      8993   F -0.240345       0.00000       0.00000    
         3      8997   F -0.240345       0.00000       0.00000    
         3      9001   F -0.240345       0.00000       0.00000    
         3      9005   F -0.240345       0.00000       0.00000    
         3      9009   F -0.240345       0.00000       0.00000    
         3      9013   F -0.240345       0.00000       0.00000    
         3      9017   F -0.240345       0.00000       0.00000    
         3      9021   F -0.240345       0.00000       0.00000    
         3      9025   F -0.240345       0.00000       0.00000    
         3      9029   F -0.240345       0.00000       0.00000    
         3      9033   F -0.240345       0.00000       0.00000    
         3      9037   F -0.240345       0.00000       0.00000    
         3      9041   F -0.240345       0.00000       0.00000    
         3      9045   F -0.240345       0.00000       0.00000    
         3      9049   F -0.240345       0.00000       0.00000    
         3      9053   F -0.240345       0.00000       0.00000    
         3      9057   F -0.240345       0.00000       0.00000    
         3      9061   F -0.240345       0.00000       0.00000    
         3      9065   F -0.240345       0.00000       0.00000    
         3      9069   F -0.240345       0.00000       0.00000    
         3      9073   F -0.240345       0.00000       0.00000    
         3      9077   F -0.240345       0.00000       0.00000    
         3      9081   F -0.240345       0.00000       0.00000    
         3      9085   F -0.240345       0.00000       0.00000    
         3      9089   F -0.240345       0.00000       0.00000    
         3      9093   F -0.240345       0.00000       0.00000    
         3      9097   F -0.240345       0.00000       0.00000    
         3      9101   F -0.240345       0.00000       0.00000    
         3      9105   F -0.240345       0.00000       0.00000    
         3      9109   F -0.240345       0.00000       0.00000    
         3      9113   F -0.240345       0.00000       0.00000    
         3      9117   F -0.240345       0.00000       0.00000    
         3      9121   F -0.240345       0.00000       0.00000    
         3      9125   F -0.240345       0.00000       0.00000    
         3      9129   F -0.240345       0.00000       0.00000    
         3      9133   F -0.240345       0.00000       0.00000    
         3      9137   F -0.240345       0.00000       0.00000    
         3      9141   F -0.240345       0.00000       0.00000    
         3      9145   F -0.240345       0.00000       0.00000    
         3      9149   F -0.240345       0.00000       0.00000    
         3      9153   F -0.240345       0.00000       0.00000    
         3      9157   F -0.240345       0.00000       0.00000    
         3      9161   F -0.240345       0.00000       0.00000    
         3      9165   F -0.240345       0.00000       0.00000    
         3      9169   F -0.240345       0.00000       0.00000    
         3      9173   F -0.240345       0.00000       0.00000    
         3      9177   F -0.240345       0.00000       0.00000    
         3      9181   F -0.240345       0.00000       0.00000    
         3      9185   F -0.240345       0.00000       0.00000    
         3      9189   F -0.240345       0.00000       0.00000    
         3      9193   F -0.240345       0.00000       0.00000    
         3      9197   F -0.240345       0.00000       0.00000    
         3      9201   F -0.240345       0.00000       0.00000    
         3      9205   F -0.240345       0.00000       0.00000    
         3      9209   F -0.240345       0.00000       0.00000    
         3      9213   F -0.240345       0.00000       0.00000    
         3      9217   F -0.240345       0.00000       0.00000    
         3      9221   F -0.240345       0.00000       0.00000    
         3      9225   F -0.240345       0.00000       0.00000    
         3      9229   F -0.240345       0.00000       0.00000    
         3      9233   F -0.240345       0.00000       0.00000    
         3      9237   F -0.240345       0.00000       0.00000    
         3      9241   F -0.240345       0.00000       0.00000    
         3      9245   F -0.240345       0.00000       0.00000    
         3      9249   F -0.240345       0.00000       0.00000    
         3      9253   F -0.240345       0.00000       0.00000    
         3      9257   F -0.240345       0.00000       0.00000    
         3      9261   F -0.240345       0.00000       0.00000    
         3      9265   F -0.240345       0.00000       0.00000    
         3      9269   F -0.240345       0.00000       0.00000    
         3      9273   F -0.240345       0.00000       0.00000    
         3      9277   F -0.240345       0.00000       0.00000    
         3      9281   F -0.240345       0.00000       0.00000    
         3      9285   F -0.240345       0.00000       0.00000    
         3      9289   F -0.240345       0.00000       0.00000    
         3      9293   F -0.240345       0.00000       0.00000    
         3      9297   F -0.240345       0.00000       0.00000    
         3      9301   F -0.240345       0.00000       0.00000    
         3      9305   F -0.240345       0.00000       0.00000    
         3      9309   F -0.240345       0.00000       0.00000    
         3      9313   F -0.240345       0.00000       0.00000    
         3      9317   F -0.240345       0.00000       0.00000    
         3      9321   F -0.240345       0.00000       0.00000    
         3      9325   F -0.240345       0.00000       0.00000    
         3      9329   F -0.240345       0.00000       0.00000    
         3      9333   F -0.240345       0.00000       0.00000    
         3      9337   F -0.240345       0.00000       0.00000    
         3      9341   F -0.240345       0.00000       0.00000    
         3      9345   F -0.240345       0.00000       0.00000    
         3      9349   F -0.240345       0.00000       0.00000    
         3      9353   F -0.240345       0.00000       0.00000    
         3      9357   F -0.240345       0.00000       0.00000    
         3      9361   F -0.240345       0.00000       0.00000    
         3      9365   F -0.240345       0.00000       0.00000    
         3      9369   F -0.240345       0.00000       0.00000    
         3      9373   F -0.240345       0.00000       0.00000    
         3      9377   F -0.240345       0.00000       0.00000    
         3      9381   F -0.240345       0.00000       0.00000    
         3      9385   F -0.240345       0.00000       0.00000    
         3      9389   F -0.240345       0.00000       0.00000    
         3      9393   F -0.240345       0.00000       0.00000    
         3      9397   F -0.240345       0.00000       0.00000    
         3      9401   F -0.240345       0.00000       0.00000    
         3      9405   F -0.240345       0.00000       0.00000    
         3      9409   F -0.240345       0.00000       0.00000    
         3      9413   F -0.240345       0.00000       0.00000    
         3      9417   F -0.240345       0.00000       0.00000    
         3      9421   F -0.240345       0.00000       0.00000    
         3      9425   F -0.240345       0.00000       0.00000    
         3      9429   F -0.240345       0.00000       0.00000    
         3      9433   F -0.240345       0.00000       0.00000    
         3      9437   F -0.240345       0.00000       0.00000    
         3      9441   F -0.240345       0.00000       0.00000    
         3      9445   F -0.240345       0.00000       0.00000    
         3      9449   F -0.240345       0.00000       0.00000    
         3      9453   F -0.240345       0.00000       0.00000    
         3      9457   F -0.240345       0.00000       0.00000    
         3      9461   F -0.240345       0.00000       0.00000    
         3      9465   F -0.240345       0.00000       0.00000    
         3      9469   F -0.240345       0.00000       0.00000    
         3      9473   F -0.240345       0.00000       0.00000    
         3      9477   F -0.240345       0.00000       0.00000    
         3      9481   F -0.240345       0.00000       0.00000    
         3      9485   F -0.240345       0.00000       0.00000    
         3      9489   F -0.240345       0.00000       0.00000    
         3      9493   F -0.240345       0.00000       0.00000    
         3      9497   F -0.240345       0.00000       0.00000    
         3      9501   F -0.240345       0.00000       0.00000    
         3      9505   F -0.240345       0.00000       0.00000    
         3      9509   F -0.240345       0.00000       0.00000    
         3      9513   F -0.240345       0.00000       0.00000    
         3      9517   F -0.240345       0.00000       0.00000    
         3      9521   F -0.240345       0.00000       0.00000    
         3      9525   F -0.240345       0.00000       0.00000    
         3      9529   F -0.240345       0.00000       0.00000    
         3      9533   F -0.240345       0.00000       0.00000    
         3      9537   F -0.240345       0.00000       0.00000    
         3      9541   F -0.240345       0.00000       0.00000    
         3      9545   F -0.240345       0.00000       0.00000    
         3      9549   F -0.240345       0.00000       0.00000    
         3      9553   F -0.240345       0.00000       0.00000    
         3      9557   F -0.240345       0.00000       0.00000    
         3      9561   F -0.240345       0.00000       0.00000    
         3      9565   F -0.240345       0.00000       0.00000    
         3      9569   F -0.240345       0.00000       0.00000    
         3      9573   F -0.240345       0.00000       0.00000    
         3      9577   F -0.240345       0.00000       0.00000    
         3      9581   F -0.240345       0.00000       0.00000    
         3      9585   F -0.240345       0.00000       0.00000    
         3      9589   F -0.240345       0.00000       0.00000    
         3      9593   F -0.240345       0.00000       0.00000    
         3      9597   F -0.240345       0.00000       0.00000    
         3      9601   F -0.240345       0.00000       0.00000    
         3      9605   F -0.240345       0.00000       0.00000    
         3      9609   F -0.240345       0.00000       0.00000    
         3      9613   F -0.240345       0.00000       0.00000    
         3      9617   F -0.240345       0.00000       0.00000    
         3      9621   F -0.240345       0.00000       0.00000    
         3      9625   F -0.240345       0.00000       0.00000    
         3      9629   F -0.240345       0.00000       0.00000    
         3      9633   F -0.240345       0.00000       0.00000    
         3      9637   F -0.240345       0.00000       0.00000    
         3      9641   F -0.240345       0.00000       0.00000    
         3      9645   F -0.240345       0.00000       0.00000    
         3      9649   F -0.240345       0.00000       0.00000    
         3      9653   F -0.240345       0.00000       0.00000    
         3      9657   F -0.240345       0.00000       0.00000    
         3      9661   F -0.240345       0.00000       0.00000    
         3      9665   F -0.240345       0.00000       0.00000    
         3      9669   F -0.240345       0.00000       0.00000    
         3      9673   F -0.240345       0.00000       0.00000    
         3      9677   F -0.240345       0.00000       0.00000    
         3      9681   F -0.240345       0.00000       0.00000    
         3      9685   F -0.240345       0.00000       0.00000    
         3      9689   F -0.240345       0.00000       0.00000    
         3      9693   F -0.240345       0.00000       0.00000    
         3      9697   F -0.240345       0.00000       0.00000    
         3      9701   F -0.240345       0.00000       0.00000    
         3      9705   F -0.240345       0.00000       0.00000    
         3      9709   F -0.240345       0.00000       0.00000    
         3      9713   F -0.240345       0.00000       0.00000    
         3      9717   F -0.240345       0.00000       0.00000    
         3      9721   F -0.240345       0.00000       0.00000    
         3      9725   F -0.240345       0.00000       0.00000    
         3      9729   F -0.240345       0.00000       0.00000    
         3      9733   F -0.240345       0.00000       0.00000    
         3      9737   F -0.240345       0.00000       0.00000    
         3      9741   F -0.240345       0.00000       0.00000    
         3      9745   F -0.240345       0.00000       0.00000    
         3      9749   F -0.240345       0.00000       0.00000    
         3      9753   F -0.240345       0.00000       0.00000    
         3      9757   F -0.240345       0.00000       0.00000    
         3      9761   F -0.240345       0.00000       0.00000    
         3      9765   F -0.240345       0.00000       0.00000    
         3      9769   F -0.240345       0.00000       0.00000    
         3      9773   F -0.240345       0.00000       0.00000    
         3      9777   F -0.240345       0.00000       0.00000    
         3      9781   F -0.240345       0.00000       0.00000    
         3      9785   F -0.240345       0.00000       0.00000    
         3      9789   F -0.240345       0.00000       0.00000    
         3      9793   F -0.240345       0.00000       0.00000    
         3      9797   F -0.240345       0.00000       0.00000    
         3      9801   F -0.240345       0.00000       0.00000    
         3      9805   F -0.240345       0.00000       0.00000    
         3      9809   F -0.240345       0.00000       0.00000    
         3      9813   F -0.240345       0.00000       0.00000    
         3      9817   F -0.240345       0.00000       0.00000    
         3      9821   F -0.240345       0.00000       0.00000    
         3      9825   F -0.240345       0.00000       0.00000    
         3      9829   F -0.240345       0.00000       0.00000    
         3      9833   F -0.240345       0.00000       0.00000    
         3      9837   F -0.240345       0.00000       0.00000    
         3      9841   F -0.240345       0.00000       0.00000    
         3      9845   F -0.240345       0.00000       0.00000    
         3      9849   F -0.240345       0.00000       0.00000    
         3      9853   F -0.240345       0.00000       0.00000    
         3      9857   F -0.240345       0.00000       0.00000    
         3      9861   F -0.240345       0.00000       0.00000    
         3      9865   F -0.240345       0.00000       0.00000    
         3      9869   F -0.240345       0.00000       0.00000    
         3      9873   F -0.240345       0.00000       0.00000    
         3      9877   F -0.240345       0.00000       0.00000    
         3      9881   F -0.240345       0.00000       0.00000    
         3      9885   F -0.240345       0.00000       0.00000    
         3      9889   F -0.240345       0.00000       0.00000    
         3      9893   F -0.240345       0.00000       0.00000    
         3      9897   F -0.240345       0.00000       0.00000    
         3      9901   F -0.240345       0.00000       0.00000    
         3      9905   F -0.240345       0.00000       0.00000    
         3      9909   F -0.240345       0.00000       0.00000    
         3      9913   F -0.240345       0.00000       0.00000    
         3      9917   F -0.240345       0.00000       0.00000    
         3      9921   F -0.240345       0.00000       0.00000    
         3      9925   F -0.240345       0.00000       0.00000    
         3      9929   F -0.240345       0.00000       0.00000    
         3      9933   F -0.240345       0.00000       0.00000    
         3      9937   F -0.240345       0.00000       0.00000    
         3      9941   F -0.240345       0.00000       0.00000    
         3      9945   F -0.240345       0.00000       0.00000    
         3      9949   F -0.240345       0.00000       0.00000    
         3      9953   F -0.240345       0.00000       0.00000    
         3      9957   F -0.240345       0.00000       0.00000    
         3      9961   F -0.240345       0.00000       0.00000    
         3      9965   F -0.240345       0.00000       0.00000    
         3      9969   F -0.240345       0.00000       0.00000    
         3      9973   F -0.240345       0.00000       0.00000    
         3      9977   F -0.240345       0.00000       0.00000    
         3      9981   F -0.240345       0.00000       0.00000    
         3      9985   F -0.240345       0.00000       0.00000    
         3      9989   F -0.240345       0.00000       0.00000    
         3      9993   F -0.240345       0.00000       0.00000    
         3      9997   F -0.240345       0.00000       0.00000    
         3     10001   F -0.240345       0.00000       0.00000    
         3     10005   F -0.240345       0.00000       0.00000    
         3     10009   F -0.240345       0.00000       0.00000    
         3     10013   F -0.240345       0.00000       0.00000    
         3     10017   F -0.240345       0.00000       0.00000    
         3     10021   F -0.240345       0.00000       0.00000    
         3     10025   F -0.240345       0.00000       0.00000    
         3     10029   F -0.240345       0.00000       0.00000    
         3     10033   F -0.240345       0.00000       0.00000    
         3     10037   F -0.240345       0.00000       0.00000    
         3     10041   F -0.240345       0.00000       0.00000    
         3     10045   F -0.240345       0.00000       0.00000    
         3     10049   F -0.240345       0.00000       0.00000    
         3     10053   F -0.240345       0.00000       0.00000    
         3     10057   F -0.240345       0.00000       0.00000    
         3     10061   F -0.240345       0.00000       0.00000    
         3     10065   F -0.240345       0.00000       0.00000    
         3     10069   F -0.240345       0.00000       0.00000    
         3     10073   F -0.240345       0.00000       0.00000    
         3     10077   F -0.240345       0.00000       0.00000    
         3     10081   F -0.240345       0.00000       0.00000    
         3     10085   F -0.240345       0.00000       0.00000    
         3     10089   F -0.240345       0.00000       0.00000    
         3     10093   F -0.240345       0.00000       0.00000    
         3     10097   F -0.240345       0.00000       0.00000    
         3     10101   F -0.240345       0.00000       0.00000    
         3     10105   F -0.240345       0.00000       0.00000    
         3     10109   F -0.240345       0.00000       0.00000    
         3     10113   F -0.240345       0.00000       0.00000    
         3     10117   F -0.240345       0.00000       0.00000    
         3     10121   F -0.240345       0.00000       0.00000    
         3     10125   F -0.240345       0.00000       0.00000    
         3     10129   F -0.240345       0.00000       0.00000    
         3     10133   F -0.240345       0.00000       0.00000    
         3     10137   F -0.240345       0.00000       0.00000    
         3     10141   F -0.240345       0.00000       0.00000    
         3     10145   F -0.240345       0.00000       0.00000    
         3     10149   F -0.240345       0.00000       0.00000    
         3     10153   F -0.240345       0.00000       0.00000    
         3     10157   F -0.240345       0.00000       0.00000    
         3     10161   F -0.240345       0.00000       0.00000    
         3     10165   F -0.240345       0.00000       0.00000    
         3     10169   F -0.240345       0.00000       0.00000    
         3     10173   F -0.240345       0.00000       0.00000    
         3     10177   F -0.240345       0.00000       0.00000    
         3     10181   F -0.240345       0.00000       0.00000    
         3     10185   F -0.240345       0.00000       0.00000    
         3     10189   F -0.240345       0.00000       0.00000    
         3     10193   F -0.240345       0.00000       0.00000    
         3     10197   F -0.240345       0.00000       0.00000    
         3     10201   F -0.240345       0.00000       0.00000    
         3     10205   F -0.240345       0.00000       0.00000    
         3     10209   F -0.240345       0.00000       0.00000    
         3     10213   F -0.240345       0.00000       0.00000    
         3     10217   F -0.240345       0.00000       0.00000    
         3     10221   F -0.240345       0.00000       0.00000    
         3     10225   F -0.240345       0.00000       0.00000    
         3     10229   F -0.240345       0.00000       0.00000    
         3     10233   F -0.240345       0.00000       0.00000    
         3     10237   F -0.240345       0.00000       0.00000    
         3     10241   F -0.240345       0.00000       0.00000    
         3     10245   F -0.240345       0.00000       0.00000    
         3     10249   F -0.240345       0.00000       0.00000    
         3     10253   F -0.240345       0.00000       0.00000    
         3     10257   F -0.240345       0.00000       0.00000    
         3     10261   F -0.240345       0.00000       0.00000    
         3     10265   F -0.240345       0.00000       0.00000    
         3     10269   F -0.240345       0.00000       0.00000    
         3     10273   F -0.240345       0.00000       0.00000    
         3     10277   F -0.240345       0.00000       0.00000    
         3     10281   F -0.240345       0.00000       0.00000    
         3     10285   F -0.240345       0.00000       0.00000    
         3     10289   F -0.240345       0.00000       0.00000    
         3     10293   F -0.240345       0.00000       0.00000    
         3     10297   F -0.240345       0.00000       0.00000    
         3     10301   F -0.240345       0.00000       0.00000    
         3     10305   F -0.240345       0.00000       0.00000    
         3     10309   F -0.240345       0.00000       0.00000    
         3     10313   F -0.240345       0.00000       0.00000    
         3     10317   F -0.240345       0.00000       0.00000    
         3     10321   F -0.240345       0.00000       0.00000    
         3     10325   F -0.240345       0.00000       0.00000    
         3     10329   F -0.240345       0.00000       0.00000    
         3     10333   F -0.240345       0.00000       0.00000    
         3     10337   F -0.240345       0.00000       0.00000    
         3     10341   F -0.240345       0.00000       0.00000    
         3     10345   F -0.240345       0.00000       0.00000    
         3     10349   F -0.240345       0.00000       0.00000    
         3     10353   F -0.240345       0.00000       0.00000    
         3     10357   F -0.240345       0.00000       0.00000    
         3     10361   F -0.240345       0.00000       0.00000    
         3     10365   F -0.240345       0.00000       0.00000    
         3     10369   F -0.240345       0.00000       0.00000    
         3     10373   F -0.240345       0.00000       0.00000    
         3     10377   F -0.240345       0.00000       0.00000    
         3     10381   F -0.240345       0.00000       0.00000    
         3     10385   F -0.240345       0.00000       0.00000    
         3     10389   F -0.240345       0.00000       0.00000    
         3     10393   F -0.240345       0.00000       0.00000    
         3     10397   F -0.240345       0.00000       0.00000    
         3     10401   F -0.240345       0.00000       0.00000    
         3     10405   F -0.240345       0.00000       0.00000    
         3     10409   F -0.240345       0.00000       0.00000    
         3     10413   F -0.240345       0.00000       0.00000    
         3     10417   F -0.240345       0.00000       0.00000    
         3     10421   F -0.240345       0.00000       0.00000    
         3     10425   F -0.240345       0.00000       0.00000    
         3     10429   F -0.240345       0.00000       0.00000    
         3     10433   F -0.240345       0.00000       0.00000    
         3     10437   F -0.240345       0.00000       0.00000    
         3     10441   F -0.240345       0.00000       0.00000    
         3     10445   F -0.240345       0.00000       0.00000    
         3     10449   F -0.240345       0.00000       0.00000    
         3     10453   F -0.240345       0.00000       0.00000    
         3     10457   F -0.240345       0.00000       0.00000    
         3     10461   F -0.240345       0.00000       0.00000    
         3     10465   F -0.240345       0.00000       0.00000    
         3     10469   F -0.240345       0.00000       0.00000    
         3     10473   F -0.240345       0.00000       0.00000    
         3     10477   F -0.240345       0.00000       0.00000    
         3     10481   F -0.240345       0.00000       0.00000    
         3     10485   F -0.240345       0.00000       0.00000    
         3     10489   F -0.240345       0.00000       0.00000    
         3     10493   F -0.240345       0.00000       0.00000    
         3     10497   F -0.240345       0.00000       0.00000    
         3     10501   F -0.240345       0.00000       0.00000    
         3     10505   F -0.240345       0.00000       0.00000    
         3     10509   F -0.240345       0.00000       0.00000    
         3     10513   F -0.240345       0.00000       0.00000    
         3     10517   F -0.240345       0.00000       0.00000    
         3     10521   F -0.240345       0.00000       0.00000    
         3     10525   F -0.240345       0.00000       0.00000    
         3     10529   F -0.240345       0.00000       0.00000    
         3     10533   F -0.240345       0.00000       0.00000    
         3     10537   F -0.240345       0.00000       0.00000    
         3     10541   F -0.240345       0.00000       0.00000    
         3     10545   F -0.240345       0.00000       0.00000    
         3     10549   F -0.240345       0.00000       0.00000    
         3     10553   F -0.240345       0.00000       0.00000    
         3     10557   F -0.240345       0.00000       0.00000    
         3     10561   F -0.240345       0.00000       0.00000    
         3     10565   F -0.240345       0.00000       0.00000    
         3     10569   F -0.240345       0.00000       0.00000    
         3     10573   F -0.240345       0.00000       0.00000    
         3     10577   F -0.240345       0.00000       0.00000    
         3     10581   F -0.240345       0.00000       0.00000    
         3     10585   F -0.240345       0.00000       0.00000    
         3     10589   F -0.240345       0.00000       0.00000    
         3     10593   F -0.240345       0.00000       0.00000    
         3     10597   F -0.240345       0.00000       0.00000    
         3     10601   F -0.240345       0.00000       0.00000    
         3     10605   F -0.240345       0.00000       0.00000    
         3     10609   F -0.240345       0.00000       0.00000    
         3     10613   F -0.240345       0.00000       0.00000    
         3     10617   F -0.240345       0.00000       0.00000    
         3     10621   F -0.240345       0.00000       0.00000    
         3     10625   F -0.240345       0.00000       0.00000    
         3     10629   F -0.240345       0.00000       0.00000    
         3     10633   F -0.240345       0.00000       0.00000    
         3     10637   F -0.240345       0.00000       0.00000    
         3     10641   F -0.240345       0.00000       0.00000    
         3     10645   F -0.240345       0.00000       0.00000    
         3     10649   F -0.240345       0.00000       0.00000    
         3     10653   F -0.240345       0.00000       0.00000    
         3     10657   F -0.240345       0.00000       0.00000    
         3     10661   F -0.240345       0.00000       0.00000    
         3     10665   F -0.240345       0.00000       0.00000    
         3     10669   F -0.240345       0.00000       0.00000    
         3     10673   F -0.240345       0.00000       0.00000    
         3     10677   F -0.240345       0.00000       0.00000    
         3     10681   F -0.240345       0.00000       0.00000    
         3     10685   F -0.240345       0.00000       0.00000    
         3     10689   F -0.240345       0.00000       0.00000    
         3     10693   F -0.240345       0.00000       0.00000    
         3     10697   F -0.240345       0.00000       0.00000    
         3     10701   F -0.240345       0.00000       0.00000    
         3     10705   F -0.240345       0.00000       0.00000    
         3     10709   F -0.240345       0.00000       0.00000    
         3     10713   F -0.240345       0.00000       0.00000    
         3     10717   F -0.240345       0.00000       0.00000    
         3     10721   F -0.240345       0.00000       0.00000    
         3     10725   F -0.240345       0.00000       0.00000    
         3     10729   F -0.240345       0.00000       0.00000    
         3     10733   F -0.240345       0.00000       0.00000    
         3     10737   F -0.240345       0.00000       0.00000    
         3     10741   F -0.240345       0.00000       0.00000    
         3     10745   F -0.240345       0.00000       0.00000    
         3     10749   F -0.240345       0.00000       0.00000    
         3     10753   F -0.240345       0.00000       0.00000    
         3     10757   F -0.240345       0.00000       0.00000    
         3     10761   F -0.240345       0.00000       0.00000    
         3     10765   F -0.240345       0.00000       0.00000    
         3     10769   F -0.240345       0.00000       0.00000    
         3     10773   F -0.240345       0.00000       0.00000    
         3     10777   F -0.240345       0.00000       0.00000    
         3     10781   F -0.240345       0.00000       0.00000    
         3     10785   F -0.240345       0.00000       0.00000    
         3     10789   F -0.240345       0.00000       0.00000    
         3     10793   F -0.240345       0.00000       0.00000    
         3     10797   F -0.240345       0.00000       0.00000    
         3     10801   F -0.240345       0.00000       0.00000    
         3     10805   F -0.240345       0.00000       0.00000    
         3     10809   F -0.240345       0.00000       0.00000    
         3     10813   F -0.240345       0.00000       0.00000    
         3     10817   F -0.240345       0.00000       0.00000    
         3     10821   F -0.240345       0.00000       0.00000    
         3     10825   F -0.240345       0.00000       0.00000    
         3     10829   F -0.240345       0.00000       0.00000    
         3     10833   F -0.240345       0.00000       0.00000    
         3     10837   F -0.240345       0.00000       0.00000    
         3     10841   F -0.240345       0.00000       0.00000    
         3     10845   F -0.240345       0.00000       0.00000    
         3     10849   F -0.240345       0.00000       0.00000    
         3     10853   F -0.240345       0.00000       0.00000    
         3     10857   F -0.240345       0.00000       0.00000    
         3     10861   F -0.240345       0.00000       0.00000    
         3     10865   F -0.240345       0.00000       0.00000    
         3     10869   F -0.240345       0.00000       0.00000    
         3     10873   F -0.240345       0.00000       0.00000    
         3     10877   F -0.240345       0.00000       0.00000    
         3     10881   F -0.240345       0.00000       0.00000    
         3     10885   F -0.240345       0.00000       0.00000    
         3     10889   F -0.240345       0.00000       0.00000    
         3     10893   F -0.240345       0.00000       0.00000    
         3     10897   F -0.240345       0.00000       0.00000    
         3     10901   F -0.240345       0.00000       0.00000    
         3     10905   F -0.240345       0.00000       0.00000    
         3     10909   F -0.240345       0.00000       0.00000    
         3     10913   F -0.240345       0.00000       0.00000    
         3     10917   F -0.240345       0.00000       0.00000    
         3     10921   F -0.240345       0.00000       0.00000    
         3     10925   F -0.240345       0.00000       0.00000    
         3     10929   F -0.240345       0.00000       0.00000    
         3     10933   F -0.240345       0.00000       0.00000    
         3     10937   F -0.240345       0.00000       0.00000    
         3     10941   F -0.240345       0.00000       0.00000    
         3     10945   F -0.240345       0.00000       0.00000    
         3     10949   F -0.240345       0.00000       0.00000    
         3     10953   F -0.240345       0.00000       0.00000    
         3     10957   F -0.240345       0.00000       0.00000    
         3     10961   F -0.240345       0.00000       0.00000    
         3     10965   F -0.240345       0.00000       0.00000    
         3     10969   F -0.240345       0.00000       0.00000    
         3     10973   F -0.240345       0.00000       0.00000    
         3     10977   F -0.240345       0.00000       0.00000    
         3     10981   F -0.240345       0.00000       0.00000    
         3     10985   F -0.240345       0.00000       0.00000    
         3     10989   F -0.240345       0.00000       0.00000    
         3     10993   F -0.240345       0.00000       0.00000    
         3     10997   F -0.240345       0.00000       0.00000    
         3     11001   F -0.240345       0.00000       0.00000    
         3     11005   F -0.240345       0.00000       0.00000    
         3     11009   F -0.240345       0.00000       0.00000    
         3     11013   F -0.240345       0.00000       0.00000    
         3     11017   F -0.240345       0.00000       0.00000    
         3     11021   F -0.240345       0.00000       0.00000    
         3     11025   F -0.240345       0.00000       0.00000    
         3     11029   F -0.240345       0.00000       0.00000    
         3     11033   F -0.240345       0.00000       0.00000    
         3     11037   F -0.240345       0.00000       0.00000    
         3     11041   F -0.240345       0.00000       0.00000    
         3     11045   F -0.240345       0.00000       0.00000    
         3     11049   F -0.240345       0.00000       0.00000    
         3     11053   F -0.240345       0.00000       0.00000    
         3     11057   F -0.240345       0.00000       0.00000    
         3     11061   F -0.240345       0.00000       0.00000    
         3     11065   F -0.240345       0.00000       0.00000    
         3     11069   F -0.240345       0.00000       0.00000    
         3     11073   F -0.240345       0.00000       0.00000    
         3     11077   F -0.240345       0.00000       0.00000    
         3     11081   F -0.240345       0.00000       0.00000    
         3     11085   F -0.240345       0.00000       0.00000    
         3     11089   F -0.240345       0.00000       0.00000    
         3     11093   F -0.240345       0.00000       0.00000    
         3     11097   F -0.240345       0.00000       0.00000    
         3     11101   F -0.240345       0.00000       0.00000    
         3     11105   F -0.240345       0.00000       0.00000    
         3     11109   F -0.240345       0.00000       0.00000    
         3     11113   F -0.240345       0.00000       0.00000    
         3     11117   F -0.240345       0.00000       0.00000    
         3     11121   F -0.240345       0.00000       0.00000    
         3     11125   F -0.240345       0.00000       0.00000    
         3     11129   F -0.240345       0.00000       0.00000    
         3     11133   F -0.240345       0.00000       0.00000    
         3     11137   F -0.240345       0.00000       0.00000    
         3     11141   F -0.240345       0.00000       0.00000    
         3     11145   F -0.240345       0.00000       0.00000    
         3     11149   F -0.240345       0.00000       0.00000    
         3     11153   F -0.240345       0.00000       0.00000    
         3     11157   F -0.240345       0.00000       0.00000    
         3     11161   F -0.240345       0.00000       0.00000    
         3     11165   F -0.240345       0.00000       0.00000    
         3     11169   F -0.240345       0.00000       0.00000    
         3     11173   F -0.240345       0.00000       0.00000    
         3     11177   F -0.240345       0.00000       0.00000    
         3     11181   F -0.240345       0.00000       0.00000    
         3     11185   F -0.240345       0.00000       0.00000    
         3     11189   F -0.240345       0.00000       0.00000    
         3     11193   F -0.240345       0.00000       0.00000    
         3     11197   F -0.240345       0.00000       0.00000    
         3     11201   F -0.240345       0.00000       0.00000    
         3     11205   F -0.240345       0.00000       0.00000    
         3     11209   F -0.240345       0.00000       0.00000    
         3     11213   F -0.240345       0.00000       0.00000    
         3     11217   F -0.240345       0.00000       0.00000    
         3     11221   F -0.240345       0.00000       0.00000    
         3     11225   F -0.240345       0.00000       0.00000    
         3     11229   F -0.240345       0.00000       0.00000    
         3     11233   F -0.240345       0.00000       0.00000    
         3     11237   F -0.240345       0.00000       0.00000    
         3     11241   F -0.240345       0.00000       0.00000    
         3     11245   F -0.240345       0.00000       0.00000    
         3     11249   F -0.240345       0.00000       0.00000    
         3     11253   F -0.240345       0.00000       0.00000    
         3     11257   F -0.240345       0.00000       0.00000    
         3     11261   F -0.240345       0.00000       0.00000    
         3     11265   F -0.240345       0.00000       0.00000    
         3     11269   F -0.240345       0.00000       0.00000    
         3     11273   F -0.240345       0.00000       0.00000    
         3     11277   F -0.240345       0.00000       0.00000    
         3     11281   F -0.240345       0.00000       0.00000    
         3     11285   F -0.240345       0.00000       0.00000    
         3     11289   F -0.240345       0.00000       0.00000    
         3     11293   F -0.240345       0.00000       0.00000    
         3     11297   F -0.240345       0.00000       0.00000    
         3     11301   F -0.240345       0.00000       0.00000    
         3     11305   F -0.240345       0.00000       0.00000    
         3     11309   F -0.240345       0.00000       0.00000    
         3     11313   F -0.240345       0.00000       0.00000    
         3     11317   F -0.240345       0.00000       0.00000    
         3     11321   F -0.240345       0.00000       0.00000    
         3     11325   F -0.240345       0.00000       0.00000    
         3     11329   F -0.240345       0.00000       0.00000    
         3     11333   F -0.240345       0.00000       0.00000    
         3     11337   F -0.240345       0.00000       0.00000    
         3     11341   F -0.240345       0.00000       0.00000    
         3     11345   F -0.240345       0.00000       0.00000    
         3     11349   F -0.240345       0.00000       0.00000    
         3     11353   F -0.240345       0.00000       0.00000    
         3     11357   F -0.240345       0.00000       0.00000    
         3     11361   F -0.240345       0.00000       0.00000    
         3     11365   F -0.240345       0.00000       0.00000    
         3     11369   F -0.240345       0.00000       0.00000    
         3     11373   F -0.240345       0.00000       0.00000    
         3     11377   F -0.240345       0.00000       0.00000    
         3     11381   F -0.240345       0.00000       0.00000    
         3     11385   F -0.240345       0.00000       0.00000    
         3     11389   F -0.240345       0.00000       0.00000    
         3     11393   F -0.240345       0.00000       0.00000    
         3     11397   F -0.240345       0.00000       0.00000    
         3     11401   F -0.240345       0.00000       0.00000    
         3     11405   F -0.240345       0.00000       0.00000    
         3     11409   F -0.240345       0.00000       0.00000    
         3     11413   F -0.240345       0.00000       0.00000    
         3     11417   F -0.240345       0.00000       0.00000    
         3     11421   F -0.240345       0.00000       0.00000    
         3     11425   F -0.240345       0.00000       0.00000    
         3     11429   F -0.240345       0.00000       0.00000    
         3     11433   F -0.240345       0.00000       0.00000    
         3     11437   F -0.240345       0.00000       0.00000    
         3     11441   F -0.240345       0.00000       0.00000    
         3     11445   F -0.240345       0.00000       0.00000    
         3     11449   F -0.240345       0.00000       0.00000    
         3     11453   F -0.240345       0.00000       0.00000    
         3     11457   F -0.240345       0.00000       0.00000    
         3     11461   F -0.240345       0.00000       0.00000    
         3     11465   F -0.240345       0.00000       0.00000    
         3     11469   F -0.240345       0.00000       0.00000    
         3     11473   F -0.240345       0.00000       0.00000    
         3     11477   F -0.240345       0.00000       0.00000    
         3     11481   F -0.240345       0.00000       0.00000    
         3     11485   F -0.240345       0.00000       0.00000    
         3     11489   F -0.240345       0.00000       0.00000    
         3     11493   F -0.240345       0.00000       0.00000    
         3     11497   F -0.240345       0.00000       0.00000    
         3     11501   F -0.240345       0.00000       0.00000    
         3     11505   F -0.240345       0.00000       0.00000    
         3     11509   F -0.240345       0.00000       0.00000    
         3     11513   F -0.240345       0.00000       0.00000    
         3     11517   F -0.240345       0.00000       0.00000    
         3     11521   F -0.240345       0.00000       0.00000    
         3     11525   F -0.240345       0.00000       0.00000    
         3     11529   F -0.240345       0.00000       0.00000    
         3     11533   F -0.240345       0.00000       0.00000    
         3     11537   F -0.240345       0.00000       0.00000    
         3     11541   F -0.240345       0.00000       0.00000    
         3     11545   F -0.240345       0.00000       0.00000    
         3     11549   F -0.240345       0.00000       0.00000    
         3     11553   F -0.240345       0.00000       0.00000    
         3     11557   F -0.240345       0.00000       0.00000    
         3     11561   F -0.240345       0.00000       0.00000    
         3     11565   F -0.240345       0.00000       0.00000    
         3     11569   F -0.240345       0.00000       0.00000    
         3     11573   F -0.240345       0.00000       0.00000    
         3     11577   F -0.240345       0.00000       0.00000    
         3     11581   F -0.240345       0.00000       0.00000    
         3     11585   F -0.240345       0.00000       0.00000    
         3     11589   F -0.240345       0.00000       0.00000    
         3     11593   F -0.240345       0.00000       0.00000    
         3     11597   F -0.240345       0.00000       0.00000    
         3     11601   F -0.240345       0.00000       0.00000    
         3     11605   F -0.240345       0.00000       0.00000    
         3     11609   F -0.240345       0.00000       0.00000    
         3     11613   F -0.240345       0.00000       0.00000    
         3     11617   F -0.240345       0.00000       0.00000    
         3     11621   F -0.240345       0.00000       0.00000    
         3     11625   F -0.240345       0.00000       0.00000    
         3     11629   F -0.240345       0.00000       0.00000    
         3     11633   F -0.240345       0.00000       0.00000    
         3     11637   F -0.240345       0.00000       0.00000    
         3     11641   F -0.240345       0.00000       0.00000    
         3     11645   F -0.240345       0.00000       0.00000    
         3     11649   F -0.240345       0.00000       0.00000    
         3     11653   F -0.240345       0.00000       0.00000    
         3     11657   F -0.240345       0.00000       0.00000    
         3     11661   F -0.240345       0.00000       0.00000    
         3     11665   F -0.240345       0.00000       0.00000    
         3     11669   F -0.240345       0.00000       0.00000    
         3     11673   F -0.240345       0.00000       0.00000    
         3     11677   F -0.240345       0.00000       0.00000    
         3     11681   F -0.240345       0.00000       0.00000    
         3     11685   F -0.240345       0.00000       0.00000    
         3     11689   F -0.240345       0.00000       0.00000    
         3     11693   F -0.240345       0.00000       0.00000    
         3     11697   F -0.240345       0.00000       0.00000    
         3     11701   F -0.240345       0.00000       0.00000    
         3     11705   F -0.240345       0.00000       0.00000    
         3     11709   F -0.240345       0.00000       0.00000    
         3     11713   F -0.240345       0.00000       0.00000    
         3     11717   F -0.240345       0.00000       0.00000    
         3     11721   F -0.240345       0.00000       0.00000    
         3     11725   F -0.240345       0.00000       0.00000    
         3     11729   F -0.240345       0.00000       0.00000    
         3     11733   F -0.240345       0.00000       0.00000    
         3     11737   F -0.240345       0.00000       0.00000    
         3     11741   F -0.240345       0.00000       0.00000    
         3     11745   F -0.240345       0.00000       0.00000    
         3     11749   F -0.240345       0.00000       0.00000    
         3     11753   F -0.240345       0.00000       0.00000    
         3     11757   F -0.240345       0.00000       0.00000    
         3     11761   F -0.240345       0.00000       0.00000    
         3     11765   F -0.240345       0.00000       0.00000    
         3     11769   F -0.240345       0.00000       0.00000    
         3     11773   F -0.240345       0.00000       0.00000    
         3     11777   F -0.240345       0.00000       0.00000    
         3     11781   F -0.240345       0.00000       0.00000    
         3     11785   F -0.240345       0.00000       0.00000    
         3     11789   F -0.240345       0.00000       0.00000    
         3     11793   F -0.240345       0.00000       0.00000    
         3     11797   F -0.240345       0.00000       0.00000    
         3     11801   F -0.240345       0.00000       0.00000    
         3     11805   F -0.240345       0.00000       0.00000    
         3     11809   F -0.240345       0.00000       0.00000    
         3     11813   F -0.240345       0.00000       0.00000    
         3     11817   F -0.240345       0.00000       0.00000    
         3     11821   F -0.240345       0.00000       0.00000    
         3     11825   F -0.240345       0.00000       0.00000    
         3     11829   F -0.240345       0.00000       0.00000    
         3     11833   F -0.240345       0.00000       0.00000    
         3     11837   F -0.240345       0.00000       0.00000    
         3     11841   F -0.240345       0.00000       0.00000    
         3     11845   F -0.240345       0.00000       0.00000    
         3     11849   F -0.240345       0.00000       0.00000    
         3     11853   F -0.240345       0.00000       0.00000    
         3     11857   F -0.240345       0.00000       0.00000    
         3     11861   F -0.240345       0.00000       0.00000    
         3     11865   F -0.240345       0.00000       0.00000    
         3     11869   F -0.240345       0.00000       0.00000    
         3     11873   F -0.240345       0.00000       0.00000    
         3     11877   F -0.240345       0.00000       0.00000    
         3     11881   F -0.240345       0.00000       0.00000    
         3     11885   F -0.240345       0.00000       0.00000    
         3     11889   F -0.240345       0.00000       0.00000    
         3     11893   F -0.240345       0.00000       0.00000    
         3     11897   F -0.240345       0.00000       0.00000    
         3     11901   F -0.240345       0.00000       0.00000    
         3     11905   F -0.240345       0.00000       0.00000    
         3     11909   F -0.240345       0.00000       0.00000    
         3     11913   F -0.240345       0.00000       0.00000    
         3     11917   F -0.240345       0.00000       0.00000    
         3     11921   F -0.240345       0.00000       0.00000    
         3     11925   F -0.240345       0.00000       0.00000    
         3     11929   F -0.240345       0.00000       0.00000    
         3     11933   F -0.240345       0.00000       0.00000    
         3     11937   F -0.240345       0.00000       0.00000    
         3     11941   F -0.240345       0.00000       0.00000    
         3     11945   F -0.240345       0.00000       0.00000    
         3     11949   F -0.240345       0.00000       0.00000    
         3     11953   F -0.240345       0.00000       0.00000    
         3     11957   F -0.240345       0.00000       0.00000    
         3     11961   F -0.240345       0.00000       0.00000    
         3     11965   F -0.240345       0.00000       0.00000    
         3     11969   F -0.240345       0.00000       0.00000    
         3     11973   F -0.240345       0.00000       0.00000    
         3     11977   F -0.240345       0.00000       0.00000    
         3     11981   F -0.240345       0.00000       0.00000    
         3     11985   F -0.240345       0.00000       0.00000    
         3     11989   F -0.240345       0.00000       0.00000    
         3     11993   F -0.240345       0.00000       0.00000    
         3     11997   F -0.240345       0.00000       0.00000    
         3     12001   F -0.240345       0.00000       0.00000    
         3     12005   F -0.240345       0.00000       0.00000    
         3     12009   F -0.240345       0.00000       0.00000    
         3     12013   F -0.240345       0.00000       0.00000    
         3     12017   F -0.240345       0.00000       0.00000    
         3     12021   F -0.240345       0.00000       0.00000    
         3     12025   F -0.240345       0.00000       0.00000    
         3     12029   F -0.240345       0.00000       0.00000    
         3     12033   F -0.240345       0.00000       0.00000    
         3     12037   F -0.240345       0.00000       0.00000    
         3     12041   F -0.240345       0.00000       0.00000    
         3     12045   F -0.240345       0.00000       0.00000    
         3     12049   F -0.240345       0.00000       0.00000    
         3     12053   F -0.240345       0.00000       0.00000    
         3     12057   F -0.240345       0.00000       0.00000    
         3     12061   F -0.240345       0.00000       0.00000    
         3     12065   F -0.240345       0.00000       0.00000    
         3     12069   F -0.240345       0.00000       0.00000    
         3     12073   F -0.240345       0.00000       0.00000    
         3     12077   F -0.240345       0.00000       0.00000    
         3     12081   F -0.240345       0.00000       0.00000    
         3     12085   F -0.240345       0.00000       0.00000    
         3     12089   F -0.240345       0.00000       0.00000    
         3     12093   F -0.240345       0.00000       0.00000    
         3     12097   F -0.240345       0.00000       0.00000    
         3     12101   F -0.240345       0.00000       0.00000    
         3     12105   F -0.240345       0.00000       0.00000    
         3     12109   F -0.240345       0.00000       0.00000    
         3     12113   F -0.240345       0.00000       0.00000    
         3     12117   F -0.240345       0.00000       0.00000    
         3     12121   F -0.240345       0.00000       0.00000    
         3     12125   F -0.240345       0.00000       0.00000    
         3     12129   F -0.240345       0.00000       0.00000    
         3     12133   F -0.240345       0.00000       0.00000    
         3     12137   F -0.240345       0.00000       0.00000    
         3     12141   F -0.240345       0.00000       0.00000    
         3     12145   F -0.240345       0.00000       0.00000    
         3     12149   F -0.240345       0.00000       0.00000    
         3     12153   F -0.240345       0.00000       0.00000    
         3     12157   F -0.240345       0.00000       0.00000    
         3     12161   F -0.240345       0.00000       0.00000    
         3     12165   F -0.240345       0.00000       0.00000    
         3     12169   F -0.240345       0.00000       0.00000    
         3     12173   F -0.240345       0.00000       0.00000    
         3     12177   F -0.240345       0.00000       0.00000    
         3     12181   F -0.240345       0.00000       0.00000    
         3     12185   F -0.240345       0.00000       0.00000    
         3     12189   F -0.240345       0.00000       0.00000    
         3     12193   F -0.240345       0.00000       0.00000    
         3     12197   F -0.240345       0.00000       0.00000    
         3     12201   F -0.240345       0.00000       0.00000    
         3     12205   F -0.240345       0.00000       0.00000    
         3     12209   F -0.240345       0.00000       0.00000    
         3     12213   F -0.240345       0.00000       0.00000    
         3     12217   F -0.240345       0.00000       0.00000    
         3     12221   F -0.240345       0.00000       0.00000    
         3     12225   F -0.240345       0.00000       0.00000    
         3     12229   F -0.240345       0.00000       0.00000    
         3     12233   F -0.240345       0.00000       0.00000    
         3     12237   F -0.240345       0.00000       0.00000    
         3     12241   F -0.240345       0.00000       0.00000    
         3     12245   F -0.240345       0.00000       0.00000    
         3     12249   F -0.240345       0.00000       0.00000    
         3     12253   F -0.240345       0.00000       0.00000    
         3     12257   F -0.240345       0.00000       0.00000    
         3     12261   F -0.240345       0.00000       0.00000    
         3     12265   F -0.240345       0.00000       0.00000    
         3     12269   F -0.240345       0.00000       0.00000    
         3     12273   F -0.240345       0.00000       0.00000    
         3     12277   F -0.240345       0.00000       0.00000    
         3     12281   F -0.240345       0.00000       0.00000    
         3     12285   F -0.240345       0.00000       0.00000    
         3     12289   F -0.240345       0.00000       0.00000    
         3     12293   F -0.240345       0.00000       0.00000    
         3     12297   F -0.240345       0.00000       0.00000    
         3     12301   F -0.240345       0.00000       0.00000    
         3     12305   F -0.240345       0.00000       0.00000    
         3     12309   F -0.240345       0.00000       0.00000    
         3     12313   F -0.240345       0.00000       0.00000    
         3     12317   F -0.240345       0.00000       0.00000    
         3     12321   F -0.240345       0.00000       0.00000    
         3     12325   F -0.240345       0.00000       0.00000    
         3     12329   F -0.240345       0.00000       0.00000    
         3     12333   F -0.240345       0.00000       0.00000    
         3     12337   F -0.240345       0.00000       0.00000    
         3     12341   F -0.240345       0.00000       0.00000    
         3     12345   F -0.240345       0.00000       0.00000    
         3     12349   F -0.240345       0.00000       0.00000    
         3     12353   F -0.240345       0.00000       0.00000    
         3     12357   F -0.240345       0.00000       0.00000    
         3     12361   F -0.240345       0.00000       0.00000    
         3     12365   F -0.240345       0.00000       0.00000    
         3     12369   F -0.240345       0.00000       0.00000    
         3     12373   F -0.240345       0.00000       0.00000    
         3     12377   F -0.240345       0.00000       0.00000    
         3     12381   F -0.240345       0.00000       0.00000    
         3     12385   F -0.240345       0.00000       0.00000    
         3     12389   F -0.240345       0.00000       0.00000    
         3     12393   F -0.240345       0.00000       0.00000    
         3     12397   F -0.240345       0.00000       0.00000    
         3     12401   F -0.240345       0.00000       0.00000    
         3     12405   F -0.240345       0.00000       0.00000    
         3     12409   F -0.240345       0.00000       0.00000    
         3     12413   F -0.240345       0.00000       0.00000    
         3     12417   F -0.240345       0.00000       0.00000    
         3     12421   F -0.240345       0.00000       0.00000    
         3     12425   F -0.240345       0.00000       0.00000    
         3     12429   F -0.240345       0.00000       0.00000    
         3     12433   F -0.240345       0.00000       0.00000    
         3     12437   F -0.240345       0.00000       0.00000    
         3     12441   F -0.240345       0.00000       0.00000    
         3     12445   F -0.240345       0.00000       0.00000    
         3     12449   F -0.240345       0.00000       0.00000    
         3     12453   F -0.240345       0.00000       0.00000    
         3     12457   F -0.240345       0.00000       0.00000    
         3     12461   F -0.240345       0.00000       0.00000    
         3     12465   F -0.240345       0.00000       0.00000    
         3     12469   F -0.240345       0.00000       0.00000    
         3     12473   F -0.240345       0.00000       0.00000    
         3     12477   F -0.240345       0.00000       0.00000    
         3     12481   F -0.240345       0.00000       0.00000    
         3     12485   F -0.240345       0.00000       0.00000    
         3     12489   F -0.240345       0.00000       0.00000    
         3     12493   F -0.240345       0.00000       0.00000    
         3     12497   F -0.240345       0.00000       0.00000    
         3     12501   F -0.240345       0.00000       0.00000    
         3     12505   F -0.240345       0.00000       0.00000    
         3     12509   F -0.240345       0.00000       0.00000    
         3     12513   F -0.240345       0.00000       0.00000    
         3     12517   F -0.240345       0.00000       0.00000    
         3     12521   F -0.240345       0.00000       0.00000    
         3     12525   F -0.240345       0.00000       0.00000    
         3     12529   F -0.240345       0.00000       0.00000    
         3     12533   F -0.240345       0.00000       0.00000    
         3     12537   F -0.240345       0.00000       0.00000    
         3     12541   F -0.240345       0.00000       0.00000    
         3     12545   F -0.240345       0.00000       0.00000    
         3     12549   F -0.240345       0.00000       0.00000    
         3     12553   F -0.240345       0.00000       0.00000    
         3     12557   F -0.240345       0.00000       0.00000    
         3     12561   F -0.240345       0.00000       0.00000    
         3     12565   F -0.240345       0.00000       0.00000    
         3     12569   F -0.240345       0.00000       0.00000    
         3     12573   F -0.240345       0.00000       0.00000    
         3     12577   F -0.240345       0.00000       0.00000    
         3     12581   F -0.240345       0.00000       0.00000    
         3     12585   F -0.240345       0.00000       0.00000    
         3     12589   F -0.240345       0.00000       0.00000    
         3     12593   F -0.240345       0.00000       0.00000    
         3     12597   F -0.240345       0.00000       0.00000    
         3     12601   F -0.240345       0.00000       0.00000    
         3     12605   F -0.240345       0.00000       0.00000    
         3     12609   F -0.240345       0.00000       0.00000    
         3     12613   F -0.240345       0.00000       0.00000    
         3     12617   F -0.240345       0.00000       0.00000    
         3     12621   F -0.240345       0.00000       0.00000    
         3     12625   F -0.240345       0.00000       0.00000    
         3     12629   F -0.240345       0.00000       0.00000    
         3     12633   F -0.240345       0.00000       0.00000    
         3     12637   F -0.240345       0.00000       0.00000    
         3     12641   F -0.240345       0.00000       0.00000    
         3     12645   F -0.240345       0.00000       0.00000    
         3     12649   F -0.240345       0.00000       0.00000    
         3     12653   F -0.240345       0.00000       0.00000    
         3     12657   F -0.240345       0.00000       0.00000    
         3     12661   F -0.240345       0.00000       0.00000    
         3     12665   F -0.240345       0.00000       0.00000    
         3     12669   F -0.240345       0.00000       0.00000    
         3     12673   F -0.240345       0.00000       0.00000    
         3     12677   F -0.240345       0.00000       0.00000    
         3     12681   F -0.240345       0.00000       0.00000    
         3     12685   F -0.240345       0.00000       0.00000    
         3     12689   F -0.240345       0.00000       0.00000    
         3     12693   F -0.240345       0.00000       0.00000    
         3     12697   F -0.240345       0.00000       0.00000    
         3     12701   F -0.240345       0.00000       0.00000    
         3     12705   F -0.240345       0.00000       0.00000    
         3     12709   F -0.240345       0.00000       0.00000    
         3     12713   F -0.240345       0.00000       0.00000    
         3     12717   F -0.240345       0.00000       0.00000    
         3     12721   F -0.240345       0.00000       0.00000    
         3     12725   F -0.240345       0.00000       0.00000    
         3     12729   F -0.240345       0.00000       0.00000    
         3     12733   F -0.240345       0.00000       0.00000    
         3     12737   F -0.240345       0.00000       0.00000    
         3     12741   F -0.240345       0.00000       0.00000    
         3     12745   F -0.240345       0.00000       0.00000    
         3     12749   F -0.240345       0.00000       0.00000    
         3     12753   F -0.240345       0.00000       0.00000    
         3     12757   F -0.240345       0.00000       0.00000    
         3     12761   F -0.240345       0.00000       0.00000    
         3     12765   F -0.240345       0.00000       0.00000    
         3     12769   F -0.240345       0.00000       0.00000    
         3     12773   F -0.240345       0.00000       0.00000    
         3     12777   F -0.240345       0.00000       0.00000    
         3     12781   F -0.240345       0.00000       0.00000    
         3     12785   F -0.240345       0.00000       0.00000    
         3     12789   F -0.240345       0.00000       0.00000    
         3     12793   F -0.240345       0.00000       0.00000    
         3     12797   F -0.240345       0.00000       0.00000    
         3     12801   F -0.240345       0.00000       0.00000    
         3     12805   F -0.240345       0.00000       0.00000    
         3     12809   F -0.240345       0.00000       0.00000    
         3     12813   F -0.240345       0.00000       0.00000    
         3     12817   F -0.240345       0.00000       0.00000    
         3     12821   F -0.240345       0.00000       0.00000    
         3     12825   F -0.240345       0.00000       0.00000    
         3     12829   F -0.240345       0.00000       0.00000    
         3     12833   F -0.240345       0.00000       0.00000    
         3     12837   F -0.240345       0.00000       0.00000    
         3     12841   F -0.240345       0.00000       0.00000    
         3     12845   F -0.240345       0.00000       0.00000    
         3     12849   F -0.240345       0.00000       0.00000    
         3     12853   F -0.240345       0.00000       0.00000    
         3     12857   F -0.240345       0.00000       0.00000    
         3     12861   F -0.240345       0.00000       0.00000    
         3     12865   F -0.240345       0.00000       0.00000    
         3     12869   F -0.240345       0.00000       0.00000    
         3     12873   F -0.240345       0.00000       0.00000    
         3     12877   F -0.240345       0.00000       0.00000    
         3     12881   F -0.240345       0.00000       0.00000    
         3     12885   F -0.240345       0.00000       0.00000    
         3     12889   F -0.240345       0.00000       0.00000    
         3     12893   F -0.240345       0.00000       0.00000    
         3     12897   F -0.240345       0.00000       0.00000    
         3     12901   F -0.240345       0.00000       0.00000    
         3     12905   F -0.240345       0.00000       0.00000    
         3     12909   F -0.240345       0.00000       0.00000    
         3     12913   F -0.240345       0.00000       0.00000    
         3     12917   F -0.240345       0.00000       0.00000    
         3     12921   F -0.240345       0.00000       0.00000    
         3     12925   F -0.240345       0.00000       0.00000    
         3     12929   F -0.240345       0.00000       0.00000    
         3     12933   F -0.240345       0.00000       0.00000    
         3     12937   F -0.240345       0.00000       0.00000    
         3     12941   F -0.240345       0.00000       0.00000    
         3     12945   F -0.240345       0.00000       0.00000    
         3     12949   F -0.240345       0.00000       0.00000    
         3     12953   F -0.240345       0.00000       0.00000    
         3     12957   F -0.240345       0.00000       0.00000    
         3     12961   F -0.240345       0.00000       0.00000    
         3     12965   F -0.240345       0.00000       0.00000    
         3     12969   F -0.240345       0.00000       0.00000    
         3     12973   F -0.240345       0.00000       0.00000    
         3     12977   F -0.240345       0.00000       0.00000    
         3     12981   F -0.240345       0.00000       0.00000    
         3     12985   F -0.240345       0.00000       0.00000    
         3     12989   F -0.240345       0.00000       0.00000    
         3     12993   F -0.240345       0.00000       0.00000    
         3     12997   F -0.240345       0.00000       0.00000    
         3     13001   F -0.240345       0.00000       0.00000    
         3     13005   F -0.240345       0.00000       0.00000    
         3     13009   F -0.240345       0.00000       0.00000    
         3     13013   F -0.240345       0.00000       0.00000    
         3     13017   F -0.240345       0.00000       0.00000    
         3     13021   F -0.240345       0.00000       0.00000    
         3     13025   F -0.240345       0.00000       0.00000    
         3     13029   F -0.240345       0.00000       0.00000    
         3     13033   F -0.240345       0.00000       0.00000    
         3     13037   F -0.240345       0.00000       0.00000    
         3     13041   F -0.240345       0.00000       0.00000    
         3     13045   F -0.240345       0.00000       0.00000    
         3     13049   F -0.240345       0.00000       0.00000    
         3     13053   F -0.240345       0.00000       0.00000    
         3     13057   F -0.240345       0.00000       0.00000    
         3     13061   F -0.240345       0.00000       0.00000    
         3     13065   F -0.240345       0.00000       0.00000    
         3     13069   F -0.240345       0.00000       0.00000    
         3     13073   F -0.240345       0.00000       0.00000    
         3     13077   F -0.240345       0.00000       0.00000    
         3     13081   F -0.240345       0.00000       0.00000    
         3     13085   F -0.240345       0.00000       0.00000    
         3     13089   F -0.240345       0.00000       0.00000    
         3     13093   F -0.240345       0.00000       0.00000    
         3     13097   F -0.240345       0.00000       0.00000    
         3     13101   F -0.240345       0.00000       0.00000    
         3     13105   F -0.240345       0.00000       0.00000    
         3     13109   F -0.240345       0.00000       0.00000    
         3     13113   F -0.240345       0.00000       0.00000    
         3     13117   F -0.240345       0.00000       0.00000    
         3     13121   F -0.240345       0.00000       0.00000    
         3     13125   F -0.240345       0.00000       0.00000    
         3     13129   F -0.240345       0.00000       0.00000    
         3     13133   F -0.240345       0.00000       0.00000    
         3     13137   F -0.240345       0.00000       0.00000    
         3     13141   F -0.240345       0.00000       0.00000    
         3     13145   F -0.240345       0.00000       0.00000    
         3     13149   F -0.240345       0.00000       0.00000    
         3     13153   F -0.240345       0.00000       0.00000    
         3     13157   F -0.240345       0.00000       0.00000    
         3     13161   F -0.240345       0.00000       0.00000    
         3     13165   F -0.240345       0.00000       0.00000    
         3     13169   F -0.240345       0.00000       0.00000    
         3     13173   F -0.240345       0.00000       0.00000    
         3     13177   F -0.240345       0.00000       0.00000    
         3     13181   F -0.240345       0.00000       0.00000    
         3     13185   F -0.240345       0.00000       0.00000    
         3     13189   F -0.240345       0.00000       0.00000    
         3     13193   F -0.240345       0.00000       0.00000    
         3     13197   F -0.240345       0.00000       0.00000    
         3     13201   F -0.240345       0.00000       0.00000    
         3     13205   F -0.240345       0.00000       0.00000    
         3     13209   F -0.240345       0.00000       0.00000    
         3     13213   F -0.240345       0.00000       0.00000    
         3     13217   F -0.240345       0.00000       0.00000    
         3     13221   F -0.240345       0.00000       0.00000    
         3     13225   F -0.240345       0.00000       0.00000    
         3     13229   F -0.240345       0.00000       0.00000    
         3     13233   F -0.240345       0.00000       0.00000    
         3     13237   F -0.240345       0.00000       0.00000    
         3     13241   F -0.240345       0.00000       0.00000    
         3     13245   F -0.240345       0.00000       0.00000    
         3     13249   F -0.240345       0.00000       0.00000    
         3     13253   F -0.240345       0.00000       0.00000    
         3     13257   F -0.240345       0.00000       0.00000    
         3     13261   F -0.240345       0.00000       0.00000    
         3     13265   F -0.240345       0.00000       0.00000    
         3     13269   F -0.240345       0.00000       0.00000    
         3     13273   F -0.240345       0.00000       0.00000    
         3     13277   F -0.240345       0.00000       0.00000    
         3     13281   F -0.240345       0.00000       0.00000    
         3     13285   F -0.240345       0.00000       0.00000    
         3     13289   F -0.240345       0.00000       0.00000    
         3     13293   F -0.240345       0.00000       0.00000    
         3     13297   F -0.240345       0.00000       0.00000    
         3     13301   F -0.240345       0.00000       0.00000    
         3     13305   F -0.240345       0.00000       0.00000    
         3     13309   F -0.240345       0.00000       0.00000    
         3     13313   F -0.240345       0.00000       0.00000    
         3     13317   F -0.240345       0.00000       0.00000    
         3     13321   F -0.240345       0.00000       0.00000    
         3     13325   F -0.240345       0.00000       0.00000    
         3     13329   F -0.240345       0.00000       0.00000    
         3     13333   F -0.240345       0.00000       0.00000    
         3     13337   F -0.240345       0.00000       0.00000    
         3     13341   F -0.240345       0.00000       0.00000    
         3     13345   F -0.240345       0.00000       0.00000    
         3     13349   F -0.240345       0.00000       0.00000    
         3     13353   F -0.240345       0.00000       0.00000    
         3     13357   F -0.240345       0.00000       0.00000    
         3     13361   F -0.240345       0.00000       0.00000    
         3     13365   F -0.240345       0.00000       0.00000    
         3     13369   F -0.240345       0.00000       0.00000    
         3     13373   F -0.240345       0.00000       0.00000    
         3     13377   F -0.240345       0.00000       0.00000    
         3     13381   F -0.240345       0.00000       0.00000    
         3     13385   F -0.240345       0.00000       0.00000    
         3     13389   F -0.240345       0.00000       0.00000    
         3     13393   F -0.240345       0.00000       0.00000    
         3     13397   F -0.240345       0.00000       0.00000    
         3     13401   F -0.240345       0.00000       0.00000    
         3     13405   F -0.240345       0.00000       0.00000    
         3     13409   F -0.240345       0.00000       0.00000    
         3     13413   F -0.240345       0.00000       0.00000    
         3     13417   F -0.240345       0.00000       0.00000    
         3     13421   F -0.240345       0.00000       0.00000    
         3     13425   F -0.240345       0.00000       0.00000    
         3     13429   F -0.240345       0.00000       0.00000    
         3     13433   F -0.240345       0.00000       0.00000    
         3     13437   F -0.240345       0.00000       0.00000    
         3     13441   F -0.240345       0.00000       0.00000    
         3     13445   F -0.240345       0.00000       0.00000    
         3     13449   F -0.240345       0.00000       0.00000    
         3     13453   F -0.240345       0.00000       0.00000    
         3     13457   F -0.240345       0.00000       0.00000    
         3     13461   F -0.240345       0.00000       0.00000    
         3     13465   F -0.240345       0.00000       0.00000    
         3     13469   F -0.240345       0.00000       0.00000    
         3     13473   F -0.240345       0.00000       0.00000    
         3     13477   F -0.240345       0.00000       0.00000    
         3     13481   F -0.240345       0.00000       0.00000    
         3     13485   F -0.240345       0.00000       0.00000    
         3     13489   F -0.240345       0.00000       0.00000    
         3     13493   F -0.240345       0.00000       0.00000    
         3     13497   F -0.240345       0.00000       0.00000    
         3     13501   F -0.240345       0.00000       0.00000    
         3     13505   F -0.240345       0.00000       0.00000    
         3     13509   F -0.240345       0.00000       0.00000    
         3     13513   F -0.240345       0.00000       0.00000    
         3     13517   F -0.240345       0.00000       0.00000    
         3     13521   F -0.240345       0.00000       0.00000    
         3     13525   F -0.240345       0.00000       0.00000    
         3     13529   F -0.240345       0.00000       0.00000    
         3     13533   F -0.240345       0.00000       0.00000    
         3     13537   F -0.240345       0.00000       0.00000    
         3     13541   F -0.240345       0.00000       0.00000    
         3     13545   F -0.240345       0.00000       0.00000    
         3     13549   F -0.240345       0.00000       0.00000    
         3     13553   F -0.240345       0.00000       0.00000    
         3     13557   F -0.240345       0.00000       0.00000    
         3     13561   F -0.240345       0.00000       0.00000    
         3     13565   F -0.240345       0.00000       0.00000    
         3     13569   F -0.240345       0.00000       0.00000    
         3     13573   F -0.240345       0.00000       0.00000    
         3     13577   F -0.240345       0.00000       0.00000    
         3     13581   F -0.240345       0.00000       0.00000    
         3     13585   F -0.240345       0.00000       0.00000    
         3     13589   F -0.240345       0.00000       0.00000    
         3     13593   F -0.240345       0.00000       0.00000    
         3     13597   F -0.240345       0.00000       0.00000    
         3     13601   F -0.240345       0.00000       0.00000    
         3     13605   F -0.240345       0.00000       0.00000    
         3     13609   F -0.240345       0.00000       0.00000    
         3     13613   F -0.240345       0.00000       0.00000    
         3     13617   F -0.240345       0.00000       0.00000    
         3     13621   F -0.240345       0.00000       0.00000    
         3     13625   F -0.240345       0.00000       0.00000    
         3     13629   F -0.240345       0.00000       0.00000    
         3     13633   F -0.240345       0.00000       0.00000    
         3     13637   F -0.240345       0.00000       0.00000    
         3     13641   F -0.240345       0.00000       0.00000    
         3     13645   F -0.240345       0.00000       0.00000    
         3     13649   F -0.240345       0.00000       0.00000    
         3     13653   F -0.240345       0.00000       0.00000    
         3     13657   F -0.240345       0.00000       0.00000    
         3     13661   F -0.240345       0.00000       0.00000    
         3     13665   F -0.240345       0.00000       0.00000    
         3     13669   F -0.240345       0.00000       0.00000    
         3     13673   F -0.240345       0.00000       0.00000    
         3     13677   F -0.240345       0.00000       0.00000    
         3     13681   F -0.240345       0.00000       0.00000    
         3     13685   F -0.240345       0.00000       0.00000    
         3     13689   F -0.240345       0.00000       0.00000    
         3     13693   F -0.240345       0.00000       0.00000    
         3     13697   F -0.240345       0.00000       0.00000    
         3     13701   F -0.240345       0.00000       0.00000    
         3     13705   F -0.240345       0.00000       0.00000    
         3     13709   F -0.240345       0.00000       0.00000    
         3     13713   F -0.240345       0.00000       0.00000    
         3     13717   F -0.240345       0.00000       0.00000    
         3     13721   F -0.240345       0.00000       0.00000    
         3     13725   F -0.240345       0.00000       0.00000    
         3     13729   F -0.240345       0.00000       0.00000    
         3     13733   F -0.240345       0.00000       0.00000    
         3     13737   F -0.240345       0.00000       0.00000    
         3     13741   F -0.240345       0.00000       0.00000    
         3     13745   F -0.240345       0.00000       0.00000    
         3     13749   F -0.240345       0.00000       0.00000    
         3     13753   F -0.240345       0.00000       0.00000    
         3     13757   F -0.240345       0.00000       0.00000    
         3     13761   F -0.240345       0.00000       0.00000    
         3     13765   F -0.240345       0.00000       0.00000    
         3     13769   F -0.240345       0.00000       0.00000    
         3     13773   F -0.240345       0.00000       0.00000    
         3     13777   F -0.240345       0.00000       0.00000    
         3     13781   F -0.240345       0.00000       0.00000    
         3     13785   F -0.240345       0.00000       0.00000    
         3     13789   F -0.240345       0.00000       0.00000    
         3     13793   F -0.240345       0.00000       0.00000    
         3     13797   F -0.240345       0.00000       0.00000    
         3     13801   F -0.240345       0.00000       0.00000    
         3     13805   F -0.240345       0.00000       0.00000    
         3     13809   F -0.240345       0.00000       0.00000    
         3     13813   F -0.240345       0.00000       0.00000    
         3     13817   F -0.240345       0.00000       0.00000    
         3     13821   F -0.240345       0.00000       0.00000    
         3     13825   F -0.240345       0.00000       0.00000    
         3     13829   F -0.240345       0.00000       0.00000    
         3     13833   F -0.240345       0.00000       0.00000    
         3     13837   F -0.240345       0.00000       0.00000    
         3     13841   F -0.240345       0.00000       0.00000    
         3     13845   F -0.240345       0.00000       0.00000    
         3     13849   F -0.240345       0.00000       0.00000    
         3     13853   F -0.240345       0.00000       0.00000    
         3     13857   F -0.240345       0.00000       0.00000    
         3     13861   F -0.240345       0.00000       0.00000    
         3     13865   F -0.240345       0.00000       0.00000    
         3     13869   F -0.240345       0.00000       0.00000    
         3     13873   F -0.240345       0.00000       0.00000    
         3     13877   F -0.240345       0.00000       0.00000    
         3     13881   F -0.240345       0.00000       0.00000    
         3     13885   F -0.240345       0.00000       0.00000    
         3     13889   F -0.240345       0.00000       0.00000    
         3     13893   F -0.240345       0.00000       0.00000    
         3     13897   F -0.240345       0.00000       0.00000    
         3     13901   F -0.240345       0.00000       0.00000    
         3     13905   F -0.240345       0.00000       0.00000    
         3     13909   F -0.240345       0.00000       0.00000    
         3     13913   F -0.240345       0.00000       0.00000    
         3     13917   F -0.240345       0.00000       0.00000    
         3     13921   F -0.240345       0.00000       0.00000    
         3     13925   F -0.240345       0.00000       0.00000    
         3     13929   F -0.240345       0.00000       0.00000    
         3     13933   F -0.240345       0.00000       0.00000    
         3     13937   F -0.240345       0.00000       0.00000    
         3     13941   F -0.240345       0.00000       0.00000    
         3     13945   F -0.240345       0.00000       0.00000    
         3     13949   F -0.240345       0.00000       0.00000    
         3     13953   F -0.240345       0.00000       0.00000    
         3     13957   F -0.240345       0.00000       0.00000    
         3     13961   F -0.240345       0.00000       0.00000    
         3     13965   F -0.240345       0.00000       0.00000    
         3     13969   F -0.240345       0.00000       0.00000    
         3     13973   F -0.240345       0.00000       0.00000    
         3     13977   F -0.240345       0.00000       0.00000    
         3     13981   F -0.240345       0.00000       0.00000    
         3     13985   F -0.240345       0.00000       0.00000    
         3     13989   F -0.240345       0.00000       0.00000    
         3     13993   F -0.240345       0.00000       0.00000    
         3     13997   F -0.240345       0.00000       0.00000    
         3     14001   F -0.240345       0.00000       0.00000    
         3     14005   F -0.240345       0.00000       0.00000    
         3     14009   F -0.240345       0.00000       0.00000    
         3     14013   F -0.240345       0.00000       0.00000    
         3     14017   F -0.240345       0.00000       0.00000    
         3     14021   F -0.240345       0.00000       0.00000    
         3     14025   F -0.240345       0.00000       0.00000    
         3     14029   F -0.240345       0.00000       0.00000    
         3     14033   F -0.240345       0.00000       0.00000    
         3     14037   F -0.240345       0.00000       0.00000    
         3     14041   F -0.240345       0.00000       0.00000    
         3     14045   F -0.240345       0.00000       0.00000    
         3     14049   F -0.240345       0.00000       0.00000    
         3     14053   F -0.240345       0.00000       0.00000    
         3     14057   F -0.240345       0.00000       0.00000    
         3     14061   F -0.240345       0.00000       0.00000    
         3     14065   F -0.240345       0.00000       0.00000    
         3     14069   F -0.240345       0.00000       0.00000    
         3     14073   F -0.240345       0.00000       0.00000    
         3     14077   F -0.240345       0.00000       0.00000    
         3     14081   F -0.240345       0.00000       0.00000    
         3     14085   F -0.240345       0.00000       0.00000    
         3     14089   F -0.240345       0.00000       0.00000    
         3     14093   F -0.240345       0.00000       0.00000    
         3     14097   F -0.240345       0.00000       0.00000    
         3     14101   F -0.240345       0.00000       0.00000    
         3     14105   F -0.240345       0.00000       0.00000    
         3     14109   F -0.240345       0.00000       0.00000    
         3     14113   F -0.240345       0.00000       0.00000    
         3     14117   F -0.240345       0.00000       0.00000    
         3     14121   F -0.240345       0.00000       0.00000    
         3     14125   F -0.240345       0.00000       0.00000    
         3     14129   F -0.240345       0.00000       0.00000    
         3     14133   F -0.240345       0.00000       0.00000    
         3     14137   F -0.240345       0.00000       0.00000    
         3     14141   F -0.240345       0.00000       0.00000    
         3     14145   F -0.240345       0.00000       0.00000    
         3     14149   F -0.240345       0.00000       0.00000    
         3     14153   F -0.240345       0.00000       0.00000    
         3     14157   F -0.240345       0.00000       0.00000    
         3     14161   F -0.240345       0.00000       0.00000    
         3     14165   F -0.240345       0.00000       0.00000    
         3     14169   F -0.240345       0.00000       0.00000    
         3     14173   F -0.240345       0.00000       0.00000    
         3     14177   F -0.240345       0.00000       0.00000    
         3     14181   F -0.240345       0.00000       0.00000    
         3     14185   F -0.240345       0.00000       0.00000    
         3     14189   F -0.240345       0.00000       0.00000    
         3     14193   F -0.240345       0.00000       0.00000    
         3     14197   F -0.240345       0.00000       0.00000    
         3     14201   F -0.240345       0.00000       0.00000    
         3     14205   F -0.240345       0.00000       0.00000    
         3     14209   F -0.240345       0.00000       0.00000    
         3     14213   F -0.240345       0.00000       0.00000    
         3     14217   F -0.240345       0.00000       0.00000    
         3     14221   F -0.240345       0.00000       0.00000    
         3     14225   F -0.240345       0.00000       0.00000    
         3     14229   F -0.240345       0.00000       0.00000    
         3     14233   F -0.240345       0.00000       0.00000    
         3     14237   F -0.240345       0.00000       0.00000    
         3     14241   F -0.240345       0.00000       0.00000    
         3     14245   F -0.240345       0.00000       0.00000    
         3     14249   F -0.240345       0.00000       0.00000    
         3     14253   F -0.240345       0.00000       0.00000    
         3     14257   F -0.240345       0.00000       0.00000    
         3     14261   F -0.240345       0.00000       0.00000    
         3     14265   F -0.240345       0.00000       0.00000    
         3     14269   F -0.240345       0.00000       0.00000    
         3     14273   F -0.240345       0.00000       0.00000    
         3     14277   F -0.240345       0.00000       0.00000    
         3     14281   F -0.240345       0.00000       0.00000    
         3     14285   F -0.240345       0.00000       0.00000    
         3     14289   F -0.240345       0.00000       0.00000    
         3     14293   F -0.240345       0.00000       0.00000    
         3     14297   F -0.240345       0.00000       0.00000    
         3     14301   F -0.240345       0.00000       0.00000    
         3     14305   F -0.240345       0.00000       0.00000    
         3     14309   F -0.240345       0.00000       0.00000    
         3     14313   F -0.240345       0.00000       0.00000    
         3     14317   F -0.240345       0.00000       0.00000    
         3     14321   F -0.240345       0.00000       0.00000    
         3     14325   F -0.240345       0.00000       0.00000    
         3     14329   F -0.240345       0.00000       0.00000    
         3     14333   F -0.240345       0.00000       0.00000    
         3     14337   F -0.240345       0.00000       0.00000    
         3     14341   F -0.240345       0.00000       0.00000    
         3     14345   F -0.240345       0.00000       0.00000    
         3     14349   F -0.240345       0.00000       0.00000    
         3     14353   F -0.240345       0.00000       0.00000    
         3     14357   F -0.240345       0.00000       0.00000    
         3     14361   F -0.240345       0.00000       0.00000    
         3     14365   F -0.240345       0.00000       0.00000    
         3     14369   F -0.240345       0.00000       0.00000    
         3     14373   F -0.240345       0.00000       0.00000    
         3     14377   F -0.240345       0.00000       0.00000    
         3     14381   F -0.240345       0.00000       0.00000    
         3     14385   F -0.240345       0.00000       0.00000    
         3     14389   F -0.240345       0.00000       0.00000    
         3     14393   F -0.240345       0.00000       0.00000    
         3     14397   F -0.240345       0.00000       0.00000    
         3     14401   F -0.240345       0.00000       0.00000    
         3     14405   F -0.240345       0.00000       0.00000    
         3     14409   F -0.240345       0.00000       0.00000    
         3     14413   F -0.240345       0.00000       0.00000    
         3     14417   F -0.240345       0.00000       0.00000    
         3     14421   F -0.240345       0.00000       0.00000    
         3     14425   F -0.240345       0.00000       0.00000    
         3     14429   F -0.240345       0.00000       0.00000    
         3     14433   F -0.240345       0.00000       0.00000    
         3     14437   F -0.240345       0.00000       0.00000    
         3     14441   F -0.240345       0.00000       0.00000    
         3     14445   F -0.240345       0.00000       0.00000    
         3     14449   F -0.240345       0.00000       0.00000    
         3     14453   F -0.240345       0.00000       0.00000    
         3     14457   F -0.240345       0.00000       0.00000    
         3     14461   F -0.240345       0.00000       0.00000    
         3     14465   F -0.240345       0.00000       0.00000    
         3     14469   F -0.240345       0.00000       0.00000    
         3     14473   F -0.240345       0.00000       0.00000    
         3     14477   F -0.240345       0.00000       0.00000    
         3     14481   F -0.240345       0.00000       0.00000    
         3     14485   F -0.240345       0.00000       0.00000    
         3     14489   F -0.240345       0.00000       0.00000    
         3     14493   F -0.240345       0.00000       0.00000    
         3     14497   F -0.240345       0.00000       0.00000    
         3     14501   F -0.240345       0.00000       0.00000    
         3     14505   F -0.240345       0.00000       0.00000    
         3     14509   F -0.240345       0.00000       0.00000    
         3     14513   F -0.240345       0.00000       0.00000    
         3     14517   F -0.240345       0.00000       0.00000    
         3     14521   F -0.240345       0.00000       0.00000    
         3     14525   F -0.240345       0.00000       0.00000    
         3     14529   F -0.240345       0.00000       0.00000    
         3     14533   F -0.240345       0.00000       0.00000    
         3     14537   F -0.240345       0.00000       0.00000    
         3     14541   F -0.240345       0.00000       0.00000    
         3     14545   F -0.240345       0.00000       0.00000    
         3     14549   F -0.240345       0.00000       0.00000    
         3     14553   F -0.240345       0.00000       0.00000    
         3     14557   F -0.240345       0.00000       0.00000    
         3     14561   F -0.240345       0.00000       0.00000    
         3     14565   F -0.240345       0.00000       0.00000    
         3     14569   F -0.240345       0.00000       0.00000    
         3     14573   F -0.240345       0.00000       0.00000    
         3     14577   F -0.240345       0.00000       0.00000    
         3     14581   F -0.240345       0.00000       0.00000    
         3     14585   F -0.240345       0.00000       0.00000    
         3     14589   F -0.240345       0.00000       0.00000    
         3     14593   F -0.240345       0.00000       0.00000    
         3     14597   F -0.240345       0.00000       0.00000    
         3     14601   F -0.240345       0.00000       0.00000    
         3     14605   F -0.240345       0.00000       0.00000    
         3     14609   F -0.240345       0.00000       0.00000    
         3     14613   F -0.240345       0.00000       0.00000    
         3     14617   F -0.240345       0.00000       0.00000    
         3     14621   F -0.240345       0.00000       0.00000    
         3     14625   F -0.240345       0.00000       0.00000    
         3     14629   F -0.240345       0.00000       0.00000    
         3     14633   F -0.240345       0.00000       0.00000    
         3     14637   F -0.240345       0.00000       0.00000    
         3     14641   F -0.240345       0.00000       0.00000    
         3     14645   F -0.240345       0.00000       0.00000    
         3     14649   F -0.240345       0.00000       0.00000    
         3     14653   F -0.240345       0.00000       0.00000    
         3     14657   F -0.240345       0.00000       0.00000    
         3     14661   F -0.240345       0.00000       0.00000    
         3     14665   F -0.240345       0.00000       0.00000    
         3     14669   F -0.240345       0.00000       0.00000    
         3     14673   F -0.240345       0.00000       0.00000    
         3     14677   F -0.240345       0.00000       0.00000    
         3     14681   F -0.240345       0.00000       0.00000    
         3     14685   F -0.240345       0.00000       0.00000    
         3     14689   F -0.240345       0.00000       0.00000    
         3     14693   F -0.240345       0.00000       0.00000    
         3     14697   F -0.240345       0.00000       0.00000    
         3     14701   F -0.240345       0.00000       0.00000    
         3     14705   F -0.240345       0.00000       0.00000    
         3     14709   F -0.240345       0.00000       0.00000    
         3     14713   F -0.240345       0.00000       0.00000    
         3     14717   F -0.240345       0.00000       0.00000    
         3     14721   F -0.240345       0.00000       0.00000    
         3     14725   F -0.240345       0.00000       0.00000    
         3     14729   F -0.240345       0.00000       0.00000    
         3     14733   F -0.240345       0.00000       0.00000    
         3     14737   F -0.240345       0.00000       0.00000    
         3     14741   F -0.240345       0.00000       0.00000    
         3     14745   F -0.240345       0.00000       0.00000    
         3     14749   F -0.240345       0.00000       0.00000    
         3     14753   F -0.240345       0.00000       0.00000    
         3     14757   F -0.240345       0.00000       0.00000    
         3     14761   F -0.240345       0.00000       0.00000    
         3     14765   F -0.240345       0.00000       0.00000    
         3     14769   F -0.240345       0.00000       0.00000    
         3     14773   F -0.240345       0.00000       0.00000    
         3     14777   F -0.240345       0.00000       0.00000    
         3     14781   F -0.240345       0.00000       0.00000    
         3     14785   F -0.240345       0.00000       0.00000    
         3     14789   F -0.240345       0.00000       0.00000    
         3     14793   F -0.240345       0.00000       0.00000    
         3     14797   F -0.240345       0.00000       0.00000    
         3     14801   F -0.240345       0.00000       0.00000    
         3     14805   F -0.240345       0.00000       0.00000    
         3     14809   F -0.240345       0.00000       0.00000    
         3     14813   F -0.240345       0.00000       0.00000    
         3     14817   F -0.240345       0.00000       0.00000    
         3     14821   F -0.240345       0.00000       0.00000    
         3     14825   F -0.240345       0.00000       0.00000    
         3     14829   F -0.240345       0.00000       0.00000    
         3     14833   F -0.240345       0.00000       0.00000    
         3     14837   F -0.240345       0.00000       0.00000    
         3     14841   F -0.240345       0.00000       0.00000    
         3     14845   F -0.240345       0.00000       0.00000    
         3     14849   F -0.240345       0.00000       0.00000    
         3     14853   F -0.240345       0.00000       0.00000    
         3     14857   F -0.240345       0.00000       0.00000    
         3     14861   F -0.240345       0.00000       0.00000    
         3     14865   F -0.240345       0.00000       0.00000    
         3     14869   F -0.240345       0.00000       0.00000    
         3     14873   F -0.240345       0.00000       0.00000    
         3     14877   F -0.240345       0.00000       0.00000    
         3     14881   F -0.240345       0.00000       0.00000    
         3     14885   F -0.240345       0.00000       0.00000    
         3     14889   F -0.240345       0.00000       0.00000    
         3     14893   F -0.240345       0.00000       0.00000    
         3     14897   F -0.240345       0.00000       0.00000    
         3     14901   F -0.240345       0.00000       0.00000    
         3     14905   F -0.240345       0.00000       0.00000    
         3     14909   F -0.240345       0.00000       0.00000    
         3     14913   F -0.240345       0.00000       0.00000    
         3     14917   F -0.240345       0.00000       0.00000    
         3     14921   F -0.240345       0.00000       0.00000    
         3     14925   F -0.240345       0.00000       0.00000    
         3     14929   F -0.240345       0.00000       0.00000    
         3     14933   F -0.240345       0.00000       0.00000    
         3     14937   F -0.240345       0.00000       0.00000    
         3     14941   F -0.240345       0.00000       0.00000    
         3     14945   F -0.240345       0.00000       0.00000    
         3     14949   F -0.240345       0.00000       0.00000    
         3     14953   F -0.240345       0.00000       0.00000    
         3     14957   F -0.240345       0.00000       0.00000    
         3     14961   F -0.240345       0.00000       0.00000    
         3     14965   F -0.240345       0.00000       0.00000    
         3     14969   F -0.240345       0.00000       0.00000    
         3     14973   F -0.240345       0.00000       0.00000    
         3     14977   F -0.240345       0.00000       0.00000    
         3     14981   F -0.240345       0.00000       0.00000    
         3     14985   F -0.240345       0.00000       0.00000    
         3     14989   F -0.240345       0.00000       0.00000    
         3     14993   F -0.240345       0.00000       0.00000    
         3     14997   F -0.240345       0.00000       0.00000    
         3     15001   F -0.240345       0.00000       0.00000    
         3     15005   F -0.240345       0.00000       0.00000    
         3     15009   F -0.240345       0.00000       0.00000    
         3     15013   F -0.240345       0.00000       0.00000    
         3     15017   F -0.240345       0.00000       0.00000    
         3     15021   F -0.240345       0.00000       0.00000    
         3     15025   F -0.240345       0.00000       0.00000    
         3     15029   F -0.240345       0.00000       0.00000    
         3     15033   F -0.240345       0.00000       0.00000    
         3     15037   F -0.240345       0.00000       0.00000    
         3     15041   F -0.240345       0.00000       0.00000    
         3     15045   F -0.240345       0.00000       0.00000    
         3     15049   F -0.240345       0.00000       0.00000    
         3     15053   F -0.240345       0.00000       0.00000    
         3     15057   F -0.240345       0.00000       0.00000    
         3     15061   F -0.240345       0.00000       0.00000    
         3     15065   F -0.240345       0.00000       0.00000    
         3     15069   F -0.240345       0.00000       0.00000    
         3     15073   F -0.240345       0.00000       0.00000    
         3     15077   F -0.240345       0.00000       0.00000    
         3     15081   F -0.240345       0.00000       0.00000    
         3     15085   F -0.240345       0.00000       0.00000    
         3     15089   F -0.240345       0.00000       0.00000    
         3     15093   F -0.240345       0.00000       0.00000    
         3     15097   F -0.240345       0.00000       0.00000    
         3     15101   F -0.240345       0.00000       0.00000    
         3     15105   F -0.240345       0.00000       0.00000    
         3     15109   F -0.240345       0.00000       0.00000    
         3     15113   F -0.240345       0.00000       0.00000    
         3     15117   F -0.240345       0.00000       0.00000    
         3     15121   F -0.240345       0.00000       0.00000    
         3     15125   F -0.240345       0.00000       0.00000    
         3     15129   F -0.240345       0.00000       0.00000    
         3     15133   F -0.240345       0.00000       0.00000    
         3     15137   F -0.240345       0.00000       0.00000    
         3     15141   F -0.240345       0.00000       0.00000    
         3     15145   F -0.240345       0.00000       0.00000    
         3     15149   F -0.240345       0.00000       0.00000    
         3     15153   F -0.240345       0.00000       0.00000    
         3     15157   F -0.240345       0.00000       0.00000    
         3     15161   F -0.240345       0.00000       0.00000    
         3     15165   F -0.240345       0.00000       0.00000    
         3     15169   F -0.240345       0.00000       0.00000    
         3     15173   F -0.240345       0.00000       0.00000    
         3     15177   F -0.240345       0.00000       0.00000    
         3     15181   F -0.240345       0.00000       0.00000    
         3     15185   F -0.240345       0.00000       0.00000    
         3     15189   F -0.240345       0.00000       0.00000    
         3     15193   F -0.240345       0.00000       0.00000    
         3     15197   F -0.240345       0.00000       0.00000    
         3     15201   F -0.240345       0.00000       0.00000    
         3     15205   F -0.240345       0.00000       0.00000    
         3     15209   F -0.240345       0.00000       0.00000    
         3     15213   F -0.240345       0.00000       0.00000    
         3     15217   F -0.240345       0.00000       0.00000    
         3     15221   F -0.240345       0.00000       0.00000    
         3     15225   F -0.240345       0.00000       0.00000    
         3     15229   F -0.240345       0.00000       0.00000    
         3     15233   F -0.240345       0.00000       0.00000    
         3     15237   F -0.240345       0.00000       0.00000    
         3     15241   F -0.240345       0.00000       0.00000    
         3     15245   F -0.240345       0.00000       0.00000    
         3     15249   F -0.240345       0.00000       0.00000    
         3     15253   F -0.240345       0.00000       0.00000    
         3     15257   F -0.240345       0.00000       0.00000    
         3     15261   F -0.240345       0.00000       0.00000    
         3     15265   F -0.240345       0.00000       0.00000    
         3     15269   F -0.240345       0.00000       0.00000    
         3     15273   F -0.240345       0.00000       0.00000    
         3     15277   F -0.240345       0.00000       0.00000    
         3     15281   F -0.240345       0.00000       0.00000    
         3     15285   F -0.240345       0.00000       0.00000    
         3     15289   F -0.240345       0.00000       0.00000    
         3     15293   F -0.240345       0.00000       0.00000    
         3     15297   F -0.240345       0.00000       0.00000    
         3     15301   F -0.240345       0.00000       0.00000    
         3     15305   F -0.240345       0.00000       0.00000    
         3     15309   F -0.240345       0.00000       0.00000    
         3     15313   F -0.240345       0.00000       0.00000    
         3     15317   F -0.240345       0.00000       0.00000    
         3     15321   F -0.240345       0.00000       0.00000    
         3     15325   F -0.240345       0.00000       0.00000    
         3     15329   F -0.240345       0.00000       0.00000    
         3     15333   F -0.240345       0.00000       0.00000    
         3     15337   F -0.240345       0.00000       0.00000    
         3     15341   F -0.240345       0.00000       0.00000    
         3     15345   F -0.240345       0.00000       0.00000    
         3     15349   F -0.240345       0.00000       0.00000    
         3     15353   F -0.240345       0.00000       0.00000    
         3     15357   F -0.240345       0.00000       0.00000    
         3     15361   F -0.240345       0.00000       0.00000    
         3     15365   F -0.240345       0.00000       0.00000    
         3     15369   F -0.240345       0.00000       0.00000    
         3     15373   F -0.240345       0.00000       0.00000    
         3     15377   F -0.240345       0.00000       0.00000    
         3     15381   F -0.240345       0.00000       0.00000    
         3     15385   F -0.240345       0.00000       0.00000    
         3     15389   F -0.240345       0.00000       0.00000    
         3     15393   F -0.240345       0.00000       0.00000    
         3     15397   F -0.240345       0.00000       0.00000    
         3     15401   F -0.240345       0.00000       0.00000    
         3     15405   F -0.240345       0.00000       0.00000    
         3     15409   F -0.240345       0.00000       0.00000    
         3     15413   F -0.240345       0.00000       0.00000    
         3     15417   F -0.240345       0.00000       0.00000    
         3     15421   F -0.240345       0.00000       0.00000    
         3     15425   F -0.240345       0.00000       0.00000    
         3     15429   F -0.240345       0.00000       0.00000    
         3     15433   F -0.240345       0.00000       0.00000    
         3     15437   F -0.240345       0.00000       0.00000    
         3     15441   F -0.240345       0.00000       0.00000    
         3     15445   F -0.240345       0.00000       0.00000    
         3     15449   F -0.240345       0.00000       0.00000    
         3     15453   F -0.240345       0.00000       0.00000    
         3     15457   F -0.240345       0.00000       0.00000    
         3     15461   F -0.240345       0.00000       0.00000    
         3     15465   F -0.240345       0.00000       0.00000    
         3     15469   F -0.240345       0.00000       0.00000    
         3     15473   F -0.240345       0.00000       0.00000    
         3     15477   F -0.240345       0.00000       0.00000    
         3     15481   F -0.240345       0.00000       0.00000    
         3     15485   F -0.240345       0.00000       0.00000    
         3     15489   F -0.240345       0.00000       0.00000    
         3     15493   F -0.240345       0.00000       0.00000    
         3     15497   F -0.240345       0.00000       0.00000    
         3     15501   F -0.240345       0.00000       0.00000    
         3     15505   F -0.240345       0.00000       0.00000    
         3     15509   F -0.240345       0.00000       0.00000    
         3     15513   F -0.240345       0.00000       0.00000    
         3     15517   F -0.240345       0.00000       0.00000    
         3     15521   F -0.240345       0.00000       0.00000    
         3     15525   F -0.240345       0.00000       0.00000    
         3     15529   F -0.240345       0.00000       0.00000    
         3     15533   F -0.240345       0.00000       0.00000    
         3     15537   F -0.240345       0.00000       0.00000    
         3     15541   F -0.240345       0.00000       0.00000    
         3     15545   F -0.240345       0.00000       0.00000    
         3     15549   F -0.240345       0.00000       0.00000    
         3     15553   F -0.240345       0.00000       0.00000    
         3     15557   F -0.240345       0.00000       0.00000    
         3     15561   F -0.240345       0.00000       0.00000    
         3     15565   F -0.240345       0.00000       0.00000    
         3     15569   F -0.240345       0.00000       0.00000    
         3     15573   F -0.240345       0.00000       0.00000    
         3     15577   F -0.240345       0.00000       0.00000    
         3     15581   F -0.240345       0.00000       0.00000    
         3     15585   F -0.240345       0.00000       0.00000    
         3     15589   F -0.240345       0.00000       0.00000    
         3     15593   F -0.240345       0.00000       0.00000    
         3     15597   F -0.240345       0.00000       0.00000    
         3     15601   F -0.240345       0.00000       0.00000    
         3     15605   F -0.240345       0.00000       0.00000    
         3     15609   F -0.240345       0.00000       0.00000    
         3     15613   F -0.240345       0.00000       0.00000    
         3     15617   F -0.240345       0.00000       0.00000    
         3     15621   F -0.240345       0.00000       0.00000    
         3     15625   F -0.240345       0.00000       0.00000    
         3     15629   F -0.240345       0.00000       0.00000    
         3     15633   F -0.240345       0.00000       0.00000    
         3     15637   F -0.240345       0.00000       0.00000    
         3     15641   F -0.240345       0.00000       0.00000    
         3     15645   F -0.240345       0.00000       0.00000    
         3     15649   F -0.240345       0.00000       0.00000    
         3     15653   F -0.240345       0.00000       0.00000    
         3     15657   F -0.240345       0.00000       0.00000    
         3     15661   F -0.240345       0.00000       0.00000    
         3     15665   F -0.240345       0.00000       0.00000    
         3     15669   F -0.240345       0.00000       0.00000    
         3     15673   F -0.240345       0.00000       0.00000    
         3     15677   F -0.240345       0.00000       0.00000    
         3     15681   F -0.240345       0.00000       0.00000    
         3     15685   F -0.240345       0.00000       0.00000    
         3     15689   F -0.240345       0.00000       0.00000    
         3     15693   F -0.240345       0.00000       0.00000    
         3     15697   F -0.240345       0.00000       0.00000    
         3     15701   F -0.240345       0.00000       0.00000    
         3     15705   F -0.240345       0.00000       0.00000    
         3     15709   F -0.240345       0.00000       0.00000    
         3     15713   F -0.240345       0.00000       0.00000    
         3     15717   F -0.240345       0.00000       0.00000    
         3     15721   F -0.240345       0.00000       0.00000    
         3     15725   F -0.240345       0.00000       0.00000    
         3     15729   F -0.240345       0.00000       0.00000    
         3     15733   F -0.240345       0.00000       0.00000    
         3     15737   F -0.240345       0.00000       0.00000    
         3     15741   F -0.240345       0.00000       0.00000    
         3     15745   F -0.240345       0.00000       0.00000    
         3     15749   F -0.240345       0.00000       0.00000    
         3     15753   F -0.240345       0.00000       0.00000    
         3     15757   F -0.240345       0.00000       0.00000    
         3     15761   F -0.240345       0.00000       0.00000    
         3     15765   F -0.240345       0.00000       0.00000    
         3     15769   F -0.240345       0.00000       0.00000    
         3     15773   F -0.240345       0.00000       0.00000    
         3     15777   F -0.240345       0.00000       0.00000    
         3     15781   F -0.240345       0.00000       0.00000    
         3     15785   F -0.240345       0.00000       0.00000    
         3     15789   F -0.240345       0.00000       0.00000    
         3     15793   F -0.240345       0.00000       0.00000    
         3     15797   F -0.240345       0.00000       0.00000    
         3     15801   F -0.240345       0.00000       0.00000    
         3     15805   F -0.240345       0.00000       0.00000    
         3     15809   F -0.240345       0.00000       0.00000    
         3     15813   F -0.240345       0.00000       0.00000    
         3     15817   F -0.240345       0.00000       0.00000    
         3     15821   F -0.240345       0.00000       0.00000    
         3     15825   F -0.240345       0.00000       0.00000    
         3     15829   F -0.240345       0.00000       0.00000    
         3     15833   F -0.240345       0.00000       0.00000    
         3     15837   F -0.240345       0.00000       0.00000    
         3     15841   F -0.240345       0.00000       0.00000    
         3     15845   F -0.240345       0.00000       0.00000    
         3     15849   F -0.240345       0.00000       0.00000    
         3     15853   F -0.240345       0.00000       0.00000    
         3     15857   F -0.240345       0.00000       0.00000    
         3     15861   F -0.240345       0.00000       0.00000    
         3     15865   F -0.240345       0.00000       0.00000    
         3     15869   F -0.240345       0.00000       0.00000    
         3     15873   F -0.240345       0.00000       0.00000    
         3     15877   F -0.240345       0.00000       0.00000    
         3     15881   F -0.240345       0.00000       0.00000    
         3     15885   F -0.240345       0.00000       0.00000    
         3     15889   F -0.240345       0.00000       0.00000    
         3     15893   F -0.240345       0.00000       0.00000    
         3     15897   F -0.240345       0.00000       0.00000    
         3     15901   F -0.240345       0.00000       0.00000    
         3     15905   F -0.240345       0.00000       0.00000    
         3     15909   F -0.240345       0.00000       0.00000    
         3     15913   F -0.240345       0.00000       0.00000    
         3     15917   F -0.240345       0.00000       0.00000    
         3     15921   F -0.240345       0.00000       0.00000    
         3     15925   F -0.240345       0.00000       0.00000    
         3     15929   F -0.240345       0.00000       0.00000    
         3     15933   F -0.240345       0.00000       0.00000    
         3     15937   F -0.240345       0.00000       0.00000    
         3     15941   F -0.240345       0.00000       0.00000    
         3     15945   F -0.240345       0.00000       0.00000    
         3     15949   F -0.240345       0.00000       0.00000    
         3     15953   F -0.240345       0.00000       0.00000    
         3     15957   F -0.240345       0.00000       0.00000    
         3     15961   F -0.240345       0.00000       0.00000    
         3     15965   F -0.240345       0.00000       0.00000    
         3     15969   F -0.240345       0.00000       0.00000    
         3     15973   F -0.240345       0.00000       0.00000    
         3     15977   F -0.240345       0.00000       0.00000    
         3     15981   F -0.240345       0.00000       0.00000    
         3     15985   F -0.240345       0.00000       0.00000    
         3     15989   F -0.240345       0.00000       0.00000    
         3     15993   F -0.240345       0.00000       0.00000    
         3     15997   F -0.240345       0.00000       0.00000    
         3     16001   F -0.240345       0.00000       0.00000    
         3     16005   F -0.240345       0.00000       0.00000    
         3     16009   F -0.240345       0.00000       0.00000    
         3     16013   F -0.240345       0.00000       0.00000    
         3     16017   F -0.240345       0.00000       0.00000    
         3     16021   F -0.240345       0.00000       0.00000    
         3     16025   F -0.240345       0.00000       0.00000    
         3     16029   F -0.240345       0.00000       0.00000    
         3     16033   F -0.240345       0.00000       0.00000    
         3     16037   F -0.240345       0.00000       0.00000    
         3     16041   F -0.240345       0.00000       0.00000    
         3     16045   F -0.240345       0.00000       0.00000    
         3     16049   F -0.240345       0.00000       0.00000    
         3     16053   F -0.240345       0.00000       0.00000    
         3     16057   F -0.240345       0.00000       0.00000    
         3     16061   F -0.240345       0.00000       0.00000    
         3     16065   F -0.240345       0.00000       0.00000    
         3     16069   F -0.240345       0.00000       0.00000    
         3     16073   F -0.240345       0.00000       0.00000    
         3     16077   F -0.240345       0.00000       0.00000    
         3     16081   F -0.240345       0.00000       0.00000    
         3     16085   F -0.240345       0.00000       0.00000    
         3     16089   F -0.240345       0.00000       0.00000    
         3     16093   F -0.240345       0.00000       0.00000    
         3     16097   F -0.240345       0.00000       0.00000    
         3     16101   F -0.240345       0.00000       0.00000    
         3     16105   F -0.240345       0.00000       0.00000    
         3     16109   F -0.240345       0.00000       0.00000    
         3     16113   F -0.240345       0.00000       0.00000    
         3     16117   F -0.240345       0.00000       0.00000    
         3     16121   F -0.240345       0.00000       0.00000    
         3     16125   F -0.240345       0.00000       0.00000    
         3     16129   F -0.240345       0.00000       0.00000    
         3     16133   F -0.240345       0.00000       0.00000    
         3     16137   F -0.240345       0.00000       0.00000    
         3     16141   F -0.240345       0.00000       0.00000    
         3     16145   F -0.240345       0.00000       0.00000    
         3     16149   F -0.240345       0.00000       0.00000    
         3     16153   F -0.240345       0.00000       0.00000    
         3     16157   F -0.240345       0.00000       0.00000    
         3     16161   F -0.240345       0.00000       0.00000    
         3     16165   F -0.240345       0.00000       0.00000    
         3     16169   F -0.240345       0.00000       0.00000    
         3     16173   F -0.240345       0.00000       0.00000    
         3     16177   F -0.240345       0.00000       0.00000    
         3     16181   F -0.240345       0.00000       0.00000    
         3     16185   F -0.240345       0.00000       0.00000    
         3     16189   F -0.240345       0.00000       0.00000    
         3     16193   F -0.240345       0.00000       0.00000    
         3     16197   F -0.240345       0.00000       0.00000    
         3     16201   F -0.240345       0.00000       0.00000    
         3     16205   F -0.240345       0.00000       0.00000    
         3     16209   F -0.240345       0.00000       0.00000    
         3     16213   F -0.240345       0.00000       0.00000    
         3     16217   F -0.240345       0.00000       0.00000    
         3     16221   F -0.240345       0.00000       0.00000    
         3     16225   F -0.240345       0.00000       0.00000    
         3     16229   F -0.240345       0.00000       0.00000    
         3     16233   F -0.240345       0.00000       0.00000    
         3     16237   F -0.240345       0.00000       0.00000    
         3     16241   F -0.240345       0.00000       0.00000    
         3     16245   F -0.240345       0.00000       0.00000    
         3     16249   F -0.240345       0.00000       0.00000    
         3     16253   F -0.240345       0.00000       0.00000    
         3     16257   F -0.240345       0.00000       0.00000    
         3     16261   F -0.240345       0.00000       0.00000    
         3     16265   F -0.240345       0.00000       0.00000    
         3     16269   F -0.240345       0.00000       0.00000    
         3     16273   F -0.240345       0.00000       0.00000    
         3     16277   F -0.240345       0.00000       0.00000    
         3     16281   F -0.240345       0.00000       0.00000    
         3     16285   F -0.240345       0.00000       0.00000    
         3     16289   F -0.240345       0.00000       0.00000    
         3     16293   F -0.240345       0.00000       0.00000    
         3     16297   F -0.240345       0.00000       0.00000    
         3     16301   F -0.240345       0.00000       0.00000    
         3     16305   F -0.240345       0.00000       0.00000    
         3     16309   F -0.240345       0.00000       0.00000    
         3     16313   F -0.240345       0.00000       0.00000    
         3     16317   F -0.240345       0.00000       0.00000    
         3     16321   F -0.240345       0.00000       0.00000    
         3     16325   F -0.240345       0.00000       0.00000    
         3     16329   F -0.240345       0.00000       0.00000    
         3     16333   F -0.240345       0.00000       0.00000    
         3     16337   F -0.240345       0.00000       0.00000    
         3     16341   F -0.240345       0.00000       0.00000    
         3     16345   F -0.240345       0.00000       0.00000    
         3     16349   F -0.240345       0.00000       0.00000    
         3     16353   F -0.240345       0.00000       0.00000    
         3     16357   F -0.240345       0.00000       0.00000    
         3     16361   F -0.240345       0.00000       0.00000    
         3     16365   F -0.240345       0.00000       0.00000    
         3     16369   F -0.240345       0.00000       0.00000    
         3     16373   F -0.240345       0.00000       0.00000    
         3     16377   F -0.240345       0.00000       0.00000    
         3     16381   F -0.240345       0.00000       0.00000    
         3     16385   F -0.240345       0.00000       0.00000    
         3     16389   F -0.240345       0.00000       0.00000    
         3     16393   F -0.240345       0.00000       0.00000    
         3     16397   F -0.240345       0.00000       0.00000    
         3     16401   F -0.240345       0.00000       0.00000    
         3     16405   F -0.240345       0.00000       0.00000    
         3     16409   F -0.240345       0.00000       0.00000    
         3     16413   F -0.240345       0.00000       0.00000    
         3     16417   F -0.240345       0.00000       0.00000    
         3     16421   F -0.240345       0.00000       0.00000    
         3     16425   F -0.240345       0.00000       0.00000    
         3     16429   F -0.240345       0.00000       0.00000    
         3     16433   F -0.240345       0.00000       0.00000    
         3     16437   F -0.240345       0.00000       0.00000    
         3     16441   F -0.240345       0.00000       0.00000    
         3     16445   F -0.240345       0.00000       0.00000    
         3     16449   F -0.240345       0.00000       0.00000    
         3     16453   F -0.240345       0.00000       0.00000    
         3     16457   F -0.240345       0.00000       0.00000    
         3     16461   F -0.240345       0.00000       0.00000    
         3     16465   F -0.240345       0.00000       0.00000    
         3     16469   F -0.240345       0.00000       0.00000    
         3     16473   F -0.240345       0.00000       0.00000    
         3     16477   F -0.240345       0.00000       0.00000    
         3     16481   F -0.240345       0.00000       0.00000    
         3     16485   F -0.240345       0.00000       0.00000    
         3     16489   F -0.240345       0.00000       0.00000    
         3     16493   F -0.240345       0.00000       0.00000    
         3     16497   F -0.240345       0.00000       0.00000    
         3     16501   F -0.240345       0.00000       0.00000    
         3     16505   F -0.240345       0.00000       0.00000    
         3     16509   F -0.240345       0.00000       0.00000    
         3     16513   F -0.240345       0.00000       0.00000    
         3     16517   F -0.240345       0.00000       0.00000    
         3     16521   F -0.240345       0.00000       0.00000    
         3     16525   F -0.240345       0.00000       0.00000    
         3     16529   F -0.240345       0.00000       0.00000    
         3     16533   F -0.240345       0.00000       0.00000    
         3     16537   F -0.240345       0.00000       0.00000    
         3     16541   F -0.240345       0.00000       0.00000    
         3     16545   F -0.240345       0.00000       0.00000    
         3     16549   F -0.240345       0.00000       0.00000    
         3     16553   F -0.240345       0.00000       0.00000    
         3     16557   F -0.240345       0.00000       0.00000    
         3     16561   F -0.240345       0.00000       0.00000    
         3     16565   F -0.240345       0.00000       0.00000    
         3     16569   F -0.240345       0.00000       0.00000    
         3     16573   F -0.240345       0.00000       0.00000    
         3     16577   F -0.240345       0.00000       0.00000    
         3     16581   F -0.240345       0.00000       0.00000    
         3     16585   F -0.240345       0.00000       0.00000    
         3     16589   F -0.240345       0.00000       0.00000    
         3     16593   F -0.240345       0.00000       0.00000    
         3     16597   F -0.240345       0.00000       0.00000    
         3     16601   F -0.240345       0.00000       0.00000    
         3     16605   F -0.240345       0.00000       0.00000    
         3     16609   F -0.240345       0.00000       0.00000    
         3     16613   F -0.240345       0.00000       0.00000    
         3     16617   F -0.240345       0.00000       0.00000    
         3     16621   F -0.240345       0.00000       0.00000    
         3     16625   F -0.240345       0.00000       0.00000    
         3     16629   F -0.240345       0.00000       0.00000    
         3     16633   F -0.240345       0.00000       0.00000    
         3     16637   F -0.240345       0.00000       0.00000    
         3     16641   F -0.240345       0.00000       0.00000    
         3     16645   F -0.240345       0.00000       0.00000    
         3     16649   F -0.240345       0.00000       0.00000    
         3     16653   F -0.240345       0.00000       0.00000    
         3     16657   F -0.240345       0.00000       0.00000    
         3     16661   F -0.240345       0.00000       0.00000    
         3     16665   F -0.240345       0.00000       0.00000    
         3     16669   F -0.240345       0.00000       0.00000    
         3     16673   F -0.240345       0.00000       0.00000    
         3     16677   F -0.240345       0.00000       0.00000    
         3     16681   F -0.240345       0.00000       0.00000    
         3     16685   F -0.240345       0.00000       0.00000    
         3     16689   F -0.240345       0.00000       0.00000    
         3     16693   F -0.240345       0.00000       0.00000    
         3     16697   F -0.240345       0.00000       0.00000    
         3     16701   F -0.240345       0.00000       0.00000    
         3     16705   F -0.240345       0.00000       0.00000    
         3     16709   F -0.240345       0.00000       0.00000    
         3     16713   F -0.240345       0.00000       0.00000    
         3     16717   F -0.240345       0.00000       0.00000    
         3     16721   F -0.240345       0.00000       0.00000    
         3     16725   F -0.240345       0.00000       0.00000    
         3     16729   F -0.240345       0.00000       0.00000    
         3     16733   F -0.240345       0.00000       0.00000    
         3     16737   F -0.240345       0.00000       0.00000    
         3     16741   F -0.240345       0.00000       0.00000    
         3     16745   F -0.240345       0.00000       0.00000    
         3     16749   F -0.240345       0.00000       0.00000    
         3     16753   F -0.240345       0.00000       0.00000    
         3     16757   F -0.240345       0.00000       0.00000    
         3     16761   F -0.240345       0.00000       0.00000    
         3     16765   F -0.240345       0.00000       0.00000    
         3     16769   F -0.240345       0.00000       0.00000    
         3     16773   F -0.240345       0.00000       0.00000    
         3     16777   F -0.240345       0.00000       0.00000    
         3     16781   F -0.240345       0.00000       0.00000    
         3     16785   F -0.240345       0.00000       0.00000    
         3     16789   F -0.240345       0.00000       0.00000    
         3     16793   F -0.240345       0.00000       0.00000    
         3     16797   F -0.240345       0.00000       0.00000    
         3     16801   F -0.240345       0.00000       0.00000    
         3     16805   F -0.240345       0.00000       0.00000    
         3     16809   F -0.240345       0.00000       0.00000    
         3     16813   F -0.240345       0.00000       0.00000    
         3     16817   F -0.240345       0.00000       0.00000    
         3     16821   F -0.240345       0.00000       0.00000    
         3     16825   F -0.240345       0.00000       0.00000    
         3     16829   F -0.240345       0.00000       0.00000    
         3     16833   F -0.240345       0.00000       0.00000    
         3     16837   F -0.240345       0.00000       0.00000    
         3     16841   F -0.240345       0.00000       0.00000    
         3     16845   F -0.240345       0.00000       0.00000    
         3     16849   F -0.240345       0.00000       0.00000    
         3     16853   F -0.240345       0.00000       0.00000    
         3     16857   F -0.240345       0.00000       0.00000    
         3     16861   F -0.240345       0.00000       0.00000    
         3     16865   F -0.240345       0.00000       0.00000    
         3     16869   F -0.240345       0.00000       0.00000    
         3     16873   F -0.240345       0.00000       0.00000    
         3     16877   F -0.240345       0.00000       0.00000    
         3     16881   F -0.240345       0.00000       0.00000    
         3     16885   F -0.240345       0.00000       0.00000    
         3     16889   F -0.240345       0.00000       0.00000    
         3     16893   F -0.240345       0.00000       0.00000    
         3     16897   F -0.240345       0.00000       0.00000    
         3     16901   F -0.240345       0.00000       0.00000    
         3     16905   F -0.240345       0.00000       0.00000    
         3     16909   F -0.240345       0.00000       0.00000    
         3     16913   F -0.240345       0.00000       0.00000    
         3     16917   F -0.240345       0.00000       0.00000    
         3     16921   F -0.240345       0.00000       0.00000    
         3     16925   F -0.240345       0.00000       0.00000    
         3     16929   F -0.240345       0.00000       0.00000    
         3     16933   F -0.240345       0.00000       0.00000    
         3     16937   F -0.240345       0.00000       0.00000    
         3     16941   F -0.240345       0.00000       0.00000    
         3     16945   F -0.240345       0.00000       0.00000    
         3     16949   F -0.240345       0.00000       0.00000    
         3     16953   F -0.240345       0.00000       0.00000    
         3     16957   F -0.240345       0.00000       0.00000    
         3     16961   F -0.240345       0.00000       0.00000    
         3     16965   F -0.240345       0.00000       0.00000    
         3     16969   F -0.240345       0.00000       0.00000    
         3     16973   F -0.240345       0.00000       0.00000    
         3     16977   F -0.240345       0.00000       0.00000    
         3     16981   F -0.240345       0.00000       0.00000    
         3     16985   F -0.240345       0.00000       0.00000    
         3     16989   F -0.240345       0.00000       0.00000    
         3     16993   F -0.240345       0.00000       0.00000    
         3     16997   F -0.240345       0.00000       0.00000    
         3     17001   F -0.240345       0.00000       0.00000    
         3     17005   F -0.240345       0.00000       0.00000    
         3     17009   F -0.240345       0.00000       0.00000    
         3     17013   F -0.240345       0.00000       0.00000    
         3     17017   F -0.240345       0.00000       0.00000    
         3     17021   F -0.240345       0.00000       0.00000    
         3     17025   F -0.240345       0.00000       0.00000    
         3     17029   F -0.240345       0.00000       0.00000    
         3     17033   F -0.240345       0.00000       0.00000    
         3     17037   F -0.240345       0.00000       0.00000    
         3     17041   F -0.240345       0.00000       0.00000    
         3     17045   F -0.240345       0.00000       0.00000    
         3     17049   F -0.240345       0.00000       0.00000    
         3     17053   F -0.240345       0.00000       0.00000    
         3     17057   F -0.240345       0.00000       0.00000    
         3     17061   F -0.240345       0.00000       0.00000    
         3     17065   F -0.240345       0.00000       0.00000    
         3     17069   F -0.240345       0.00000       0.00000    
         3     17073   F -0.240345       0.00000       0.00000    
         3     17077   F -0.240345       0.00000       0.00000    
         3     17081   F -0.240345       0.00000       0.00000    
         3     17085   F -0.240345       0.00000       0.00000    
         3     17089   F -0.240345       0.00000       0.00000    
         3     17093   F -0.240345       0.00000       0.00000    
         3     17097   F -0.240345       0.00000       0.00000    
         3     17101   F -0.240345       0.00000       0.00000    
         3     17105   F -0.240345       0.00000       0.00000    
         3     17109   F -0.240345       0.00000       0.00000    
         3     17113   F -0.240345       0.00000       0.00000    
         3     17117   F -0.240345       0.00000       0.00000    
         3     17121   F -0.240345       0.00000       0.00000    
         3     17125   F -0.240345       0.00000       0.00000    
         3     17129   F -0.240345       0.00000       0.00000    
         3     17133   F -0.240345       0.00000       0.00000    
         3     17137   F -0.240345       0.00000       0.00000    
         3     17141   F -0.240345       0.00000       0.00000    
         3     17145   F -0.240345       0.00000       0.00000    
         3     17149   F -0.240345       0.00000       0.00000    
         3     17153   F -0.240345       0.00000       0.00000    
         3     17157   F -0.240345       0.00000       0.00000    
         3     17161   F -0.240345       0.00000       0.00000    
         3     17165   F -0.240345       0.00000       0.00000    
         3     17169   F -0.240345       0.00000       0.00000    
         3     17173   F -0.240345       0.00000       0.00000    
         3     17177   F -0.240345       0.00000       0.00000    
         3     17181   F -0.240345       0.00000       0.00000    
         3     17185   F -0.240345       0.00000       0.00000    
         3     17189   F -0.240345       0.00000       0.00000    
         3     17193   F -0.240345       0.00000       0.00000    
         3     17197   F -0.240345       0.00000       0.00000    
         3     17201   F -0.240345       0.00000       0.00000    
         3     17205   F -0.240345       0.00000       0.00000    
         3     17209   F -0.240345       0.00000       0.00000    
         3     17213   F -0.240345       0.00000       0.00000    
         3     17217   F -0.240345       0.00000       0.00000    
         3     17221   F -0.240345       0.00000       0.00000    
         3     17225   F -0.240345       0.00000       0.00000    
         3     17229   F -0.240345       0.00000       0.00000    
         3     17233   F -0.240345       0.00000       0.00000    
         3     17237   F -0.240345       0.00000       0.00000    
         3     17241   F -0.240345       0.00000       0.00000    
         3     17245   F -0.240345       0.00000       0.00000    
         3     17249   F -0.240345       0.00000       0.00000    
         3     17253   F -0.240345       0.00000       0.00000    
         3     17257   F -0.240345       0.00000       0.00000    
         3     17261   F -0.240345       0.00000       0.00000    
         3     17265   F -0.240345       0.00000       0.00000    
         3     17269   F -0.240345       0.00000       0.00000    
         3     17273   F -0.240345       0.00000       0.00000    
         3     17277   F -0.240345       0.00000       0.00000    
         3     17281   F -0.240345       0.00000       0.00000    
         3     17285   F -0.240345       0.00000       0.00000    
         3     17289   F -0.240345       0.00000       0.00000    
         3     17293   F -0.240345       0.00000       0.00000    
         3     17297   F -0.240345       0.00000       0.00000    
         3     17301   F -0.240345       0.00000       0.00000    
         3     17305   F -0.240345       0.00000       0.00000    
         3     17309   F -0.240345       0.00000       0.00000    
         3     17313   F -0.240345       0.00000       0.00000    
         3     17317   F -0.240345       0.00000       0.00000    
         3     17321   F -0.240345       0.00000       0.00000    
         3     17325   F -0.240345       0.00000       0.00000    
         3     17329   F -0.240345       0.00000       0.00000    
         3     17333   F -0.240345       0.00000       0.00000    
         3     17337   F -0.240345       0.00000       0.00000    
         3     17341   F -0.240345       0.00000       0.00000    
         3     17345   F -0.240345       0.00000       0.00000    
         3     17349   F -0.240345       0.00000       0.00000    
         3     17353   F -0.240345       0.00000       0.00000    
         3     17357   F -0.240345       0.00000       0.00000    
         3     17361   F -0.240345       0.00000       0.00000    
         3     17365   F -0.240345       0.00000       0.00000    
         3     17369   F -0.240345       0.00000       0.00000    
         3     17373   F -0.240345       0.00000       0.00000    
         3     17377   F -0.240345       0.00000       0.00000    
         3     17381   F -0.240345       0.00000       0.00000    
         3     17385   F -0.240345       0.00000       0.00000    
         3     17389   F -0.240345       0.00000       0.00000    
         3     17393   F -0.240345       0.00000       0.00000    
         3     17397   F -0.240345       0.00000       0.00000    
         3     17401   F -0.240345       0.00000       0.00000    
         3     17405   F -0.240345       0.00000       0.00000    
         3     17409   F -0.240345       0.00000       0.00000    
         3     17413   F -0.240345       0.00000       0.00000    
         3     17417   F -0.240345       0.00000       0.00000    
         3     17421   F -0.240345       0.00000       0.00000    
         3     17425   F -0.240345       0.00000       0.00000    
         3     17429   F -0.240345       0.00000       0.00000    
         3     17433   F -0.240345       0.00000       0.00000    
         3     17437   F -0.240345       0.00000       0.00000    
         3     17441   F -0.240345       0.00000       0.00000    
         3     17445   F -0.240345       0.00000       0.00000    
         3     17449   F -0.240345       0.00000       0.00000    
         3     17453   F -0.240345       0.00000       0.00000    
         3     17457   F -0.240345       0.00000       0.00000    
         3     17461   F -0.240345       0.00000       0.00000    
         3     17465   F -0.240345       0.00000       0.00000    
         3     17469   F -0.240345       0.00000       0.00000    
         3     17473   F -0.240345       0.00000       0.00000    
         3     17477   F -0.240345       0.00000       0.00000    
         3     17481   F -0.240345       0.00000       0.00000    
         3     17485   F -0.240345       0.00000       0.00000    
         3     17489   F -0.240345       0.00000       0.00000    
         3     17493   F -0.240345       0.00000       0.00000    
         3     17497   F -0.240345       0.00000       0.00000    
         3     17501   F -0.240345       0.00000       0.00000    
         3     17505   F -0.240345       0.00000       0.00000    
         3     17509   F -0.240345       0.00000       0.00000    
         3     17513   F -0.240345       0.00000       0.00000    
         3     17517   F -0.240345       0.00000       0.00000    
         3     17521   F -0.240345       0.00000       0.00000    
         3     17525   F -0.240345       0.00000       0.00000    
         3     17529   F -0.240345       0.00000       0.00000    
         3     17533   F -0.240345       0.00000       0.00000    
         3     17537   F -0.240345       0.00000       0.00000    
         3     17541   F -0.240345       0.00000       0.00000    
         3     17545   F -0.240345       0.00000       0.00000    
         3     17549   F -0.240345       0.00000       0.00000    
         3     17553   F -0.240345       0.00000       0.00000    
         3     17557   F -0.240345       0.00000       0.00000    
         3     17561   F -0.240345       0.00000       0.00000    
         3     17565   F -0.240345       0.00000       0.00000    
         3     17569   F -0.240345       0.00000       0.00000    
         3     17573   F -0.240345       0.00000       0.00000    
         3     17577   F -0.240345       0.00000       0.00000    
         3     17581   F -0.240345       0.00000       0.00000    
         3     17585   F -0.240345       0.00000       0.00000    
         3     17589   F -0.240345       0.00000       0.00000    
         3     17593   F -0.240345       0.00000       0.00000    
         3     17597   F -0.240345       0.00000       0.00000    
         3     17601   F -0.240345       0.00000       0.00000    
         3     17605   F -0.240345       0.00000       0.00000    
         3     17609   F -0.240345       0.00000       0.00000    
         3     17613   F -0.240345       0.00000       0.00000    
         3     17617   F -0.240345       0.00000       0.00000    
         3     17621   F -0.240345       0.00000       0.00000    
         3     17625   F -0.240345       0.00000       0.00000    
         3     17629   F -0.240345       0.00000       0.00000    
         3     17633   F -0.240345       0.00000       0.00000    
         3     17637   F -0.240345       0.00000       0.00000    
         3     17641   F -0.240345       0.00000       0.00000    
         3     17645   F -0.240345       0.00000       0.00000    
         3     17649   F -0.240345       0.00000       0.00000    
         3     17653   F -0.240345       0.00000       0.00000    
         3     17657   F -0.240345       0.00000       0.00000    
         3     17661   F -0.240345       0.00000       0.00000    
         3     17665   F -0.240345       0.00000       0.00000    
         3     17669   F -0.240345       0.00000       0.00000    
         3     17673   F -0.240345       0.00000       0.00000    
         3     17677   F -0.240345       0.00000       0.00000    
         3     17681   F -0.240345       0.00000       0.00000    
         3     17685   F -0.240345       0.00000       0.00000    
         3     17689   F -0.240345       0.00000       0.00000    
         3     17693   F -0.240345       0.00000       0.00000    
         3     17697   F -0.240345       0.00000       0.00000    
         3     17701   F -0.240345       0.00000       0.00000    
         3     17705   F -0.240345       0.00000       0.00000    
         3     17709   F -0.240345       0.00000       0.00000    
         3     17713   F -0.240345       0.00000       0.00000    
         3     17717   F -0.240345       0.00000       0.00000    
         3     17721   F -0.240345       0.00000       0.00000    
         3     17725   F -0.240345       0.00000       0.00000    
         3     17729   F -0.240345       0.00000       0.00000    
         3     17733   F -0.240345       0.00000       0.00000    
         3     17737   F -0.240345       0.00000       0.00000    
         3     17741   F -0.240345       0.00000       0.00000    
         3     17745   F -0.240345       0.00000       0.00000    
         3     17749   F -0.240345       0.00000       0.00000    
         3     17753   F -0.240345       0.00000       0.00000    
         3     17757   F -0.240345       0.00000       0.00000    
         3     17761   F -0.240345       0.00000       0.00000    
         3     17765   F -0.240345       0.00000       0.00000    
         3     17769   F -0.240345       0.00000       0.00000    
         3     17773   F -0.240345       0.00000       0.00000    
         3     17777   F -0.240345       0.00000       0.00000    
         3     17781   F -0.240345       0.00000       0.00000    
         3     17785   F -0.240345       0.00000       0.00000    
         3     17789   F -0.240345       0.00000       0.00000    
         3     17793   F -0.240345       0.00000       0.00000    
         3     17797   F -0.240345       0.00000       0.00000    
         3     17801   F -0.240345       0.00000       0.00000    
         3     17805   F -0.240345       0.00000       0.00000    
         3     17809   F -0.240345       0.00000       0.00000    
         3     17813   F -0.240345       0.00000       0.00000    
         3     17817   F -0.240345       0.00000       0.00000    
         3     17821   F -0.240345       0.00000       0.00000    
         3     17825   F -0.240345       0.00000       0.00000    
         3     17829   F -0.240345       0.00000       0.00000    
         3     17833   F -0.240345       0.00000       0.00000    
         3     17837   F -0.240345       0.00000       0.00000    
         3     17841   F -0.240345       0.00000       0.00000    
         3     17845   F -0.240345       0.00000       0.00000    
         3     17849   F -0.240345       0.00000       0.00000    
         3     17853   F -0.240345       0.00000       0.00000    
         3     17857   F -0.240345       0.00000       0.00000    
         3     17861   F -0.240345       0.00000       0.00000    
         3     17865   F -0.240345       0.00000       0.00000    
         3     17869   F -0.240345       0.00000       0.00000    
         3     17873   F -0.240345       0.00000       0.00000    
         3     17877   F -0.240345       0.00000       0.00000    
         3     17881   F -0.240345       0.00000       0.00000    
         3     17885   F -0.240345       0.00000       0.00000    
         3     17889   F -0.240345       0.00000       0.00000    
         3     17893   F -0.240345       0.00000       0.00000    
         3     17897   F -0.240345       0.00000       0.00000    
         3     17901   F -0.240345       0.00000       0.00000    
         3     17905   F -0.240345       0.00000       0.00000    
         3     17909   F -0.240345       0.00000       0.00000    
         3     17913   F -0.240345       0.00000       0.00000    
         3     17917   F -0.240345       0.00000       0.00000    
         3     17921   F -0.240345       0.00000       0.00000    
         3     17925   F -0.240345       0.00000       0.00000    
         3     17929   F -0.240345       0.00000       0.00000    
         3     17933   F -0.240345       0.00000       0.00000    
         3     17937   F -0.240345       0.00000       0.00000    
         3     17941   F -0.240345       0.00000       0.00000    
         3     17945   F -0.240345       0.00000       0.00000    
         3     17949   F -0.240345       0.00000       0.00000    
         3     17953   F -0.240345       0.00000       0.00000    
         3     17957   F -0.240345       0.00000       0.00000    
         3     17961   F -0.240345       0.00000       0.00000    
         3     17965   F -0.240345       0.00000       0.00000    
         3     17969   F -0.240345       0.00000       0.00000    
         3     17973   F -0.240345       0.00000       0.00000    
         3     17977   F -0.240345       0.00000       0.00000    
         3     17981   F -0.240345       0.00000       0.00000    
         3     17985   F -0.240345       0.00000       0.00000    
         3     17989   F -0.240345       0.00000       0.00000    
         3     17993   F -0.240345       0.00000       0.00000    
         3     17997   F -0.240345       0.00000       0.00000    
         3     18001   F -0.240345       0.00000       0.00000    
         3     18005   F -0.240345       0.00000       0.00000    
         3     18009   F -0.240345       0.00000       0.00000    
         3     18013   F -0.240345       0.00000       0.00000    
         3     18017   F -0.240345       0.00000       0.00000    
         3     18021   F -0.240345       0.00000       0.00000    
         3     18025   F -0.240345       0.00000       0.00000    
         3     18029   F -0.240345       0.00000       0.00000    
         3     18033   F -0.240345       0.00000       0.00000    
         3     18037   F -0.240345       0.00000       0.00000    
         3     18041   F -0.240345       0.00000       0.00000    
         3     18045   F -0.240345       0.00000       0.00000    
         3     18049   F -0.240345       0.00000       0.00000    
         3     18053   F -0.240345       0.00000       0.00000    
         3     18057   F -0.240345       0.00000       0.00000    
         3     18061   F -0.240345       0.00000       0.00000    
         3     18065   F -0.240345       0.00000       0.00000    
         3     18069   F -0.240345       0.00000       0.00000    
         3     18073   F -0.240345       0.00000       0.00000    
         3     18077   F -0.240345       0.00000       0.00000    
         3     18081   F -0.240345       0.00000       0.00000    
         3     18085   F -0.240345       0.00000       0.00000    
         3     18089   F -0.240345       0.00000       0.00000    
         3     18093   F -0.240345       0.00000       0.00000    
         3     18097   F -0.240345       0.00000       0.00000    
         3     18101   F -0.240345       0.00000       0.00000    
         3     18105   F -0.240345       0.00000       0.00000    
         3     18109   F -0.240345       0.00000       0.00000    
         3     18113   F -0.240345       0.00000       0.00000    
         3     18117   F -0.240345       0.00000       0.00000    
         3     18121   F -0.240345       0.00000       0.00000    
         3     18125   F -0.240345       0.00000       0.00000    
         3     18129   F -0.240345       0.00000       0.00000    
         3     18133   F -0.240345       0.00000       0.00000    
         3     18137   F -0.240345       0.00000       0.00000    
         3     18141   F -0.240345       0.00000       0.00000    
         3     18145   F -0.240345       0.00000       0.00000    
         3     18149   F -0.240345       0.00000       0.00000    
         3     18153   F -0.240345       0.00000       0.00000    
         3     18157   F -0.240345       0.00000       0.00000    
         3     18161   F -0.240345       0.00000       0.00000    
         3     18165   F -0.240345       0.00000       0.00000    
         3     18169   F -0.240345       0.00000       0.00000    
         3     18173   F -0.240345       0.00000       0.00000    
         3     18177   F -0.240345       0.00000       0.00000    
         3     18181   F -0.240345       0.00000       0.00000    
         3     18185   F -0.240345       0.00000       0.00000    
         3     18189   F -0.240345       0.00000       0.00000    
         3     18193   F -0.240345       0.00000       0.00000    
         3     18197   F -0.240345       0.00000       0.00000    
         3     18201   F -0.240345       0.00000       0.00000    
         3     18205   F -0.240345       0.00000       0.00000    
         3     18209   F -0.240345       0.00000       0.00000    
         3     18213   F -0.240345       0.00000       0.00000    
         3     18217   F -0.240345       0.00000       0.00000    
         3     18221   F -0.240345       0.00000       0.00000    
         3     18225   F -0.240345       0.00000       0.00000    
         3     18229   F -0.240345       0.00000       0.00000    
         3     18233   F -0.240345       0.00000       0.00000    
         3     18237   F -0.240345       0.00000       0.00000    
         3     18241   F -0.240345       0.00000       0.00000    
         3     18245   F -0.240345       0.00000       0.00000    
         3     18249   F -0.240345       0.00000       0.00000    
         3     18253   F -0.240345       0.00000       0.00000    
         3     18257   F -0.240345       0.00000       0.00000    
         3     18261   F -0.240345       0.00000       0.00000    
         3     18265   F -0.240345       0.00000       0.00000    
         3     18269   F -0.240345       0.00000       0.00000    
         3     18273   F -0.240345       0.00000       0.00000    
         3     18277   F -0.240345       0.00000       0.00000    
         3     18281   F -0.240345       0.00000       0.00000    
         3     18285   F -0.240345       0.00000       0.00000    
         3     18289   F -0.240345       0.00000       0.00000    
         3     18293   F -0.240345       0.00000       0.00000    
         3     18297   F -0.240345       0.00000       0.00000    
         3     18301   F -0.240345       0.00000       0.00000    
         3     18305   F -0.240345       0.00000       0.00000    
         3     18309   F -0.240345       0.00000       0.00000    
         3     18313   F -0.240345       0.00000       0.00000    
         3     18317   F -0.240345       0.00000       0.00000    
         3     18321   F -0.240345       0.00000       0.00000    
         3     18325   F -0.240345       0.00000       0.00000    
         3     18329   F -0.240345       0.00000       0.00000    
         3     18333   F -0.240345       0.00000       0.00000    
         3     18337   F -0.240345       0.00000       0.00000    
         3     18341   F -0.240345       0.00000       0.00000    
         3     18345   F -0.240345       0.00000       0.00000    
         3     18349   F -0.240345       0.00000       0.00000    
         3     18353   F -0.240345       0.00000       0.00000    
         3     18357   F -0.240345       0.00000       0.00000    
         3     18361   F -0.240345       0.00000       0.00000    
         3     18365   F -0.240345       0.00000       0.00000    
         3     18369   F -0.240345       0.00000       0.00000    
         3     18373   F -0.240345       0.00000       0.00000    
         3     18377   F -0.240345       0.00000       0.00000    
         3     18381   F -0.240345       0.00000       0.00000    
         3     18385   F -0.240345       0.00000       0.00000    
         3     18389   F -0.240345       0.00000       0.00000    
         3     18393   F -0.240345       0.00000       0.00000    
         3     18397   F -0.240345       0.00000       0.00000    
         3     18401   F -0.240345       0.00000       0.00000    
         3     18405   F -0.240345       0.00000       0.00000    
         3     18409   F -0.240345       0.00000       0.00000    
         3     18413   F -0.240345       0.00000       0.00000    
         3     18417   F -0.240345       0.00000       0.00000    
         3     18421   F -0.240345       0.00000       0.00000    
         3     18425   F -0.240345       0.00000       0.00000    
         3     18429   F -0.240345       0.00000       0.00000    
         3     18433   F -0.240345       0.00000       0.00000    
         3     18437   F -0.240345       0.00000       0.00000    
         3     18441   F -0.240345       0.00000       0.00000    
         3     18445   F -0.240345       0.00000       0.00000    
         3     18449   F -0.240345       0.00000       0.00000    
         3     18453   F -0.240345       0.00000       0.00000    
         3     18457   F -0.240345       0.00000       0.00000    
         3     18461   F -0.240345       0.00000       0.00000    
         3     18465   F -0.240345       0.00000       0.00000    
         3     18469   F -0.240345       0.00000       0.00000    
         3     18473   F -0.240345       0.00000       0.00000    
         3     18477   F -0.240345       0.00000       0.00000    
         3     18481   F -0.240345       0.00000       0.00000    
         3     18485   F -0.240345       0.00000       0.00000    
         3     18489   F -0.240345       0.00000       0.00000    
         3     18493   F -0.240345       0.00000       0.00000    
         3     18497   F -0.240345       0.00000       0.00000    
         3     18501   F -0.240345       0.00000       0.00000    
         3     18505   F -0.240345       0.00000       0.00000    
         3     18509   F -0.240345       0.00000       0.00000    
         3     18513   F -0.240345       0.00000       0.00000    
         3     18517   F -0.240345       0.00000       0.00000    
         3     18521   F -0.240345       0.00000       0.00000    
         3     18525   F -0.240345       0.00000       0.00000    
         3     18529   F -0.240345       0.00000       0.00000    
         3     18533   F -0.240345       0.00000       0.00000    
         3     18537   F -0.240345       0.00000       0.00000    
         3     18541   F -0.240345       0.00000       0.00000    
         3     18545   F -0.240345       0.00000       0.00000    
         3     18549   F -0.240345       0.00000       0.00000    
         3     18553   F -0.240345       0.00000       0.00000    
         3     18557   F -0.240345       0.00000       0.00000    
         3     18561   F -0.240345       0.00000       0.00000    
         3     18565   F -0.240345       0.00000       0.00000    
         3     18569   F -0.240345       0.00000       0.00000    
         3     18573   F -0.240345       0.00000       0.00000    
         3     18577   F -0.240345       0.00000       0.00000    
         3     18581   F -0.240345       0.00000       0.00000    
         3     18585   F -0.240345       0.00000       0.00000    
         3     18589   F -0.240345       0.00000       0.00000    
         3     18593   F -0.240345       0.00000       0.00000    
         3     18597   F -0.240345       0.00000       0.00000    
         3     18601   F -0.240345       0.00000       0.00000    
         3     18605   F -0.240345       0.00000       0.00000    
         3     18609   F -0.240345       0.00000       0.00000    
         3     18613   F -0.240345       0.00000       0.00000    
         3     18617   F -0.240345       0.00000       0.00000    
         3     18621   F -0.240345       0.00000       0.00000    
         3     18625   F -0.240345       0.00000       0.00000    
         3     18629   F -0.240345       0.00000       0.00000    
         3     18633   F -0.240345       0.00000       0.00000    
         3     18637   F -0.240345       0.00000       0.00000    
         3     18641   F -0.240345       0.00000       0.00000    
         3     18645   F -0.240345       0.00000       0.00000    
         3     18649   F -0.240345       0.00000       0.00000    
         3     18653   F -0.240345       0.00000       0.00000    
         3     18657   F -0.240345       0.00000       0.00000    
         3     18661   F -0.240345       0.00000       0.00000    
         3     18665   F -0.240345       0.00000       0.00000    
         3     18669   F -0.240345       0.00000       0.00000    
         3     18673   F -0.240345       0.00000       0.00000    
         3     18677   F -0.240345       0.00000       0.00000    
         3     18681   F -0.240345       0.00000       0.00000    
         3     18685   F -0.240345       0.00000       0.00000    
         3     18689   F -0.240345       0.00000       0.00000    
         3     18693   F -0.240345       0.00000       0.00000    
         3     18697   F -0.240345       0.00000       0.00000    
         3     18701   F -0.240345       0.00000       0.00000    
         3     18705   F -0.240345       0.00000       0.00000    
         3     18709   F -0.240345       0.00000       0.00000    
         3     18713   F -0.240345       0.00000       0.00000    
         3     18717   F -0.240345       0.00000       0.00000    
         3     18721   F -0.240345       0.00000       0.00000    
         3     18725   F -0.240345       0.00000       0.00000    
         3     18729   F -0.240345       0.00000       0.00000    
         3     18733   F -0.240345       0.00000       0.00000    
         3     18737   F -0.240345       0.00000       0.00000    
         3     18741   F -0.240345       0.00000       0.00000    
         3     18745   F -0.240345       0.00000       0.00000    
         3     18749   F -0.240345       0.00000       0.00000    
         3     18753   F -0.240345       0.00000       0.00000    
         3     18757   F -0.240345       0.00000       0.00000    
         3     18761   F -0.240345       0.00000       0.00000    
         3     18765   F -0.240345       0.00000       0.00000    
         3     18769   F -0.240345       0.00000       0.00000    
         3     18773   F -0.240345       0.00000       0.00000    
         3     18777   F -0.240345       0.00000       0.00000    
         3     18781   F -0.240345       0.00000       0.00000    
         3     18785   F -0.240345       0.00000       0.00000    
         3     18789   F -0.240345       0.00000       0.00000    
         3     18793   F -0.240345       0.00000       0.00000    
         3     18797   F -0.240345       0.00000       0.00000    
         3     18801   F -0.240345       0.00000       0.00000    
         3     18805   F -0.240345       0.00000       0.00000    
         3     18809   F -0.240345       0.00000       0.00000    
         3     18813   F -0.240345       0.00000       0.00000    
         3     18817   F -0.240345       0.00000       0.00000    
         3     18821   F -0.240345       0.00000       0.00000    
         3     18825   F -0.240345       0.00000       0.00000    
         3     18829   F -0.240345       0.00000       0.00000    
         3     18833   F -0.240345       0.00000       0.00000    
         3     18837   F -0.240345       0.00000       0.00000    
         3     18841   F -0.240345       0.00000       0.00000    
         3     18845   F -0.240345       0.00000       0.00000    
         3     18849   F -0.240345       0.00000       0.00000    
         3     18853   F -0.240345       0.00000       0.00000    
         3     18857   F -0.240345       0.00000       0.00000    
         3     18861   F -0.240345       0.00000       0.00000    
         3     18865   F -0.240345       0.00000       0.00000    
         3     18869   F -0.240345       0.00000       0.00000    
         3     18873   F -0.240345       0.00000       0.00000    
         3     18877   F -0.240345       0.00000       0.00000    
         3     18881   F -0.240345       0.00000       0.00000    
         3     18885   F -0.240345       0.00000       0.00000    
         3     18889   F -0.240345       0.00000       0.00000    
         3     18893   F -0.240345       0.00000       0.00000    
         3     18897   F -0.240345       0.00000       0.00000    
         3     18901   F -0.240345       0.00000       0.00000    
         3     18905   F -0.240345       0.00000       0.00000    
         3     18909   F -0.240345       0.00000       0.00000    
         3     18913   F -0.240345       0.00000       0.00000    
         3     18917   F -0.240345       0.00000       0.00000    
         3     18921   F -0.240345       0.00000       0.00000    
         3     18925   F -0.240345       0.00000       0.00000    
         3     18929   F -0.240345       0.00000       0.00000    
         3     18933   F -0.240345       0.00000       0.00000    
         3     18937   F -0.240345       0.00000       0.00000    
         3     18941   F -0.240345       0.00000       0.00000    
         3     18945   F -0.240345       0.00000       0.00000    
         3     18949   F -0.240345       0.00000       0.00000    
         3     18953   F -0.240345       0.00000       0.00000    
         3     18957   F -0.240345       0.00000       0.00000    
         3     18961   F -0.240345       0.00000       0.00000    
         3     18965   F -0.240345       0.00000       0.00000    
         3     18969   F -0.240345       0.00000       0.00000    
         3     18973   F -0.240345       0.00000       0.00000    
         3     18977   F -0.240345       0.00000       0.00000    
         3     18981   F -0.240345       0.00000       0.00000    
         3     18985   F -0.240345       0.00000       0.00000    
         3     18989   F -0.240345       0.00000       0.00000    
         3     18993   F -0.240345       0.00000       0.00000    
         3     18997   F -0.240345       0.00000       0.00000    
         3     19001   F -0.240345       0.00000       0.00000    
         3     19005   F -0.240345       0.00000       0.00000    
         3     19009   F -0.240345       0.00000       0.00000    
         3     19013   F -0.240345       0.00000       0.00000    
         3     19017   F -0.240345       0.00000       0.00000    
         3     19021   F -0.240345       0.00000       0.00000    
         3     19025   F -0.240345       0.00000       0.00000    
         3     19029   F -0.240345       0.00000       0.00000    
         3     19033   F -0.240345       0.00000       0.00000    
         3     19037   F -0.240345       0.00000       0.00000    
         3     19041   F -0.240345       0.00000       0.00000    
         3     19045   F -0.240345       0.00000       0.00000    
         3     19049   F -0.240345       0.00000       0.00000    
         3     19053   F -0.240345       0.00000       0.00000    
         3     19057   F -0.240345       0.00000       0.00000    
         3     19061   F -0.240345       0.00000       0.00000    
         3     19065   F -0.240345       0.00000       0.00000    
         3     19069   F -0.240345       0.00000       0.00000    
         3     19073   F -0.240345       0.00000       0.00000    
         3     19077   F -0.240345       0.00000       0.00000    
         3     19081   F -0.240345       0.00000       0.00000    
         3     19085   F -0.240345       0.00000       0.00000    
         3     19089   F -0.240345       0.00000       0.00000    
         3     19093   F -0.240345       0.00000       0.00000    
         3     19097   F -0.240345       0.00000       0.00000    
         3     19101   F -0.240345       0.00000       0.00000    
         3     19105   F -0.240345       0.00000       0.00000    
         3     19109   F -0.240345       0.00000       0.00000    
         3     19113   F -0.240345       0.00000       0.00000    
         3     19117   F -0.240345       0.00000       0.00000    
         3     19121   F -0.240345       0.00000       0.00000    
         3     19125   F -0.240345       0.00000       0.00000    
         3     19129   F -0.240345       0.00000       0.00000    
         3     19133   F -0.240345       0.00000       0.00000    
         3     19137   F -0.240345       0.00000       0.00000    
         3     19141   F -0.240345       0.00000       0.00000    
         3     19145   F -0.240345       0.00000       0.00000    
         3     19149   F -0.240345       0.00000       0.00000    
         3     19153   F -0.240345       0.00000       0.00000    
         3     19157   F -0.240345       0.00000       0.00000    
         3     19161   F -0.240345       0.00000       0.00000    
         3     19165   F -0.240345       0.00000       0.00000    
         3     19169   F -0.240345       0.00000       0.00000    
         3     19173   F -0.240345       0.00000       0.00000    
         3     19177   F -0.240345       0.00000       0.00000    
         3     19181   F -0.240345       0.00000       0.00000    
         3     19185   F -0.240345       0.00000       0.00000    
         3     19189   F -0.240345       0.00000       0.00000    
         3     19193   F -0.240345       0.00000       0.00000    
         3     19197   F -0.240345       0.00000       0.00000    
         3     19201   F -0.240345       0.00000       0.00000    
         3     19205   F -0.240345       0.00000       0.00000    
         3     19209   F -0.240345       0.00000       0.00000    
         3     19213   F -0.240345       0.00000       0.00000    
         3     19217   F -0.240345       0.00000       0.00000    
         3     19221   F -0.240345       0.00000       0.00000    
         3     19225   F -0.240345       0.00000       0.00000    
         3     19229   F -0.240345       0.00000       0.00000    
         3     19233   F -0.240345       0.00000       0.00000    
         3     19237   F -0.240345       0.00000       0.00000    
         3     19241   F -0.240345       0.00000       0.00000    
         3     19245   F -0.240345       0.00000       0.00000    
         3     19249   F -0.240345       0.00000       0.00000    
         3     19253   F -0.240345       0.00000       0.00000    
         3     19257   F -0.240345       0.00000       0.00000    
         3     19261   F -0.240345       0.00000       0.00000    
         3     19265   F -0.240345       0.00000       0.00000    
         3     19269   F -0.240345       0.00000       0.00000    
         3     19273   F -0.240345       0.00000       0.00000    
         3     19277   F -0.240345       0.00000       0.00000    
         3     19281   F -0.240345       0.00000       0.00000    
         3     19285   F -0.240345       0.00000       0.00000    
         3     19289   F -0.240345       0.00000       0.00000    
         3     19293   F -0.240345       0.00000       0.00000    
         3     19297   F -0.240345       0.00000       0.00000    
         3     19301   F -0.240345       0.00000       0.00000    
         3     19305   F -0.240345       0.00000       0.00000    
         3     19309   F -0.240345       0.00000       0.00000    
         3     19313   F -0.240345       0.00000       0.00000    
         3     19317   F -0.240345       0.00000       0.00000    
         3     19321   F -0.240345       0.00000       0.00000    
         3     19325   F -0.240345       0.00000       0.00000    
         3     19329   F -0.240345       0.00000       0.00000    
         3     19333   F -0.240345       0.00000       0.00000    
         3     19337   F -0.240345       0.00000       0.00000    
         3     19341   F -0.240345       0.00000       0.00000    
         3     19345   F -0.240345       0.00000       0.00000    
         3     19349   F -0.240345       0.00000       0.00000    
         3     19353   F -0.240345       0.00000       0.00000    
         3     19357   F -0.240345       0.00000       0.00000    
         3     19361   F -0.240345       0.00000       0.00000    
         3     19365   F -0.240345       0.00000       0.00000    
         3     19369   F -0.240345       0.00000       0.00000    
         3     19373   F -0.240345       0.00000       0.00000    
         3     19377   F -0.240345       0.00000       0.00000    
         3     19381   F -0.240345       0.00000       0.00000    
         3     19385   F -0.240345       0.00000       0.00000    
         3     19389   F -0.240345       0.00000       0.00000    
         3     19393   F -0.240345       0.00000       0.00000    
         3     19397   F -0.240345       0.00000       0.00000    
         3     19401   F -0.240345       0.00000       0.00000    
         3     19405   F -0.240345       0.00000       0.00000    
         3     19409   F -0.240345       0.00000       0.00000    
         3     19413   F -0.240345       0.00000       0.00000    
         3     19417   F -0.240345       0.00000       0.00000    
         3     19421   F -0.240345       0.00000       0.00000    
         3     19425   F -0.240345       0.00000       0.00000    
         3     19429   F -0.240345       0.00000       0.00000    
         3     19433   F -0.240345       0.00000       0.00000    
         3     19437   F -0.240345       0.00000       0.00000    
         3     19441   F -0.240345       0.00000       0.00000    
         3     19445   F -0.240345       0.00000       0.00000    
         3     19449   F -0.240345       0.00000       0.00000    
         3     19453   F -0.240345       0.00000       0.00000    
         3     19457   F -0.240345       0.00000       0.00000    
         3     19461   F -0.240345       0.00000       0.00000    
         3     19465   F -0.240345       0.00000       0.00000    
         3     19469   F -0.240345       0.00000       0.00000    
         3     19473   F -0.240345       0.00000       0.00000    
         3     19477   F -0.240345       0.00000       0.00000    
         3     19481   F -0.240345       0.00000       0.00000    
         3     19485   F -0.240345       0.00000       0.00000    
         3     19489   F -0.240345       0.00000       0.00000    
         3     19493   F -0.240345       0.00000       0.00000    
         3     19497   F -0.240345       0.00000       0.00000    
         3     19501   F -0.240345       0.00000       0.00000    
         3     19505   F -0.240345       0.00000       0.00000    
         3     19509   F -0.240345       0.00000       0.00000    
         3     19513   F -0.240345       0.00000       0.00000    
         3     19517   F -0.240345       0.00000       0.00000    
         3     19521   F -0.240345       0.00000       0.00000    
         3     19525   F -0.240345       0.00000       0.00000    
         3     19529   F -0.240345       0.00000       0.00000    
         3     19533   F -0.240345       0.00000       0.00000    
         3     19537   F -0.240345       0.00000       0.00000    
         3     19541   F -0.240345       0.00000       0.00000    
         3     19545   F -0.240345       0.00000       0.00000    
         3     19549   F -0.240345       0.00000       0.00000    
         3     19553   F -0.240345       0.00000       0.00000    
         3     19557   F -0.240345       0.00000       0.00000    
         3     19561   F -0.240345       0.00000       0.00000    
         3     19565   F -0.240345       0.00000       0.00000    
         3     19569   F -0.240345       0.00000       0.00000    
         3     19573   F -0.240345       0.00000       0.00000    
         3     19577   F -0.240345       0.00000       0.00000    
         3     19581   F -0.240345       0.00000       0.00000    
         3     19585   F -0.240345       0.00000       0.00000    
         3     19589   F -0.240345       0.00000       0.00000    
         3     19593   F -0.240345       0.00000       0.00000    
         3     19597   F -0.240345       0.00000       0.00000    
         3     19601   F -0.240345       0.00000       0.00000    
         3     19605   F -0.240345       0.00000       0.00000    
         3     19609   F -0.240345       0.00000       0.00000    
         3     19613   F -0.240345       0.00000       0.00000    
         3     19617   F -0.240345       0.00000       0.00000    
         3     19621   F -0.240345       0.00000       0.00000    
         3     19625   F -0.240345       0.00000       0.00000    
         3     19629   F -0.240345       0.00000       0.00000    
         3     19633   F -0.240345       0.00000       0.00000    
         3     19637   F -0.240345       0.00000       0.00000    
         3     19641   F -0.240345       0.00000       0.00000    
         3     19645   F -0.240345       0.00000       0.00000    
         3     19649   F -0.240345       0.00000       0.00000    
         3     19653   F -0.240345       0.00000       0.00000    
         3     19657   F -0.240345       0.00000       0.00000    
         3     19661   F -0.240345       0.00000       0.00000    
         3     19665   F -0.240345       0.00000       0.00000    
         3     19669   F -0.240345       0.00000       0.00000    
         3     19673   F -0.240345       0.00000       0.00000    
         3     19677   F -0.240345       0.00000       0.00000    
         3     19681   F -0.240345       0.00000       0.00000    
         3     19685   F -0.240345       0.00000       0.00000    
         3     19689   F -0.240345       0.00000       0.00000    
         3     19693   F -0.240345       0.00000       0.00000    
         3     19697   F -0.240345       0.00000       0.00000    
         3     19701   F -0.240345       0.00000       0.00000    
         3     19705   F -0.240345       0.00000       0.00000    
         3     19709   F -0.240345       0.00000       0.00000    
         3     19713   F -0.240345       0.00000       0.00000    
         3     19717   F -0.240345       0.00000       0.00000    
         3     19721   F -0.240345       0.00000       0.00000    
         3     19725   F -0.240345       0.00000       0.00000    
         3     19729   F -0.240345       0.00000       0.00000    
         3     19733   F -0.240345       0.00000       0.00000    
         3     19737   F -0.240345       0.00000       0.00000    
         3     19741   F -0.240345       0.00000       0.00000    
         3     19745   F -0.240345       0.00000       0.00000    
         3     19749   F -0.240345       0.00000       0.00000    
         3     19753   F -0.240345       0.00000       0.00000    
         3     19757   F -0.240345       0.00000       0.00000    
         3     19761   F -0.240345       0.00000       0.00000    
         3     19765   F -0.240345       0.00000       0.00000    
         3     19769   F -0.240345       0.00000       0.00000    
         3     19773   F -0.240345       0.00000       0.00000    
         3     19777   F -0.240345       0.00000       0.00000    
         3     19781   F -0.240345       0.00000       0.00000    
         3     19785   F -0.240345       0.00000       0.00000    
         3     19789   F -0.240345       0.00000       0.00000    
         3     19793   F -0.240345       0.00000       0.00000    
         3     19797   F -0.240345       0.00000       0.00000    
         3     19801   F -0.240345       0.00000       0.00000    
         3     19805   F -0.240345       0.00000       0.00000    
         3     19809   F -0.240345       0.00000       0.00000    
         3     19813   F -0.240345       0.00000       0.00000    
         3     19817   F -0.240345       0.00000       0.00000    
         3     19821   F -0.240345       0.00000       0.00000    
         3     19825   F -0.240345       0.00000       0.00000    
         3     19829   F -0.240345       0.00000       0.00000    
         3     19833   F -0.240345       0.00000       0.00000    
         3     19837   F -0.240345       0.00000       0.00000    
         3     19841   F -0.240345       0.00000       0.00000    
         3     19845   F -0.240345       0.00000       0.00000    
         3     19849   F -0.240345       0.00000       0.00000    
         3     19853   F -0.240345       0.00000       0.00000    
         3     19857   F -0.240345       0.00000       0.00000    
         3     19861   F -0.240345       0.00000       0.00000    
         3     19865   F -0.240345       0.00000       0.00000    
         3     19869   F -0.240345       0.00000       0.00000    
         3     19873   F -0.240345       0.00000       0.00000    
         3     19877   F -0.240345       0.00000       0.00000    
         3     19881   F -0.240345       0.00000       0.00000    
         3     19885   F -0.240345       0.00000       0.00000    
         3     19889   F -0.240345       0.00000       0.00000    
         3     19893   F -0.240345       0.00000       0.00000    
         3     19897   F -0.240345       0.00000       0.00000    
         3     19901   F -0.240345       0.00000       0.00000    
         3     19905   F -0.240345       0.00000       0.00000    
         3     19909   F -0.240345       0.00000       0.00000    
         3     19913   F -0.240345       0.00000       0.00000    
         3     19917   F -0.240345       0.00000       0.00000    
         3     19921   F -0.240345       0.00000       0.00000    
         3     19925   F -0.240345       0.00000       0.00000    
         3     19929   F -0.240345       0.00000       0.00000    
         3     19933   F -0.240345       0.00000       0.00000    
         3     19937   F -0.240345       0.00000       0.00000    
         3     19941   F -0.240345       0.00000       0.00000    
         3     19945   F -0.240345       0.00000       0.00000    
         3     19949   F -0.240345       0.00000       0.00000    
         3     19953   F -0.240345       0.00000       0.00000    
         3     19957   F -0.240345       0.00000       0.00000    
         3     19961   F -0.240345       0.00000       0.00000    
         3     19965   F -0.240345       0.00000       0.00000    
         3     19969   F -0.240345       0.00000       0.00000    
         3     19973   F -0.240345       0.00000       0.00000    
         3     19977   F -0.240345       0.00000       0.00000    
         3     19981   F -0.240345       0.00000       0.00000    
         3     19985   F -0.240345       0.00000       0.00000    
         3     19989   F -0.240345       0.00000       0.00000    
         3     19993   F -0.240345       0.00000       0.00000    
         3     19997   F -0.240345       0.00000       0.00000    
         3     20001   F -0.240345       0.00000       0.00000    
         3     20005   F -0.240345       0.00000       0.00000    
         3     20009   F -0.240345       0.00000       0.00000    
         3     20013   F -0.240345       0.00000       0.00000    
         3     20017   F -0.240345       0.00000       0.00000    
         3     20021   F -0.240345       0.00000       0.00000    
         3     20025   F -0.240345       0.00000       0.00000    
         3     20029   F -0.240345       0.00000       0.00000    
         3     20033   F -0.240345       0.00000       0.00000    
         3     20037   F -0.240345       0.00000       0.00000    
         3     20041   F -0.240345       0.00000       0.00000    
         3     20045   F -0.240345       0.00000       0.00000    
         3     20049   F -0.240345       0.00000       0.00000    
         3     20053   F -0.240345       0.00000       0.00000    
         3     20057   F -0.240345       0.00000       0.00000    
         3     20061   F -0.240345       0.00000       0.00000    
         3     20065   F -0.240345       0.00000       0.00000    
         3     20069   F -0.240345       0.00000       0.00000    
         3     20073   F -0.240345       0.00000       0.00000    
         3     20077   F -0.240345       0.00000       0.00000    
         3     20081   F -0.240345       0.00000       0.00000    
         3     20085   F -0.240345       0.00000       0.00000    
         3     20089   F -0.240345       0.00000       0.00000    
         3     20093   F -0.240345       0.00000       0.00000    
         3     20097   F -0.240345       0.00000       0.00000    
         3     20101   F -0.240345       0.00000       0.00000    
         3     20105   F -0.240345       0.00000       0.00000    
         3     20109   F -0.240345       0.00000       0.00000    
         3     20113   F -0.240345       0.00000       0.00000    
         3     20117   F -0.240345       0.00000       0.00000    
         3     20121   F -0.240345       0.00000       0.00000    
         3     20125   F -0.240345       0.00000       0.00000    
         3     20129   F -0.240345       0.00000       0.00000    
         3     20133   F -0.240345       0.00000       0.00000    
         3     20137   F -0.240345       0.00000       0.00000    
         3     20141   F -0.240345       0.00000       0.00000    
         3     20145   F -0.240345       0.00000       0.00000    
         3     20149   F -0.240345       0.00000       0.00000    
         3     20153   F -0.240345       0.00000       0.00000    
         3     20157   F -0.240345       0.00000       0.00000    
         3     20161   F -0.240345       0.00000       0.00000    
         3     20165   F -0.240345       0.00000       0.00000    
         3     20169   F -0.240345       0.00000       0.00000    
         3     20173   F -0.240345       0.00000       0.00000    
         3     20177   F -0.240345       0.00000       0.00000    
         3     20181   F -0.240345       0.00000       0.00000    
         3     20185   F -0.240345       0.00000       0.00000    
         3     20189   F -0.240345       0.00000       0.00000    
         3     20193   F -0.240345       0.00000       0.00000    
         3     20197   F -0.240345       0.00000       0.00000    
         3     20201   F -0.240345       0.00000       0.00000    
         3     20205   F -0.240345       0.00000       0.00000    
         3     20209   F -0.240345       0.00000       0.00000    
         3     20213   F -0.240345       0.00000       0.00000    
         3     20217   F -0.240345       0.00000       0.00000    
         3     20221   F -0.240345       0.00000       0.00000    
         3     20225   F -0.240345       0.00000       0.00000    
         3     20229   F -0.240345       0.00000       0.00000    
         3     20233   F -0.240345       0.00000       0.00000    
         3     20237   F -0.240345       0.00000       0.00000    
         3     20241   F -0.240345       0.00000       0.00000    
         3     20245   F -0.240345       0.00000       0.00000    
         3     20249   F -0.240345       0.00000       0.00000    
         3     20253   F -0.240345       0.00000       0.00000    
         3     20257   F -0.240345       0.00000       0.00000    
         3     20261   F -0.240345       0.00000       0.00000    
         3     20265   F -0.240345       0.00000       0.00000    
         3     20269   F -0.240345       0.00000       0.00000    
         3     20273   F -0.240345       0.00000       0.00000    
         3     20277   F -0.240345       0.00000       0.00000    
         3     20281   F -0.240345       0.00000       0.00000    
         3     20285   F -0.240345       0.00000       0.00000    
         3     20289   F -0.240345       0.00000       0.00000    
         3     20293   F -0.240345       0.00000       0.00000    
         3     20297   F -0.240345       0.00000       0.00000    
         3     20301   F -0.240345       0.00000       0.00000    
         3     20305   F -0.240345       0.00000       0.00000    
         3     20309   F -0.240345       0.00000       0.00000    
         3     20313   F -0.240345       0.00000       0.00000    
         3     20317   F -0.240345       0.00000       0.00000    
         3     20321   F -0.240345       0.00000       0.00000    
         3     20325   F -0.240345       0.00000       0.00000    
         3     20329   F -0.240345       0.00000       0.00000    
         3     20333   F -0.240345       0.00000       0.00000    
         3     20337   F -0.240345       0.00000       0.00000    
         3     20341   F -0.240345       0.00000       0.00000    
         3     20345   F -0.240345       0.00000       0.00000    
         3     20349   F -0.240345       0.00000       0.00000    
         3     20353   F -0.240345       0.00000       0.00000    
         3     20357   F -0.240345       0.00000       0.00000    
         3     20361   F -0.240345       0.00000       0.00000    
         3     20365   F -0.240345       0.00000       0.00000    
         3     20369   F -0.240345       0.00000       0.00000    
         3     20373   F -0.240345       0.00000       0.00000    
         3     20377   F -0.240345       0.00000       0.00000    
         3     20381   F -0.240345       0.00000       0.00000    
         3     20385   F -0.240345       0.00000       0.00000    
         3     20389   F -0.240345       0.00000       0.00000    
         3     20393   F -0.240345       0.00000       0.00000    
         3     20397   F -0.240345       0.00000       0.00000    
         3     20401   F -0.240345       0.00000       0.00000    
         3     20405   F -0.240345       0.00000       0.00000    
         3     20409   F -0.240345       0.00000       0.00000    
         3     20413   F -0.240345       0.00000       0.00000    
         3     20417   F -0.240345       0.00000       0.00000    
         3     20421   F -0.240345       0.00000       0.00000    
         3     20425   F -0.240345       0.00000       0.00000    
         3     20429   F -0.240345       0.00000       0.00000    
         3     20433   F -0.240345       0.00000       0.00000    
         3     20437   F -0.240345       0.00000       0.00000    
         3     20441   F -0.240345       0.00000       0.00000    
         3     20445   F -0.240345       0.00000       0.00000    
         3     20449   F -0.240345       0.00000       0.00000    
         3     20453   F -0.240345       0.00000       0.00000    
         3     20457   F -0.240345       0.00000       0.00000    
         3     20461   F -0.240345       0.00000       0.00000    
         3     20465   F -0.240345       0.00000       0.00000    
         3     20469   F -0.240345       0.00000       0.00000    
         3     20473   F -0.240345       0.00000       0.00000    
         3     20477   F -0.240345       0.00000       0.00000    
         3     20481   F -0.240345       0.00000       0.00000    
         3     20485   F -0.240345       0.00000       0.00000    
         3     20489   F -0.240345       0.00000       0.00000    
         3     20493   F -0.240345       0.00000       0.00000    
         3     20497   F -0.240345       0.00000       0.00000    
         3     20501   F -0.240345       0.00000       0.00000    
         3     20505   F -0.240345       0.00000       0.00000    
         3     20509   F -0.240345       0.00000       0.00000    
         3     20513   F -0.240345       0.00000       0.00000    
         3     20517   F -0.240345       0.00000       0.00000    
         3     20521   F -0.240345       0.00000       0.00000    
         3     20525   F -0.240345       0.00000       0.00000    
         3     20529   F -0.240345       0.00000       0.00000    
         3     20533   F -0.240345       0.00000       0.00000    
         3     20537   F -0.240345       0.00000       0.00000    
         3     20541   F -0.240345       0.00000       0.00000    
         3     20545   F -0.240345       0.00000       0.00000    
         3     20549   F -0.240345       0.00000       0.00000    
         3     20553   F -0.240345       0.00000       0.00000    
         3     20557   F -0.240345       0.00000       0.00000    
         3     20561   F -0.240345       0.00000       0.00000    
         3     20565   F -0.240345       0.00000       0.00000    
         3     20569   F -0.240345       0.00000       0.00000    
         3     20573   F -0.240345       0.00000       0.00000    
         3     20577   F -0.240345       0.00000       0.00000    
         3     20581   F -0.240345       0.00000       0.00000    
         3     20585   F -0.240345       0.00000       0.00000    
         3     20589   F -0.240345       0.00000       0.00000    
         3     20593   F -0.240345       0.00000       0.00000    
         3     20597   F -0.240345       0.00000       0.00000    
         3     20601   F -0.240345       0.00000       0.00000    
         3     20605   F -0.240345       0.00000       0.00000    
         3     20609   F -0.240345       0.00000       0.00000    
         3     20613   F -0.240345       0.00000       0.00000    
         3     20617   F -0.240345       0.00000       0.00000    
         3     20621   F -0.240345       0.00000       0.00000    
         3     20625   F -0.240345       0.00000       0.00000    
         3     20629   F -0.240345       0.00000       0.00000    
         3     20633   F -0.240345       0.00000       0.00000    
         3     20637   F -0.240345       0.00000       0.00000    
         3     20641   F -0.240345       0.00000       0.00000    
         3     20645   F -0.240345       0.00000       0.00000    
         3     20649   F -0.240345       0.00000       0.00000    
         3     20653   F -0.240345       0.00000       0.00000    
         3     20657   F -0.240345       0.00000       0.00000    
         3     20661   F -0.240345       0.00000       0.00000    
         3     20665   F -0.240345       0.00000       0.00000    
         3     20669   F -0.240345       0.00000       0.00000    
         3     20673   F -0.240345       0.00000       0.00000    
         3     20677   F -0.240345       0.00000       0.00000    
         3     20681   F -0.240345       0.00000       0.00000    
         3     20685   F -0.240345       0.00000       0.00000    
         3     20689   F -0.240345       0.00000       0.00000    
         3     20693   F -0.240345       0.00000       0.00000    
         3     20697   F -0.240345       0.00000       0.00000    
         3     20701   F -0.240345       0.00000       0.00000    
         3     20705   F -0.240345       0.00000       0.00000    
         3     20709   F -0.240345       0.00000       0.00000    
         3     20713   F -0.240345       0.00000       0.00000    
         3     20717   F -0.240345       0.00000       0.00000    
         3     20721   F -0.240345       0.00000       0.00000    
         3     20725   F -0.240345       0.00000       0.00000    
         3     20729   F -0.240345       0.00000       0.00000    
         3     20733   F -0.240345       0.00000       0.00000    
         3     20737   F -0.240345       0.00000       0.00000    
         3     20741   F -0.240345       0.00000       0.00000    
         3     20745   F -0.240345       0.00000       0.00000    
         3     20749   F -0.240345       0.00000       0.00000    
         3     20753   F -0.240345       0.00000       0.00000    
         3     20757   F -0.240345       0.00000       0.00000    
         3     20761   F -0.240345       0.00000       0.00000    
         3     20765   F -0.240345       0.00000       0.00000    
         3     20769   F -0.240345       0.00000       0.00000    
         3     20773   F -0.240345       0.00000       0.00000    
         3     20777   F -0.240345       0.00000       0.00000    
         3     20781   F -0.240345       0.00000       0.00000    
         3     20785   F -0.240345       0.00000       0.00000    
         3     20789   F -0.240345       0.00000       0.00000    
         3     20793   F -0.240345       0.00000       0.00000    
         3     20797   F -0.240345       0.00000       0.00000    
         3     20801   F -0.240345       0.00000       0.00000    
         3     20805   F -0.240345       0.00000       0.00000    
         3     20809   F -0.240345       0.00000       0.00000    
         3     20813   F -0.240345       0.00000       0.00000    
         3     20817   F -0.240345       0.00000       0.00000    
         3     20821   F -0.240345       0.00000       0.00000    
         3     20825   F -0.240345       0.00000       0.00000    
         3     20829   F -0.240345       0.00000       0.00000    
         3     20833   F -0.240345       0.00000       0.00000    
         3     20837   F -0.240345       0.00000       0.00000    
         3     20841   F -0.240345       0.00000       0.00000    
         3     20845   F -0.240345       0.00000       0.00000    
         3     20849   F -0.240345       0.00000       0.00000    
         3     20853   F -0.240345       0.00000       0.00000    
         3     20857   F -0.240345       0.00000       0.00000    
         3     20861   F -0.240345       0.00000       0.00000    
         3     20865   F -0.240345       0.00000       0.00000    
         3     20869   F -0.240345       0.00000       0.00000    
         3     20873   F -0.240345       0.00000       0.00000    
         3     20877   F -0.240345       0.00000       0.00000    
         3     20881   F -0.240345       0.00000       0.00000    
         3     20885   F -0.240345       0.00000       0.00000    
         3     20889   F -0.240345       0.00000       0.00000    
         3     20893   F -0.240345       0.00000       0.00000    
         3     20897   F -0.240345       0.00000       0.00000    
         3     20901   F -0.240345       0.00000       0.00000    
         3     20905   F -0.240345       0.00000       0.00000    
         3     20909   F -0.240345       0.00000       0.00000    
         3     20913   F -0.240345       0.00000       0.00000    
         3     20917   F -0.240345       0.00000       0.00000    
         3     20921   F -0.240345       0.00000       0.00000    
         3     20925   F -0.240345       0.00000       0.00000    
         3     20929   F -0.240345       0.00000       0.00000    
         3     20933   F -0.240345       0.00000       0.00000    
         3     20937   F -0.240345       0.00000       0.00000    
         3     20941   F -0.240345       0.00000       0.00000    
         3     20945   F -0.240345       0.00000       0.00000    
         3     20949   F -0.240345       0.00000       0.00000    
         3     20953   F -0.240345       0.00000       0.00000    
         3     20957   F -0.240345       0.00000       0.00000    
         3     20961   F -0.240345       0.00000       0.00000    
         3     20965   F -0.240345       0.00000       0.00000    
         3     20969   F -0.240345       0.00000       0.00000    
         3     20973   F -0.240345       0.00000       0.00000    
         3     20977   F -0.240345       0.00000       0.00000    
         3     20981   F -0.240345       0.00000       0.00000    
         3     20985   F -0.240345       0.00000       0.00000    
         3     20989   F -0.240345       0.00000       0.00000    
         3     20993   F -0.240345       0.00000       0.00000    
         3     20997   F -0.240345       0.00000       0.00000    
         3     21001   F -0.240345       0.00000       0.00000    
         3     21005   F -0.240345       0.00000       0.00000    
         3     21009   F -0.240345       0.00000       0.00000    
         3     21013   F -0.240345       0.00000       0.00000    
         3     21017   F -0.240345       0.00000       0.00000    
         3     21021   F -0.240345       0.00000       0.00000    
         3     21025   F -0.240345       0.00000       0.00000    
         3     21029   F -0.240345       0.00000       0.00000    
         3     21033   F -0.240345       0.00000       0.00000    
         3     21037   F -0.240345       0.00000       0.00000    
         3     21041   F -0.240345       0.00000       0.00000    
         3     21045   F -0.240345       0.00000       0.00000    
         3     21049   F -0.240345       0.00000       0.00000    
         3     21053   F -0.240345       0.00000       0.00000    
         3     21057   F -0.240345       0.00000       0.00000    
         3     21061   F -0.240345       0.00000       0.00000    
         3     21065   F -0.240345       0.00000       0.00000    
         3     21069   F -0.240345       0.00000       0.00000    
         3     21073   F -0.240345       0.00000       0.00000    
         3     21077   F -0.240345       0.00000       0.00000    
         3     21081   F -0.240345       0.00000       0.00000    
         3     21085   F -0.240345       0.00000       0.00000    
         3     21089   F -0.240345       0.00000       0.00000    
         3     21093   F -0.240345       0.00000       0.00000    
         3     21097   F -0.240345       0.00000       0.00000    
         3     21101   F -0.240345       0.00000       0.00000    
         3     21105   F -0.240345       0.00000       0.00000    
         3     21109   F -0.240345       0.00000       0.00000    
         3     21113   F -0.240345       0.00000       0.00000    
         3     21117   F -0.240345       0.00000       0.00000    
         3     21121   F -0.240345       0.00000       0.00000    
         3     21125   F -0.240345       0.00000       0.00000    
         3     21129   F -0.240345       0.00000       0.00000    
         3     21133   F -0.240345       0.00000       0.00000    
         3     21137   F -0.240345       0.00000       0.00000    
         3     21141   F -0.240345       0.00000       0.00000    
         3     21145   F -0.240345       0.00000       0.00000    
         3     21149   F -0.240345       0.00000       0.00000    
         3     21153   F -0.240345       0.00000       0.00000    
         3     21157   F -0.240345       0.00000       0.00000    
         3     21161   F -0.240345       0.00000       0.00000    
         3     21165   F -0.240345       0.00000       0.00000    
         3     21169   F -0.240345       0.00000       0.00000    
         3     21173   F -0.240345       0.00000       0.00000    
         3     21177   F -0.240345       0.00000       0.00000    
         3     21181   F -0.240345       0.00000       0.00000    
         3     21185   F -0.240345       0.00000       0.00000    
         3     21189   F -0.240345       0.00000       0.00000    
         3     21193   F -0.240345       0.00000       0.00000    
         3     21197   F -0.240345       0.00000       0.00000    
         3     21201   F -0.240345       0.00000       0.00000    
         3     21205   F -0.240345       0.00000       0.00000    
         3     21209   F -0.240345       0.00000       0.00000    
         3     21213   F -0.240345       0.00000       0.00000    
         3     21217   F -0.240345       0.00000       0.00000    
         3     21221   F -0.240345       0.00000       0.00000    
         3     21225   F -0.240345       0.00000       0.00000    
         3     21229   F -0.240345       0.00000       0.00000    
         3     21233   F -0.240345       0.00000       0.00000    
         3     21237   F -0.240345       0.00000       0.00000    
         3     21241   F -0.240345       0.00000       0.00000    
         3     21245   F -0.240345       0.00000       0.00000    
         3     21249   F -0.240345       0.00000       0.00000    
         3     21253   F -0.240345       0.00000       0.00000    
         3     21257   F -0.240345       0.00000       0.00000    
         3     21261   F -0.240345       0.00000       0.00000    
         3     21265   F -0.240345       0.00000       0.00000    
         3     21269   F -0.240345       0.00000       0.00000    
         3     21273   F -0.240345       0.00000       0.00000    
         3     21277   F -0.240345       0.00000       0.00000    
         3     21281   F -0.240345       0.00000       0.00000    
         3     21285   F -0.240345       0.00000       0.00000    
         3     21289   F -0.240345       0.00000       0.00000    
         3     21293   F -0.240345       0.00000       0.00000    
         3     21297   F -0.240345       0.00000       0.00000    
         3     21301   F -0.240345       0.00000       0.00000    
         3     21305   F -0.240345       0.00000       0.00000    
         3     21309   F -0.240345       0.00000       0.00000    
         3     21313   F -0.240345       0.00000       0.00000    
         3     21317   F -0.240345       0.00000       0.00000    
         3     21321   F -0.240345       0.00000       0.00000    
         3     21325   F -0.240345       0.00000       0.00000    
         3     21329   F -0.240345       0.00000       0.00000    
         3     21333   F -0.240345       0.00000       0.00000    
         3     21337   F -0.240345       0.00000       0.00000    
         3     21341   F -0.240345       0.00000       0.00000    
         3     21345   F -0.240345       0.00000       0.00000    
         3     21349   F -0.240345       0.00000       0.00000    
         3     21353   F -0.240345       0.00000       0.00000    
         3     21357   F -0.240345       0.00000       0.00000    
         3     21361   F -0.240345       0.00000       0.00000    
         3     21365   F -0.240345       0.00000       0.00000    
         3     21369   F -0.240345       0.00000       0.00000    
         3     21373   F -0.240345       0.00000       0.00000    
         3     21377   F -0.240345       0.00000       0.00000    
         3     21381   F -0.240345       0.00000       0.00000    
         3     21385   F -0.240345       0.00000       0.00000    
         3     21389   F -0.240345       0.00000       0.00000    
         3     21393   F -0.240345       0.00000       0.00000    
         3     21397   F -0.240345       0.00000       0.00000    
         3     21401   F -0.240345       0.00000       0.00000    
         3     21405   F -0.240345       0.00000       0.00000    
         3     21409   F -0.240345       0.00000       0.00000    
         3     21413   F -0.240345       0.00000       0.00000    
         3     21417   F -0.240345       0.00000       0.00000    
         3     21421   F -0.240345       0.00000       0.00000    
         3     21425   F -0.240345       0.00000       0.00000    
         3     21429   F -0.240345       0.00000       0.00000    
         3     21433   F -0.240345       0.00000       0.00000    
         3     21437   F -0.240345       0.00000       0.00000    
         3     21441   F -0.240345       0.00000       0.00000    
         3     21445   F -0.240345       0.00000       0.00000    
         3     21449   F -0.240345       0.00000       0.00000    
         3     21453   F -0.240345       0.00000       0.00000    
         3     21457   F -0.240345       0.00000       0.00000    
         3     21461   F -0.240345       0.00000       0.00000    
         3     21465   F -0.240345       0.00000       0.00000    
         3     21469   F -0.240345       0.00000       0.00000    
         3     21473   F -0.240345       0.00000       0.00000    
         3     21477   F -0.240345       0.00000       0.00000    
         3     21481   F -0.240345       0.00000       0.00000    
         3     21485   F -0.240345       0.00000       0.00000    
         3     21489   F -0.240345       0.00000       0.00000    
         3     21493   F -0.240345       0.00000       0.00000    
         3     21497   F -0.240345       0.00000       0.00000    
         3     21501   F -0.240345       0.00000       0.00000    
         3     21505   F -0.240345       0.00000       0.00000    
         3     21509   F -0.240345       0.00000       0.00000    
         3     21513   F -0.240345       0.00000       0.00000    
         3     21517   F -0.240345       0.00000       0.00000    
         3     21521   F -0.240345       0.00000       0.00000    
         3     21525   F -0.240345       0.00000       0.00000    
         3     21529   F -0.240345       0.00000       0.00000    
         3     21533   F -0.240345       0.00000       0.00000    
         3     21537   F -0.240345       0.00000       0.00000    
         3     21541   F -0.240345       0.00000       0.00000    
         3     21545   F -0.240345       0.00000       0.00000    
         3     21549   F -0.240345       0.00000       0.00000    
         3     21553   F -0.240345       0.00000       0.00000    
         3     21557   F -0.240345       0.00000       0.00000    
         3     21561   F -0.240345       0.00000       0.00000    
         3     21565   F -0.240345       0.00000       0.00000    
         3     21569   F -0.240345       0.00000       0.00000    
         3     21573   F -0.240345       0.00000       0.00000    
         3     21577   F -0.240345       0.00000       0.00000    
         3     21581   F -0.240345       0.00000       0.00000    
         3     21585   F -0.240345       0.00000       0.00000    
         3     21589   F -0.240345       0.00000       0.00000    
         3     21593   F -0.240345       0.00000       0.00000    
         3     21597   F -0.240345       0.00000       0.00000    
         3     21601   F -0.240345       0.00000       0.00000    
         3     21605   F -0.240345       0.00000       0.00000    
         3     21609   F -0.240345       0.00000       0.00000    
         3     21613   F -0.240345       0.00000       0.00000    
         3     21617   F -0.240345       0.00000       0.00000    
         3     21621   F -0.240345       0.00000       0.00000    
         3     21625   F -0.240345       0.00000       0.00000    
         3     21629   F -0.240345       0.00000       0.00000    
         3     21633   F -0.240345       0.00000       0.00000    
         3     21637   F -0.240345       0.00000       0.00000    
         3     21641   F -0.240345       0.00000       0.00000    
         3     21645   F -0.240345       0.00000       0.00000    
         3     21649   F -0.240345       0.00000       0.00000    
         3     21653   F -0.240345       0.00000       0.00000    
         3     21657   F -0.240345       0.00000       0.00000    
         3     21661   F -0.240345       0.00000       0.00000    
         3     21665   F -0.240345       0.00000       0.00000    
         3     21669   F -0.240345       0.00000       0.00000    
         3     21673   F -0.240345       0.00000       0.00000    
         3     21677   F -0.240345       0.00000       0.00000    
         3     21681   F -0.240345       0.00000       0.00000    
         3     21685   F -0.240345       0.00000       0.00000    
         3     21689   F -0.240345       0.00000       0.00000    
         3     21693   F -0.240345       0.00000       0.00000    
         3     21697   F -0.240345       0.00000       0.00000    
         3     21701   F -0.240345       0.00000       0.00000    
         3     21705   F -0.240345       0.00000       0.00000    
         3     21709   F -0.240345       0.00000       0.00000    
         3     21713   F -0.240345       0.00000       0.00000    
         3     21717   F -0.240345       0.00000       0.00000    
         3     21721   F -0.240345       0.00000       0.00000    
         3     21725   F -0.240345       0.00000       0.00000    
         3     21729   F -0.240345       0.00000       0.00000    
         3     21733   F -0.240345       0.00000       0.00000    
         3     21737   F -0.240345       0.00000       0.00000    
         3     21741   F -0.240345       0.00000       0.00000    
         3     21745   F -0.240345       0.00000       0.00000    
         3     21749   F -0.240345       0.00000       0.00000    
         3     21753   F -0.240345       0.00000       0.00000    
         3     21757   F -0.240345       0.00000       0.00000    
         3     21761   F -0.240345       0.00000       0.00000    
         3     21765   F -0.240345       0.00000       0.00000    
         3     21769   F -0.240345       0.00000       0.00000    
         3     21773   F -0.240345       0.00000       0.00000    
         3     21777   F -0.240345       0.00000       0.00000    
         3     21781   F -0.240345       0.00000       0.00000    
         3     21785   F -0.240345       0.00000       0.00000    
         3     21789   F -0.240345       0.00000       0.00000    
         3     21793   F -0.240345       0.00000       0.00000    
         3     21797   F -0.240345       0.00000       0.00000    
         3     21801   F -0.240345       0.00000       0.00000    
         3     21805   F -0.240345       0.00000       0.00000    
         3     21809   F -0.240345       0.00000       0.00000    
         3     21813   F -0.240345       0.00000       0.00000    
         3     21817   F -0.240345       0.00000       0.00000    
         3     21821   F -0.240345       0.00000       0.00000    
         3     21825   F -0.240345       0.00000       0.00000    
         3     21829   F -0.240345       0.00000       0.00000    
         3     21833   F -0.240345       0.00000       0.00000    
         3     21837   F -0.240345       0.00000       0.00000    
         3     21841   F -0.240345       0.00000       0.00000    
         3     21845   F -0.240345       0.00000       0.00000    
         3     21849   F -0.240345       0.00000       0.00000    
         3     21853   F -0.240345       0.00000       0.00000    
         3     21857   F -0.240345       0.00000       0.00000    
         3     21861   F -0.240345       0.00000       0.00000    
         3     21865   F -0.240345       0.00000       0.00000    
         3     21869   F -0.240345       0.00000       0.00000    
         3     21873   F -0.240345       0.00000       0.00000    
         3     21877   F -0.240345       0.00000       0.00000    
         3     21881   F -0.240345       0.00000       0.00000    
         3     21885   F -0.240345       0.00000       0.00000    
         3     21889   F -0.240345       0.00000       0.00000    
         3     21893   F -0.240345       0.00000       0.00000    
         3     21897   F -0.240345       0.00000       0.00000    
         3     21901   F -0.240345       0.00000       0.00000    
         3     21905   F -0.240345       0.00000       0.00000    
         3     21909   F -0.240345       0.00000       0.00000    
         3     21913   F -0.240345       0.00000       0.00000    
         3     21917   F -0.240345       0.00000       0.00000    
         3     21921   F -0.240345       0.00000       0.00000    
         3     21925   F -0.240345       0.00000       0.00000    
         3     21929   F -0.240345       0.00000       0.00000    
         3     21933   F -0.240345       0.00000       0.00000    
         3     21937   F -0.240345       0.00000       0.00000    
         3     21941   F -0.240345       0.00000       0.00000    
         3     21945   F -0.240345       0.00000       0.00000    
         3     21949   F -0.240345       0.00000       0.00000    
         3     21953   F -0.240345       0.00000       0.00000    
         3     21957   F -0.240345       0.00000       0.00000    
         3     21961   F -0.240345       0.00000       0.00000    
         3     21965   F -0.240345       0.00000       0.00000    
         3     21969   F -0.240345       0.00000       0.00000    
         3     21973   F -0.240345       0.00000       0.00000    
         3     21977   F -0.240345       0.00000       0.00000    
         3     21981   F -0.240345       0.00000       0.00000    
         3     21985   F -0.240345       0.00000       0.00000    
         3     21989   F -0.240345       0.00000       0.00000    
         3     21993   F -0.240345       0.00000       0.00000    
         3     21997   F -0.240345       0.00000       0.00000    
         3     22001   F -0.240345       0.00000       0.00000    
         3     22005   F -0.240345       0.00000       0.00000    
         3     22009   F -0.240345       0.00000       0.00000    
         3     22013   F -0.240345       0.00000       0.00000    
         3     22017   F -0.240345       0.00000       0.00000    
         3     22021   F -0.240345       0.00000       0.00000    
         3     22025   F -0.240345       0.00000       0.00000    
         3     22029   F -0.240345       0.00000       0.00000    
         3     22033   F -0.240345       0.00000       0.00000    
         3     22037   F -0.240345       0.00000       0.00000    
         3     22041   F -0.240345       0.00000       0.00000    
         3     22045   F -0.240345       0.00000       0.00000    
         3     22049   F -0.240345       0.00000       0.00000    
         3     22053   F -0.240345       0.00000       0.00000    
         3     22057   F -0.240345       0.00000       0.00000    
         3     22061   F -0.240345       0.00000       0.00000    
         3     22065   F -0.240345       0.00000       0.00000    
         3     22069   F -0.240345       0.00000       0.00000    
         3     22073   F -0.240345       0.00000       0.00000    
         3     22077   F -0.240345       0.00000       0.00000    
         3     22081   F -0.240345       0.00000       0.00000    
         3     22085   F -0.240345       0.00000       0.00000    
         3     22089   F -0.240345       0.00000       0.00000    
         3     22093   F -0.240345       0.00000       0.00000    
         3     22097   F -0.240345       0.00000       0.00000    
         3     22101   F -0.240345       0.00000       0.00000    
         3     22105   F -0.240345       0.00000       0.00000    
         3     22109   F -0.240345       0.00000       0.00000    
         3     22113   F -0.240345       0.00000       0.00000    
         3     22117   F -0.240345       0.00000       0.00000    
         3     22121   F -0.240345       0.00000       0.00000    
         3     22125   F -0.240345       0.00000       0.00000    
         3     22129   F -0.240345       0.00000       0.00000    
         3     22133   F -0.240345       0.00000       0.00000    
         3     22137   F -0.240345       0.00000       0.00000    
         3     22141   F -0.240345       0.00000       0.00000    
         3     22145   F -0.240345       0.00000       0.00000    
         3     22149   F -0.240345       0.00000       0.00000    
         3     22153   F -0.240345       0.00000       0.00000    
         3     22157   F -0.240345       0.00000       0.00000    
         3     22161   F -0.240345       0.00000       0.00000    
         3     22165   F -0.240345       0.00000       0.00000    
         3     22169   F -0.240345       0.00000       0.00000    
         3     22173   F -0.240345       0.00000       0.00000    
         3     22177   F -0.240345       0.00000       0.00000    
         3     22181   F -0.240345       0.00000       0.00000    
         3     22185   F -0.240345       0.00000       0.00000    
         3     22189   F -0.240345       0.00000       0.00000    
         3     22193   F -0.240345       0.00000       0.00000    
         3     22197   F -0.240345       0.00000       0.00000    
         3     22201   F -0.240345       0.00000       0.00000    
         3     22205   F -0.240345       0.00000       0.00000    
         3     22209   F -0.240345       0.00000       0.00000    
         3     22213   F -0.240345       0.00000       0.00000    
         3     22217   F -0.240345       0.00000       0.00000    
         3     22221   F -0.240345       0.00000       0.00000    
         3     22225   F -0.240345       0.00000       0.00000    
         3     22229   F -0.240345       0.00000       0.00000    
         3     22233   F -0.240345       0.00000       0.00000    
         3     22237   F -0.240345       0.00000       0.00000    
         3     22241   F -0.240345       0.00000       0.00000    
         3     22245   F -0.240345       0.00000       0.00000    
         3     22249   F -0.240345       0.00000       0.00000    
         3     22253   F -0.240345       0.00000       0.00000    
         3     22257   F -0.240345       0.00000       0.00000    
         3     22261   F -0.240345       0.00000       0.00000    
         3     22265   F -0.240345       0.00000       0.00000    
         3     22269   F -0.240345       0.00000       0.00000    
         3     22273   F -0.240345       0.00000       0.00000    
         3     22277   F -0.240345       0.00000       0.00000    
         3     22281   F -0.240345       0.00000       0.00000    
         3     22285   F -0.240345       0.00000       0.00000    
         3     22289   F -0.240345       0.00000       0.00000    
         3     22293   F -0.240345       0.00000       0.00000    
         3     22297   F -0.240345       0.00000       0.00000    
         3     22301   F -0.240345       0.00000       0.00000    
         3     22305   F -0.240345       0.00000       0.00000    
         3     22309   F -0.240345       0.00000       0.00000    
         3     22313   F -0.240345       0.00000       0.00000    
         3     22317   F -0.240345       0.00000       0.00000    
         3     22321   F -0.240345       0.00000       0.00000    
         3     22325   F -0.240345       0.00000       0.00000    
         3     22329   F -0.240345       0.00000       0.00000    
         3     22333   F -0.240345       0.00000       0.00000    
         3     22337   F -0.240345       0.00000       0.00000    
         3     22341   F -0.240345       0.00000       0.00000    
         3     22345   F -0.240345       0.00000       0.00000    
         3     22349   F -0.240345       0.00000       0.00000    
         3     22353   F -0.240345       0.00000       0.00000    
         3     22357   F -0.240345       0.00000       0.00000    
         3     22361   F -0.240345       0.00000       0.00000    
         3     22365   F -0.240345       0.00000       0.00000    
         3     22369   F -0.240345       0.00000       0.00000    
         3     22373   F -0.240345       0.00000       0.00000    
         3     22377   F -0.240345       0.00000       0.00000    
         3     22381   F -0.240345       0.00000       0.00000    
         3     22385   F -0.240345       0.00000       0.00000    
         3     22389   F -0.240345       0.00000       0.00000    
         3     22393   F -0.240345       0.00000       0.00000    
         3     22397   F -0.240345       0.00000       0.00000    
         3     22401   F -0.240345       0.00000       0.00000    
         3     22405   F -0.240345       0.00000       0.00000    
         3     22409   F -0.240345       0.00000       0.00000    
         3     22413   F -0.240345       0.00000       0.00000    
         3     22417   F -0.240345       0.00000       0.00000    
         3     22421   F -0.240345       0.00000       0.00000    
         3     22425   F -0.240345       0.00000       0.00000    
         3     22429   F -0.240345       0.00000       0.00000    
         3     22433   F -0.240345       0.00000       0.00000    
         3     22437   F -0.240345       0.00000       0.00000    
         3     22441   F -0.240345       0.00000       0.00000    
         3     22445   F -0.240345       0.00000       0.00000    
         3     22449   F -0.240345       0.00000       0.00000    
         3     22453   F -0.240345       0.00000       0.00000    
         3     22457   F -0.240345       0.00000       0.00000    
         3     22461   F -0.240345       0.00000       0.00000    
         3     22465   F -0.240345       0.00000       0.00000    
         3     22469   F -0.240345       0.00000       0.00000    
         3     22473   F -0.240345       0.00000       0.00000    
         3     22477   F -0.240345       0.00000       0.00000    
         3     22481   F -0.240345       0.00000       0.00000    
         3     22485   F -0.240345       0.00000       0.00000    
         3     22489   F -0.240345       0.00000       0.00000    
         3     22493   F -0.240345       0.00000       0.00000    
         3     22497   F -0.240345       0.00000       0.00000    
         3     22501   F -0.240345       0.00000       0.00000    
         3     22505   F -0.240345       0.00000       0.00000    
         3     22509   F -0.240345       0.00000       0.00000    
         3     22513   F -0.240345       0.00000       0.00000    
         3     22517   F -0.240345       0.00000       0.00000    
         3     22521   F -0.240345       0.00000       0.00000    
         3     22525   F -0.240345       0.00000       0.00000    
         3     22529   F -0.240345       0.00000       0.00000    
         3     22533   F -0.240345       0.00000       0.00000    
         3     22537   F -0.240345       0.00000       0.00000    
         3     22541   F -0.240345       0.00000       0.00000    
         3     22545   F -0.240345       0.00000       0.00000    
         3     22549   F -0.240345       0.00000       0.00000    
         3     22553   F -0.240345       0.00000       0.00000    
         3     22557   F -0.240345       0.00000       0.00000    
         3     22561   F -0.240345       0.00000       0.00000    
         3     22565   F -0.240345       0.00000       0.00000    
         3     22569   F -0.240345       0.00000       0.00000    
         3     22573   F -0.240345       0.00000       0.00000    
         3     22577   F -0.240345       0.00000       0.00000    
         3     22581   F -0.240345       0.00000       0.00000    
         3     22585   F -0.240345       0.00000       0.00000    
         3     22589   F -0.240345       0.00000       0.00000    
         3     22593   F -0.240345       0.00000       0.00000    
         3     22597   F -0.240345       0.00000       0.00000    
         3     22601   F -0.240345       0.00000       0.00000    
         3     22605   F -0.240345       0.00000       0.00000    
         3     22609   F -0.240345       0.00000       0.00000    
         3     22613   F -0.240345       0.00000       0.00000    
         3     22617   F -0.240345       0.00000       0.00000    
         3     22621   F -0.240345       0.00000       0.00000    
         3     22625   F -0.240345       0.00000       0.00000    
         3     22629   F -0.240345       0.00000       0.00000    
         3     22633   F -0.240345       0.00000       0.00000    
         3     22637   F -0.240345       0.00000       0.00000    
         3     22641   F -0.240345       0.00000       0.00000    
         3     22645   F -0.240345       0.00000       0.00000    
         3     22649   F -0.240345       0.00000       0.00000    
         3     22653   F -0.240345       0.00000       0.00000    
         3     22657   F -0.240345       0.00000       0.00000    
         3     22661   F -0.240345       0.00000       0.00000    
         3     22665   F -0.240345       0.00000       0.00000    
         3     22669   F -0.240345       0.00000       0.00000    
         3     22673   F -0.240345       0.00000       0.00000    
         3     22677   F -0.240345       0.00000       0.00000    
         3     22681   F -0.240345       0.00000       0.00000    
         3     22685   F -0.240345       0.00000       0.00000    
         3     22689   F -0.240345       0.00000       0.00000    
         3     22693   F -0.240345       0.00000       0.00000    
         3     22697   F -0.240345       0.00000       0.00000    
         3     22701   F -0.240345       0.00000       0.00000    
         3     22705   F -0.240345       0.00000       0.00000    
         3     22709   F -0.240345       0.00000       0.00000    
         3     22713   F -0.240345       0.00000       0.00000    
         3     22717   F -0.240345       0.00000       0.00000    
         3     22721   F -0.240345       0.00000       0.00000    
         3     22725   F -0.240345       0.00000       0.00000    
         3     22729   F -0.240345       0.00000       0.00000    
         3     22733   F -0.240345       0.00000       0.00000    
         3     22737   F -0.240345       0.00000       0.00000    
         3     22741   F -0.240345       0.00000       0.00000    
         3     22745   F -0.240345       0.00000       0.00000    
         3     22749   F -0.240345       0.00000       0.00000    
         3     22753   F -0.240345       0.00000       0.00000    
         3     22757   F -0.240345       0.00000       0.00000    
         3     22761   F -0.240345       0.00000       0.00000    
         3     22765   F -0.240345       0.00000       0.00000    
         3     22769   F -0.240345       0.00000       0.00000    
         3     22773   F -0.240345       0.00000       0.00000    
         3     22777   F -0.240345       0.00000       0.00000    
         3     22781   F -0.240345       0.00000       0.00000    
         3     22785   F -0.240345       0.00000       0.00000    
         3     22789   F -0.240345       0.00000       0.00000    
         3     22793   F -0.240345       0.00000       0.00000    
         3     22797   F -0.240345       0.00000       0.00000    
         3     22801   F -0.240345       0.00000       0.00000    
         3     22805   F -0.240345       0.00000       0.00000    
         3     22809   F -0.240345       0.00000       0.00000    
         3     22813   F -0.240345       0.00000       0.00000    
         3     22817   F -0.240345       0.00000       0.00000    
         3     22821   F -0.240345       0.00000       0.00000    
         3     22825   F -0.240345       0.00000       0.00000    
         3     22829   F -0.240345       0.00000       0.00000    
         3     22833   F -0.240345       0.00000       0.00000    
         3     22837   F -0.240345       0.00000       0.00000    
         3     22841   F -0.240345       0.00000       0.00000    
         3     22845   F -0.240345       0.00000       0.00000    
         3     22849   F -0.240345       0.00000       0.00000    
         3     22853   F -0.240345       0.00000       0.00000    
         3     22857   F -0.240345       0.00000       0.00000    
         3     22861   F -0.240345       0.00000       0.00000    
         3     22865   F -0.240345       0.00000       0.00000    
         3     22869   F -0.240345       0.00000       0.00000    
         3     22873   F -0.240345       0.00000       0.00000    
         3     22877   F -0.240345       0.00000       0.00000    
         3     22881   F -0.240345       0.00000       0.00000    
         3     22885   F -0.240345       0.00000       0.00000    
         3     22889   F -0.240345       0.00000       0.00000    
         3     22893   F -0.240345       0.00000       0.00000    
         3     22897   F -0.240345       0.00000       0.00000    
         3     22901   F -0.240345       0.00000       0.00000    
         3     22905   F -0.240345       0.00000       0.00000    
         3     22909   F -0.240345       0.00000       0.00000    
         3     22913   F -0.240345       0.00000       0.00000    
         3     22917   F -0.240345       0.00000       0.00000    
         3     22921   F -0.240345       0.00000       0.00000    
         3     22925   F -0.240345       0.00000       0.00000    
         3     22929   F -0.240345       0.00000       0.00000    
         3     22933   F -0.240345       0.00000       0.00000    
         3     22937   F -0.240345       0.00000       0.00000    
         3     22941   F -0.240345       0.00000       0.00000    
         3     22945   F -0.240345       0.00000       0.00000    
         3     22949   F -0.240345       0.00000       0.00000    
         3     22953   F -0.240345       0.00000       0.00000    
         3     22957   F -0.240345       0.00000       0.00000    
         3     22961   F -0.240345       0.00000       0.00000    
         3     22965   F -0.240345       0.00000       0.00000    
         3     22969   F -0.240345       0.00000       0.00000    
         3     22973   F -0.240345       0.00000       0.00000    
         3     22977   F -0.240345       0.00000       0.00000    
         3     22981   F -0.240345       0.00000       0.00000    
         3     22985   F -0.240345       0.00000       0.00000    
         3     22989   F -0.240345       0.00000       0.00000    
         3     22993   F -0.240345       0.00000       0.00000    
         3     22997   F -0.240345       0.00000       0.00000    
         3     23001   F -0.240345       0.00000       0.00000    
         3     23005   F -0.240345       0.00000       0.00000    
         3     23009   F -0.240345       0.00000       0.00000    
         3     23013   F -0.240345       0.00000       0.00000    
         3     23017   F -0.240345       0.00000       0.00000    
         3     23021   F -0.240345       0.00000       0.00000    
         3     23025   F -0.240345       0.00000       0.00000    
         3     23029   F -0.240345       0.00000       0.00000    
         3     23033   F -0.240345       0.00000       0.00000    
         3     23037   F -0.240345       0.00000       0.00000    
         3     23041   F -0.240345       0.00000       0.00000    
         3     23045   F -0.240345       0.00000       0.00000    
         3     23049   F -0.240345       0.00000       0.00000    
         3     23053   F -0.240345       0.00000       0.00000    
         3     23057   F -0.240345       0.00000       0.00000    
         3     23061   F -0.240345       0.00000       0.00000    
         3     23065   F -0.240345       0.00000       0.00000    
         3     23069   F -0.240345       0.00000       0.00000    
         3     23073   F -0.240345       0.00000       0.00000    
         3     23077   F -0.240345       0.00000       0.00000    
         3     23081   F -0.240345       0.00000       0.00000    
         3     23085   F -0.240345       0.00000       0.00000    
         3     23089   F -0.240345       0.00000       0.00000    
         3     23093   F -0.240345       0.00000       0.00000    
         3     23097   F -0.240345       0.00000       0.00000    
         3     23101   F -0.240345       0.00000       0.00000    
         3     23105   F -0.240345       0.00000       0.00000    
         3     23109   F -0.240345       0.00000       0.00000    
         3     23113   F -0.240345       0.00000       0.00000    
         3     23117   F -0.240345       0.00000       0.00000    
         3     23121   F -0.240345       0.00000       0.00000    
         3     23125   F -0.240345       0.00000       0.00000    
         3     23129   F -0.240345       0.00000       0.00000    
         3     23133   F -0.240345       0.00000       0.00000    
         3     23137   F -0.240345       0.00000       0.00000    
         3     23141   F -0.240345       0.00000       0.00000    
         3     23145   F -0.240345       0.00000       0.00000    
         3     23149   F -0.240345       0.00000       0.00000    
         3     23153   F -0.240345       0.00000       0.00000    
         3     23157   F -0.240345       0.00000       0.00000    
         3     23161   F -0.240345       0.00000       0.00000    
         3     23165   F -0.240345       0.00000       0.00000    
         3     23169   F -0.240345       0.00000       0.00000    
         3     23173   F -0.240345       0.00000       0.00000    
         3     23177   F -0.240345       0.00000       0.00000    
         3     23181   F -0.240345       0.00000       0.00000    
         3     23185   F -0.240345       0.00000       0.00000    
         3     23189   F -0.240345       0.00000       0.00000    
         3     23193   F -0.240345       0.00000       0.00000    
         3     23197   F -0.240345       0.00000       0.00000    
         3     23201   F -0.240345       0.00000       0.00000    
         3     23205   F -0.240345       0.00000       0.00000    
         3     23209   F -0.240345       0.00000       0.00000    
         3     23213   F -0.240345       0.00000       0.00000    
         3     23217   F -0.240345       0.00000       0.00000    
         3     23221   F -0.240345       0.00000       0.00000    
         3     23225   F -0.240345       0.00000       0.00000    
         3     23229   F -0.240345       0.00000       0.00000    
         3     23233   F -0.240345       0.00000       0.00000    
         3     23237   F -0.240345       0.00000       0.00000    
         3     23241   F -0.240345       0.00000       0.00000    
         3     23245   F -0.240345       0.00000       0.00000    
         3     23249   F -0.240345       0.00000       0.00000    
         3     23253   F -0.240345       0.00000       0.00000    
         3     23257   F -0.240345       0.00000       0.00000    
         3     23261   F -0.240345       0.00000       0.00000    
         3     23265   F -0.240345       0.00000       0.00000    
         3     23269   F -0.240345       0.00000       0.00000    
         3     23273   F -0.240345       0.00000       0.00000    
         3     23277   F -0.240345       0.00000       0.00000    
         3     23281   F -0.240345       0.00000       0.00000    
         3     23285   F -0.240345       0.00000       0.00000    
         3     23289   F -0.240345       0.00000       0.00000    
         3     23293   F -0.240345       0.00000       0.00000    
         3     23297   F -0.240345       0.00000       0.00000    
         3     23301   F -0.240345       0.00000       0.00000    
         3     23305   F -0.240345       0.00000       0.00000    
         3     23309   F -0.240345       0.00000       0.00000    
         3     23313   F -0.240345       0.00000       0.00000    
         3     23317   F -0.240345       0.00000       0.00000    
         3     23321   F -0.240345       0.00000       0.00000    
         3     23325   F -0.240345       0.00000       0.00000    
         3     23329   F -0.240345       0.00000       0.00000    
         3     23333   F -0.240345       0.00000       0.00000    
         3     23337   F -0.240345       0.00000       0.00000    
         3     23341   F -0.240345       0.00000       0.00000    
         3     23345   F -0.240345       0.00000       0.00000    
         3     23349   F -0.240345       0.00000       0.00000    
         3     23353   F -0.240345       0.00000       0.00000    
         3     23357   F -0.240345       0.00000       0.00000    
         3     23361   F -0.240345       0.00000       0.00000    
         3     23365   F -0.240345       0.00000       0.00000    
         3     23369   F -0.240345       0.00000       0.00000    
         3     23373   F -0.240345       0.00000       0.00000    
         3     23377   F -0.240345       0.00000       0.00000    
         3     23381   F -0.240345       0.00000       0.00000    
         3     23385   F -0.240345       0.00000       0.00000    
         3     23389   F -0.240345       0.00000       0.00000    
         3     23393   F -0.240345       0.00000       0.00000    
         3     23397   F -0.240345       0.00000       0.00000    
         3     23401   F -0.240345       0.00000       0.00000    
         3     23405   F -0.240345       0.00000       0.00000    
         3     23409   F -0.240345       0.00000       0.00000    
         3     23413   F -0.240345       0.00000       0.00000    
         3     23417   F -0.240345       0.00000       0.00000    
         3     23421   F -0.240345       0.00000       0.00000    
         3     23425   F -0.240345       0.00000       0.00000    
         3     23429   F -0.240345       0.00000       0.00000    
         3     23433   F -0.240345       0.00000       0.00000    
         3     23437   F -0.240345       0.00000       0.00000    
         3     23441   F -0.240345       0.00000       0.00000    
         3     23445   F -0.240345       0.00000       0.00000    
         3     23449   F -0.240345       0.00000       0.00000    
         3     23453   F -0.240345       0.00000       0.00000    
         3     23457   F -0.240345       0.00000       0.00000    
         3     23461   F -0.240345       0.00000       0.00000    
         3     23465   F -0.240345       0.00000       0.00000    
         3     23469   F -0.240345       0.00000       0.00000    
         3     23473   F -0.240345       0.00000       0.00000    
         3     23477   F -0.240345       0.00000       0.00000    
         3     23481   F -0.240345       0.00000       0.00000    
         3     23485   F -0.240345       0.00000       0.00000    
         3     23489   F -0.240345       0.00000       0.00000    
         3     23493   F -0.240345       0.00000       0.00000    
         3     23497   F -0.240345       0.00000       0.00000    
         3     23501   F -0.240345       0.00000       0.00000    
         3     23505   F -0.240345       0.00000       0.00000    
         3     23509   F -0.240345       0.00000       0.00000    
         3     23513   F -0.240345       0.00000       0.00000    
         3     23517   F -0.240345       0.00000       0.00000    
         3     23521   F -0.240345       0.00000       0.00000    
         3     23525   F -0.240345       0.00000       0.00000    
         3     23529   F -0.240345       0.00000       0.00000    
         3     23533   F -0.240345       0.00000       0.00000    
         3     23537   F -0.240345       0.00000       0.00000    
         3     23541   F -0.240345       0.00000       0.00000    
         3     23545   F -0.240345       0.00000       0.00000    
         3     23549   F -0.240345       0.00000       0.00000    
         3     23553   F -0.240345       0.00000       0.00000    
         3     23557   F -0.240345       0.00000       0.00000    
         3     23561   F -0.240345       0.00000       0.00000    
         3     23565   F -0.240345       0.00000       0.00000    
         3     23569   F -0.240345       0.00000       0.00000    
         3     23573   F -0.240345       0.00000       0.00000    
         3     23577   F -0.240345       0.00000       0.00000    
         3     23581   F -0.240345       0.00000       0.00000    
         3     23585   F -0.240345       0.00000       0.00000    
         3     23589   F -0.240345       0.00000       0.00000    
         3     23593   F -0.240345       0.00000       0.00000    
         3     23597   F -0.240345       0.00000       0.00000    
         3     23601   F -0.240345       0.00000       0.00000    
         3     23605   F -0.240345       0.00000       0.00000    
         3     23609   F -0.240345       0.00000       0.00000    
         3     23613   F -0.240345       0.00000       0.00000    
         3     23617   F -0.240345       0.00000       0.00000    
         3     23621   F -0.240345       0.00000       0.00000    
         3     23625   F -0.240345       0.00000       0.00000    
         3     23629   F -0.240345       0.00000       0.00000    
         3     23633   F -0.240345       0.00000       0.00000    
         3     23637   F -0.240345       0.00000       0.00000    
         3     23641   F -0.240345       0.00000       0.00000    
         3     23645   F -0.240345       0.00000       0.00000    
         3     23649   F -0.240345       0.00000       0.00000    
         3     23653   F -0.240345       0.00000       0.00000    
         3     23657   F -0.240345       0.00000       0.00000    
         3     23661   F -0.240345       0.00000       0.00000    
         3     23665   F -0.240345       0.00000       0.00000    
         3     23669   F -0.240345       0.00000       0.00000    
         3     23673   F -0.240345       0.00000       0.00000    
         3     23677   F -0.240345       0.00000       0.00000    
         3     23681   F -0.240345       0.00000       0.00000    
         3     23685   F -0.240345       0.00000       0.00000    
         3     23689   F -0.240345       0.00000       0.00000    
         3     23693   F -0.240345       0.00000       0.00000    
         3     23697   F -0.240345       0.00000       0.00000    
         3     23701   F -0.240345       0.00000       0.00000    
         3     23705   F -0.240345       0.00000       0.00000    
         3     23709   F -0.240345       0.00000       0.00000    
         3     23713   F -0.240345       0.00000       0.00000    
         3     23717   F -0.240345       0.00000       0.00000    
         3     23721   F -0.240345       0.00000       0.00000    
         3     23725   F -0.240345       0.00000       0.00000    
         3     23729   F -0.240345       0.00000       0.00000    
         3     23733   F -0.240345       0.00000       0.00000    
         3     23737   F -0.240345       0.00000       0.00000    
         3     23741   F -0.240345       0.00000       0.00000    
         3     23745   F -0.240345       0.00000       0.00000    
         3     23749   F -0.240345       0.00000       0.00000    
         3     23753   F -0.240345       0.00000       0.00000    
         3     23757   F -0.240345       0.00000       0.00000    
         3     23761   F -0.240345       0.00000       0.00000    
         3     23765   F -0.240345       0.00000       0.00000    
         3     23769   F -0.240345       0.00000       0.00000    
         3     23773   F -0.240345       0.00000       0.00000    
         3     23777   F -0.240345       0.00000       0.00000    
         3     23781   F -0.240345       0.00000       0.00000    
         3     23785   F -0.240345       0.00000       0.00000    
         3     23789   F -0.240345       0.00000       0.00000    
         3     23793   F -0.240345       0.00000       0.00000    
         3     23797   F -0.240345       0.00000       0.00000    
         3     23801   F -0.240345       0.00000       0.00000    
         3     23805   F -0.240345       0.00000       0.00000    
         3     23809   F -0.240345       0.00000       0.00000    
         3     23813   F -0.240345       0.00000       0.00000    
         3     23817   F -0.240345       0.00000       0.00000    
         3     23821   F -0.240345       0.00000       0.00000    
         3     23825   F -0.240345       0.00000       0.00000    
         3     23829   F -0.240345       0.00000       0.00000    
         3     23833   F -0.240345       0.00000       0.00000    
         3     23837   F -0.240345       0.00000       0.00000    
         3     23841   F -0.240345       0.00000       0.00000    
         3     23845   F -0.240345       0.00000       0.00000    
         3     23849   F -0.240345       0.00000       0.00000    
         3     23853   F -0.240345       0.00000       0.00000    
         3     23857   F -0.240345       0.00000       0.00000    
         3     23861   F -0.240345       0.00000       0.00000    
         3     23865   F -0.240345       0.00000       0.00000    
         3     23869   F -0.240345       0.00000       0.00000    
         3     23873   F -0.240345       0.00000       0.00000    
         3     23877   F -0.240345       0.00000       0.00000    
         3     23881   F -0.240345       0.00000       0.00000    
         3     23885   F -0.240345       0.00000       0.00000    
         3     23889   F -0.240345       0.00000       0.00000    
         3     23893   F -0.240345       0.00000       0.00000    
         3     23897   F -0.240345       0.00000       0.00000    
         3     23901   F -0.240345       0.00000       0.00000    
         3     23905   F -0.240345       0.00000       0.00000    
         3     23909   F -0.240345       0.00000       0.00000    
         3     23913   F -0.240345       0.00000       0.00000    
         3     23917   F -0.240345       0.00000       0.00000    
         3     23921   F -0.240345       0.00000       0.00000    
         3     23925   F -0.240345       0.00000       0.00000    
         3     23929   F -0.240345       0.00000       0.00000    
         3     23933   F -0.240345       0.00000       0.00000    
         3     23937   F -0.240345       0.00000       0.00000    
         3     23941   F -0.240345       0.00000       0.00000    
         3     23945   F -0.240345       0.00000       0.00000    
         3     23949   F -0.240345       0.00000       0.00000    
         3     23953   F -0.240345       0.00000       0.00000    
         3     23957   F -0.240345       0.00000       0.00000    
         3     23961   F -0.240345       0.00000       0.00000    
         3     23965   F -0.240345       0.00000       0.00000    
         3     23969   F -0.240345       0.00000       0.00000    
         3     23973   F -0.240345       0.00000       0.00000    
         3     23977   F -0.240345       0.00000       0.00000    
         3     23981   F -0.240345       0.00000       0.00000    
         3     23985   F -0.240345       0.00000       0.00000    
         3     23989   F -0.240345       0.00000       0.00000    
         3     23993   F -0.240345       0.00000       0.00000    
         3     23997   F -0.240345       0.00000       0.00000    
         3     24001   F -0.240345       0.00000       0.00000    
         3     24005   F -0.240345       0.00000       0.00000    
         3     24009   F -0.240345       0.00000       0.00000    
         3     24013   F -0.240345       0.00000       0.00000    
         3     24017   F -0.240345       0.00000       0.00000    
         3     24021   F -0.240345       0.00000       0.00000    
         3     24025   F -0.240345       0.00000       0.00000    
         3     24029   F -0.240345       0.00000       0.00000    
         3     24033   F -0.240345       0.00000       0.00000    
         3     24037   F -0.240345       0.00000       0.00000    
         3     24041   F -0.240345       0.00000       0.00000    
         3     24045   F -0.240345       0.00000       0.00000    
         3     24049   F -0.240345       0.00000       0.00000    
         3     24053   F -0.240345       0.00000       0.00000    
         3     24057   F -0.240345       0.00000       0.00000    
         3     24061   F -0.240345       0.00000       0.00000    
         3     24065   F -0.240345       0.00000       0.00000    
         3     24069   F -0.240345       0.00000       0.00000    
         3     24073   F -0.240345       0.00000       0.00000    
         3     24077   F -0.240345       0.00000       0.00000    
         3     24081   F -0.240345       0.00000       0.00000    
         3     24085   F -0.240345       0.00000       0.00000    
         3     24089   F -0.240345       0.00000       0.00000    
         3     24093   F -0.240345       0.00000       0.00000    
         3     24097   F -0.240345       0.00000       0.00000    
         3     24101   F -0.240345       0.00000       0.00000    
         3     24105   F -0.240345       0.00000       0.00000    
         3     24109   F -0.240345       0.00000       0.00000    
         3     24113   F -0.240345       0.00000       0.00000    
         3     24117   F -0.240345       0.00000       0.00000    
         3     24121   F -0.240345       0.00000       0.00000    
         3     24125   F -0.240345       0.00000       0.00000    
         3     24129   F -0.240345       0.00000       0.00000    
         3     24133   F -0.240345       0.00000       0.00000    
         3     24137   F -0.240345       0.00000       0.00000    
         3     24141   F -0.240345       0.00000       0.00000    
         3     24145   F -0.240345       0.00000       0.00000    
         3     24149   F -0.240345       0.00000       0.00000    
         3     24153   F -0.240345       0.00000       0.00000    
         3     24157   F -0.240345       0.00000       0.00000    
         3     24161   F -0.240345       0.00000       0.00000    
         3     24165   F -0.240345       0.00000       0.00000    
         3     24169   F -0.240345       0.00000       0.00000    
         3     24173   F -0.240345       0.00000       0.00000    
         3     24177   F -0.240345       0.00000       0.00000    
         3     24181   F -0.240345       0.00000       0.00000    
         3     24185   F -0.240345       0.00000       0.00000    
         3     24189   F -0.240345       0.00000       0.00000    
         3     24193   F -0.240345       0.00000       0.00000    
         3     24197   F -0.240345       0.00000       0.00000    
         3     24201   F -0.240345       0.00000       0.00000    
         3     24205   F -0.240345       0.00000       0.00000    
         3     24209   F -0.240345       0.00000       0.00000    
         3     24213   F -0.240345       0.00000       0.00000    
         3     24217   F -0.240345       0.00000       0.00000    
         3     24221   F -0.240345       0.00000       0.00000    
         3     24225   F -0.240345       0.00000       0.00000    
         3     24229   F -0.240345       0.00000       0.00000    
         3     24233   F -0.240345       0.00000       0.00000    
         3     24237   F -0.240345       0.00000       0.00000    
         3     24241   F -0.240345       0.00000       0.00000    
         3     24245   F -0.240345       0.00000       0.00000    
         3     24249   F -0.240345       0.00000       0.00000    
         3     24253   F -0.240345       0.00000       0.00000    
         3     24257   F -0.240345       0.00000       0.00000    
         3     24261   F -0.240345       0.00000       0.00000    
         3     24265   F -0.240345       0.00000       0.00000    
         3     24269   F -0.240345       0.00000       0.00000    
         3     24273   F -0.240345       0.00000       0.00000    
         3     24277   F -0.240345       0.00000       0.00000    
         3     24281   F -0.240345       0.00000       0.00000    
         3     24285   F -0.240345       0.00000       0.00000    
         3     24289   F -0.240345       0.00000       0.00000    
         3     24293   F -0.240345       0.00000       0.00000    
         3     24297   F -0.240345       0.00000       0.00000    
         3     24301   F -0.240345       0.00000       0.00000    
         3     24305   F -0.240345       0.00000       0.00000    
         3     24309   F -0.240345       0.00000       0.00000    
         3     24313   F -0.240345       0.00000       0.00000    
         3     24317   F -0.240345       0.00000       0.00000    
         3     24321   F -0.240345       0.00000       0.00000    
         3     24325   F -0.240345       0.00000       0.00000    
         3     24329   F -0.240345       0.00000       0.00000    
         3     24333   F -0.240345       0.00000       0.00000    
         3     24337   F -0.240345       0.00000       0.00000    
         3     24341   F -0.240345       0.00000       0.00000    
         3     24345   F -0.240345       0.00000       0.00000    
         3     24349   F -0.240345       0.00000       0.00000    
         3     24353   F -0.240345       0.00000       0.00000    
         3     24357   F -0.240345       0.00000       0.00000    
         3     24361   F -0.240345       0.00000       0.00000    
         3     24365   F -0.240345       0.00000       0.00000    
         3     24369   F -0.240345       0.00000       0.00000    
         3     24373   F -0.240345       0.00000       0.00000    
         3     24377   F -0.240345       0.00000       0.00000    
         3     24381   F -0.240345       0.00000       0.00000    
         3     24385   F -0.240345       0.00000       0.00000    
         3     24389   F -0.240345       0.00000       0.00000    
         3     24393   F -0.240345       0.00000       0.00000    
         3     24397   F -0.240345       0.00000       0.00000    
         3     24401   F -0.240345       0.00000       0.00000    
         3     24405   F -0.240345       0.00000       0.00000    
         3     24409   F -0.240345       0.00000       0.00000    
         3     24413   F -0.240345       0.00000       0.00000    
         3     24417   F -0.240345       0.00000       0.00000    
         3     24421   F -0.240345       0.00000       0.00000    
         3     24425   F -0.240345       0.00000       0.00000    
         3     24429   F -0.240345       0.00000       0.00000    
         3     24433   F -0.240345       0.00000       0.00000    
         3     24437   F -0.240345       0.00000       0.00000    
         3     24441   F -0.240345       0.00000       0.00000    
         3     24445   F -0.240345       0.00000       0.00000    
         3     24449   F -0.240345       0.00000       0.00000    
         3     24453   F -0.240345       0.00000       0.00000    
         3     24457   F -0.240345       0.00000       0.00000    
         3     24461   F -0.240345       0.00000       0.00000    
         3     24465   F -0.240345       0.00000       0.00000    
         3     24469   F -0.240345       0.00000       0.00000    
         3     24473   F -0.240345       0.00000       0.00000    
         3     24477   F -0.240345       0.00000       0.00000    
         3     24481   F -0.240345       0.00000       0.00000    
         3     24485   F -0.240345       0.00000       0.00000    
         3     24489   F -0.240345       0.00000       0.00000    
         3     24493   F -0.240345       0.00000       0.00000    
         3     24497   F -0.240345       0.00000       0.00000    
         3     24501   F -0.240345       0.00000       0.00000    
         3     24505   F -0.240345       0.00000       0.00000    
         3     24509   F -0.240345       0.00000       0.00000    
         3     24513   F -0.240345       0.00000       0.00000    
         3     24517   F -0.240345       0.00000       0.00000    
         3     24521   F -0.240345       0.00000       0.00000    
         3     24525   F -0.240345       0.00000       0.00000    
         3     24529   F -0.240345       0.00000       0.00000    
         3     24533   F -0.240345       0.00000       0.00000    
         3     24537   F -0.240345       0.00000       0.00000    
         3     24541   F -0.240345       0.00000       0.00000    
         3     24545   F -0.240345       0.00000       0.00000    
         3     24549   F -0.240345       0.00000       0.00000    
         3     24553   F -0.240345       0.00000       0.00000    
         3     24557   F -0.240345       0.00000       0.00000    
         3     24561   F -0.240345       0.00000       0.00000    
         3     24565   F -0.240345       0.00000       0.00000    
         3     24569   F -0.240345       0.00000       0.00000    
         3     24573   F -0.240345       0.00000       0.00000    
         3     24577   F -0.240345       0.00000       0.00000    
         3     24581   F -0.240345       0.00000       0.00000    
         3     24585   F -0.240345       0.00000       0.00000    
         3     24589   F -0.240345       0.00000       0.00000    
         3     24593   F -0.240345       0.00000       0.00000    
         3     24597   F -0.240345       0.00000       0.00000    
         3     24601   F -0.240345       0.00000       0.00000    
         3     24605   F -0.240345       0.00000       0.00000    
         3     24609   F -0.240345       0.00000       0.00000    
         3     24613   F -0.240345       0.00000       0.00000    
         3     24617   F -0.240345       0.00000       0.00000    
         3     24621   F -0.240345       0.00000       0.00000    
         3     24625   F -0.240345       0.00000       0.00000    
         3     24629   F -0.240345       0.00000       0.00000    
         3     24633   F -0.240345       0.00000       0.00000    
         3     24637   F -0.240345       0.00000       0.00000    
         3     24641   F -0.240345       0.00000       0.00000    
         3     24645   F -0.240345       0.00000       0.00000    
         3     24649   F -0.240345       0.00000       0.00000    
         3     24653   F -0.240345       0.00000       0.00000    
         3     24657   F -0.240345       0.00000       0.00000    
         3     24661   F -0.240345       0.00000       0.00000    
         3     24665   F -0.240345       0.00000       0.00000    
         3     24669   F -0.240345       0.00000       0.00000    
         3     24673   F -0.240345       0.00000       0.00000    
         3     24677   F -0.240345       0.00000       0.00000    
         3     24681   F -0.240345       0.00000       0.00000    
         3     24685   F -0.240345       0.00000       0.00000    
         3     24689   F -0.240345       0.00000       0.00000    
         3     24693   F -0.240345       0.00000       0.00000    
         3     24697   F -0.240345       0.00000       0.00000    
         3     24701   F -0.240345       0.00000       0.00000    
         3     24705   F -0.240345       0.00000       0.00000    
         3     24709   F -0.240345       0.00000       0.00000    
         3     24713   F -0.240345       0.00000       0.00000    
         3     24717   F -0.240345       0.00000       0.00000    
         3     24721   F -0.240345       0.00000       0.00000    
         3     24725   F -0.240345       0.00000       0.00000    
         3     24729   F -0.240345       0.00000       0.00000    
         3     24733   F -0.240345       0.00000       0.00000    
         3     24737   F -0.240345       0.00000       0.00000    
         3     24741   F -0.240345       0.00000       0.00000    
         3     24745   F -0.240345       0.00000       0.00000    
         3     24749   F -0.240345       0.00000       0.00000    
         3     24753   F -0.240345       0.00000       0.00000    
         3     24757   F -0.240345       0.00000       0.00000    
         3     24761   F -0.240345       0.00000       0.00000    
         3     24765   F -0.240345       0.00000       0.00000    
        41        35        33        37        42        35        33        37
        59        53        51        55        60        53        51        55
        43        31        33        28        44        31        33        28
        61        49        51        45        62        49        51        45
       223       217       215       219       224       217       215       219
       241       235       233       237       242       235       233       237
       225       213       215       210       226       213       215       210
       243       231       233       227       244       231       233       227
       405       399       397       401       406       399       397       401
       423       417       415       419       424       417       415       419
       407       395       397       392       408       395       397       392
       425       413       415       409       426       413       415       409
       587       581       579       583       588       581       579       583
       605       599       597       601       606       599       597       601
       589       577       579       574       590       577       579       574
       607       595       597       591       608       595       597       591
       769       763       761       765       770       763       761       765
       787       781       779       783       788       781       779       783
       771       759       761       756       772       759       761       756
       789       777       779       773       790       777       779       773
       951       945       943       947       952       945       943       947
       969       963       961       965       970       963       961       965
       953       941       943       938       954       941       943       938
       971       959       961       955       972       959       961       955
      1133      1127      1125      1129      1134      1127      1125      1129
      1151      1145      1143      1147      1152      1145      1143      1147
      1135      1123      1125      1120      1136      1123      1125      1120
      1153      1141      1143      1137      1154      1141      1143      1137
      1315      1309      1307      1311      1316      1309      1307      1311
      1333      1327      1325      1329      1334      1327      1325      1329
      1317      1305      1307      1302      1318      1305      1307      1302
      1335      1323      1325      1319      1336      1323      1325      1319
      1497      1491      1489      1493      1498      1491      1489      1493
      1515      1509      1507      1511      1516      1509      1507      1511
      1499      1487      1489      1484      1500      1487      1489      1484
      1517      1505      1507      1501      1518      1505      1507      1501
      1679      1673      1671      1675      1680      1673      1671      1675
      1697      1691      1689      1693      1698      1691      1689      1693
      1681      1669      1671      1666      1682      1669      1671      1666
      1699      1687      1689      1683      1700      1687      1689      1683
      1861      1855      1853      1857      1862      1855      1853      1857
      1879      1873      1871      1875      1880      1873      1871      1875
      1863      1851      1853      1848      1864      1851      1853      1848
      1881      1869      1871      1865      1882      1869      1871      1865
      2043      2037      2035      2039      2044      2037      2035      2039
      2061      2055      2053      2057      2062      2055      2053      2057
      2045      2033      2035      2030      2046      2033      2035      2030
      2063      2051      2053      2047      2064      2051      2053      2047
      2225      2219      2217      2221      2226      2219      2217      2221
      2243      2237      2235      2239      2244      2237      2235      2239
      2227      2215      2217      2212      2228      2215      2217      2212
      2245      2233      2235      2229      2246      2233      2235      2229
      2407      2401      2399      2403      2408      2401      2399      2403
      2425      2419      2417      2421      2426      2419      2417      2421
      2409      2397      2399      2394      2410      2397      2399      2394
      2427      2415      2417      2411      2428      2415      2417      2411
      2589      2583      2581      2585      2590      2583      2581      2585
      2607      2601      2599      2603      2608      2601      2599      2603
      2591      2579      2581      2576      2592      2579      2581      2576
      2609      2597      2599      2593      2610      2597      2599      2593
      2771      2765      2763      2767      2772      2765      2763      2767
      2789      2783      2781      2785      2790      2783      2781      2785
      2773      2761      2763      2758      2774      2761      2763      2758
      2791      2779      2781      2775      2792      2779      2781      2775
      2953      2947      2945      2949      2954      2947      2945      2949
      2971      2965      2963      2967      2972      2965      2963      2967
      2955      2943      2945      2940      2956      2943      2945      2940
      2973      2961      2963      2957      2974      2961      2963      2957
      3135      3129      3127      3131      3136      3129      3127      3131
      3153      3147      3145      3149      3154      3147      3145      3149
      3137      3125      3127      3122      3138      3125      3127      3122
      3155      3143      3145      3139      3156      3143      3145      3139
      3317      3311      3309      3313      3318      3311      3309      3313
      3335      3329      3327      3331      3336      3329      3327      3331
      3319      3307      3309      3304      3320      3307      3309      3304
      3337      3325      3327      3321      3338      3325      3327      3321
      3499      3493      3491      3495      3500      3493      3491      3495
      3517      3511      3509      3513      3518      3511      3509      3513
      3501      3489      3491      3486      3502      3489      3491      3486
      3519      3507      3509      3503      3520      3507      3509      3503
      3681      3675      3673      3677      3682      3675      3673      3677
      3699      3693      3691      3695      3700      3693      3691      3695
      3683      3671      3673      3668      3684      3671      3673      3668
      3701      3689      3691      3685      3702      3689      3691      3685
      3863      3857      3855      3859      3864      3857      3855      3859
      3881      3875      3873      3877      3882      3875      3873      3877
      3865      3853      3855      3850      3866      3853      3855      3850
      3883      3871      3873      3867      3884      3871      3873      3867
      4045      4039      4037      4041      4046      4039      4037      4041
      4063      4057      4055      4059      4064      4057      4055      4059
      4047      4035      4037      4032      4048      4035      4037      4032
      4065      4053      4055      4049      4066      4053      4055      4049
      4227      4221      4219      4223      4228      4221      4219      4223
      4245      4239      4237      4241      4246      4239      4237      4241
      4229      4217      4219      4214      4230      4217      4219      4214
      4247      4235      4237      4231      4248      4235      4237      4231
      4409      4403      4401      4405      4410      4403      4401      4405
      4427      4421      4419      4423      4428      4421      4419      4423
      4411      4399      4401      4396      4412      4399      4401      4396
      4429      4417      4419      4413      4430      4417      4419      4413
      4591      4585      4583      4587      4592      4585      4583      4587
      4609      4603      4601      4605      4610      4603      4601      4605
      4593      4581      4583      4578      4594      4581      4583      4578
      4611      4599      4601      4595      4612      4599      4601      4595
      4773      4767      4765      4769      4774      4767      4765      4769
      4791      4785      4783      4787      4792      4785      4783      4787
      4775      4763      4765      4760      4776      4763      4765      4760
      4793      4781      4783      4777      4794      4781      4783      4777
      4955      4949      4947      4951      4956      4949      4947      4951
      4973      4967      4965      4969      4974      4967      4965      4969
      4957      4945      4947      4942      4958      4945      4947      4942
      4975      4963      4965      4959      4976      4963      4965      4959
      5137      5131      5129      5133      5138      5131      5129      5133
      5155      5149      5147      5151      5156      5149      5147      5151
      5139      5127      5129      5124      5140      5127      5129      5124
      5157      5145      5147      5141      5158      5145      5147      5141
      5319      5313      5311      5315      5320      5313      5311      5315
      5337      5331      5329      5333      5338      5331      5329      5333
      5321      5309      5311      5306      5322      5309      5311      5306
      5339      5327      5329      5323      5340      5327      5329      5323
      5501      5495      5493      5497      5502      5495      5493      5497
      5519      5513      5511      5515      5520      5513      5511      5515
      5503      5491      5493      5488      5504      5491      5493      5488
      5521      5509      5511      5505      5522      5509      5511      5505
      5683      5677      5675      5679      5684      5677      5675      5679
      5701      5695      5693      5697      5702      5695      5693      5697
      5685      5673      5675      5670      5686      5673      5675      5670
      5703      5691      5693      5687      5704      5691      5693      5687
      5865      5859      5857      5861      5866      5859      5857      5861
      5883      5877      5875      5879      5884      5877      5875      5879
      5867      5855      5857      5852      5868      5855      5857      5852
      5885      5873      5875      5869      5886      5873      5875      5869
      6047      6041      6039      6043      6048      6041      6039      6043
      6065      6059      6057      6061      6066      6059      6057      6061
      6049      6037      6039      6034      6050      6037      6039      6034
      6067      6055      6057      6051      6068      6055      6057      6051
      6229      6223      6221      6225      6230      6223      6221      6225
      6247      6241      6239      6243      6248      6241      6239      6243
      6231      6219      6221      6216      6232      6219      6221      6216
      6249      6237      6239      6233      6250      6237      6239      6233
      6411      6405      6403      6407      6412      6405      6403      6407
      6429      6423      6421      6425      6430      6423      6421      6425
      6413      6401      6403      6398      6414      6401      6403      6398
      6431      6419      6421      6415      6432      6419      6421      6415
      6593      6587      6585      6589      6594      6587      6585      6589
      6611      6605      6603      6607      6612      6605      6603      6607
      6595      6583      6585      6580      6596      6583      6585      6580
      6613      6601      6603      6597      6614      6601      6603      6597
      6775      6769      6767      6771      6776      6769      6767      6771
      6793      6787      6785      6789      6794      6787      6785      6789
      6777      6765      6767      6762      6778      6765      6767      6762
      6795      6783      6785      6779      6796      6783      6785      6779
      6957      6951      6949      6953      6958      6951      6949      6953
      6975      6969      6967      6971      6976      6969      6967      6971
      6959      6947      6949      6944      6960      6947      6949      6944
      6977      6965      6967      6961      6978      6965      6967      6961
      7139      7133      7131      7135      7140      7133      7131      7135
      7157      7151      7149      7153      7158      7151      7149      7153
      7141      7129      7131      7126      7142      7129      7131      7126
      7159      7147      7149      7143      7160      7147      7149      7143
      7321      7315      7313      7317      7322      7315      7313      7317
      7339      7333      7331      7335      7340      7333      7331      7335
      7323      7311      7313      7308      7324      7311      7313      7308
      7341      7329      7331      7325      7342      7329      7331      7325
      7503      7497      7495      7499      7504      7497      7495      7499
      7521      7515      7513      7517      7522      7515      7513      7517
      7505      7493      7495      7490      7506      7493      7495      7490
      7523      7511      7513      7507      7524      7511      7513      7507
      7685      7679      7677      7681      7686      7679      7677      7681
      7703      7697      7695      7699      7704      7697      7695      7699
      7687      7675      7677      7672      7688      7675      7677      7672
      7705      7693      7695      7689      7706      7693      7695      7689
      7867      7861      7859      7863      7868      7861      7859      7863
      7885      7879      7877      7881      7886      7879      7877      7881
      7869      7857      7859      7854      7870      7857      7859      7854
      7887      7875      7877      7871      7888      7875      7877      7871
      8049      8043      8041      8045      8050      8043      8041      8045
      8067      8061      8059      8063      8068      8061      8059      8063
      8051      8039      8041      8036      8052      8039      8041      8036
      8069      8057      8059      8053      8070      8057      8059      8053
      8231      8225      8223      8227      8232      8225      8223      8227
      8249      8243      8241      8245      8250      8243      8241      8245
      8233      8221      8223      8218      8234      8221      8223      8218
      8251      8239      8241      8235      8252      8239      8241      8235
      8413      8407      8405      8409      8414      8407      8405      8409
      8431      8425      8423      8427      8432      8425      8423      8427
      8415      8403      8405      8400      8416      8403      8405      8400
      8433      8421      8423      8417      8434      8421      8423      8417
      8595      8589      8587      8591      8596      8589      8587      8591
      8613      8607      8605      8609      8614      8607      8605      8609
      8597      8585      8587      8582      8598      8585      8587      8582
      8615      8603      8605      8599      8616      8603      8605      8599
      8777      8771      8769      8773      8778      8771      8769      8773
      8795      8789      8787      8791      8796      8789      8787      8791
      8779      8767      8769      8764      8780      8767      8769      8764
      8797      8785      8787      8781      8798      8785      8787      8781
      8959      8953      8951      8955      8960      8953      8951      8955
      8977      8971      8969      8973      8978      8971      8969      8973
      8961      8949      8951      8946      8962      8949      8951      8946
      8979      8967      8969      8963      8980      8967      8969      8963
      9141      9135      9133      9137      9142      9135      9133      9137
      9159      9153      9151      9155      9160      9153      9151      9155
      9143      9131      9133      9128      9144      9131      9133      9128
      9161      9149      9151      9145      9162      9149      9151      9145
      9323      9317      9315      9319      9324      9317      9315      9319
      9341      9335      9333      9337      9342      9335      9333      9337
      9325      9313      9315      9310      9326      9313      9315      9310
      9343      9331      9333      9327      9344      9331      9333      9327
      9505      9499      9497      9501      9506      9499      9497      9501
      9523      9517      9515      9519      9524      9517      9515      9519
      9507      9495      9497      9492      9508      9495      9497      9492
      9525      9513      9515      9509      9526      9513      9515      9509
      9687      9681      9679      9683      9688      9681      9679      9683
      9705      9699      9697      9701      9706      9699      9697      9701
      9689      9677      9679      9674      9690      9677      9679      9674
      9707      9695      9697      9691      9708      9695      9697      9691
      9869      9863      9861      9865      9870      9863      9861      9865
      9887      9881      9879      9883      9888      9881      9879      9883
      9871      9859      9861      9856      9872      9859      9861      9856
      9889      9877      9879      9873      9890      9877      9879      9873
     10051     10045     10043     10047     10052     10045     10043     10047
     10069     10063     10061     10065     10070     10063     10061     10065
     10053     10041     10043     10038     10054     10041     10043     10038
     10071     10059     10061     10055     10072     10059     10061     10055
     10233     10227     10225     10229     10234     10227     10225     10229
     10251     10245     10243     10247     10252     10245     10243     10247
     10235     10223     10225     10220     10236     10223     10225     10220
     10253     10241     10243     10237     10254     10241     10243     10237
     10415     10409     10407     10411     10416     10409     10407     10411
     10433     10427     10425     10429     10434     10427     10425     10429
     10417     10405     10407     10402     10418     10405     10407     10402
     10435     10423     10425     10419     10436     10423     10425     10419
     10597     10591     10589     10593     10598     10591     10589     10593
     10615     10609     10607     10611     10616     10609     10607     10611
     10599     10587     10589     10584     10600     10587     10589     10584
     10617     10605     10607     10601     10618     10605     10607     10601
     10779     10773     10771     10775     10780     10773     10771     10775
     10797     10791     10789     10793     10798     10791     10789     10793
     10781     10769     10771     10766     10782     10769     10771     10766
     10799     10787     10789     10783     10800     10787     10789     10783
     10961     10955     10953     10957     10962     10955     10953     10957
     10979     10973     10971     10975     10980     10973     10971     10975
     10963     10951     10953     10948     10964     10951     10953     10948
     10981     10969     10971     10965     10982     10969     10971     10965
     11143     11137     11135     11139     11144     11137     11135     11139
     11161     11155     11153     11157     11162     11155     11153     11157
     11145     11133     11135     11130     11146     11133     11135     11130
     11163     11151     11153     11147     11164     11151     11153     11147
     11325     11319     11317     11321     11326     11319     11317     11321
     11343     11337     11335     11339     11344     11337     11335     11339
     11327     11315     11317     11312     11328     11315     11317     11312
     11345     11333     11335     11329     11346     11333     11335     11329
     11507     11501     11499     11503     11508     11501     11499     11503
     11525     11519     11517     11521     11526     11519     11517     11521
     11509     11497     11499     11494     11510     11497     11499     11494
     11527     11515     11517     11511     11528     11515     11517     11511
     11689     11683     11681     11685     11690     11683     11681     11685
     11707     11701     11699     11703     11708     11701     11699     11703
     11691     11679     11681     11676     11692     11679     11681     11676
     11709     11697     11699     11693     11710     11697     11699     11693
     11871     11865     11863     11867     11872     11865     11863     11867
     11889     11883     11881     11885     11890     11883     11881     11885
     11873     11861     11863     11858     11874     11861     11863     11858
     11891     11879     11881     11875     11892     11879     11881     11875
     12053     12047     12045     12049     12054     12047     12045     12049
     12071     12065     12063     12067     12072     12065     12063     12067
     12055     12043     12045     12040     12056     12043     12045     12040
     12073     12061     12063     12057     12074     12061     12063     12057
     12235     12229     12227     12231     12236     12229     12227     12231
     12253     12247     12245     12249     12254     12247     12245     12249
     12237     12225     12227     12222     12238     12225     12227     12222
     12255     12243     12245     12239     12256     12243     12245     12239
     12417     12411     12409     12413     12418     12411     12409     12413
     12435     12429     12427     12431     12436     12429     12427     12431
     12419     12407     12409     12404     12420     12407     12409     12404
     12437     12425     12427     12421     12438     12425     12427     12421
     12599     12593     12591     12595     12600     12593     12591     12595
     12617     12611     12609     12613     12618     12611     12609     12613
     12601     12589     12591     12586     12602     12589     12591     12586
     12619     12607     12609     12603     12620     12607     12609     12603
     12781     12775     12773     12777     12782     12775     12773     12777
     12799     12793     12791     12795     12800     12793     12791     12795
     12783     12771     12773     12768     12784     12771     12773     12768
     12801     12789     12791     12785     12802     12789     12791     12785
     12963     12957     12955     12959     12964     12957     12955     12959
     12981     12975     12973     12977     12982     12975     12973     12977
     12965     12953     12955     12950     12966     12953     12955     12950
     12983     12971     12973     12967     12984     12971     12973     12967
     13145     13139     13137     13141     13146     13139     13137     13141
     13163     13157     13155     13159     13164     13157     13155     13159
     13147     13135     13137     13132     13148     13135     13137     13132
     13165     13153     13155     13149     13166     13153     13155     13149
     13327     13321     13319     13323     13328     13321     13319     13323
     13345     13339     13337     13341     13346     13339     13337     13341
     13329     13317     13319     13314     13330     13317     13319     13314
     13347     13335     13337     13331     13348     13335     13337     13331
     13509     13503     13501     13505     13510     13503     13501     13505
     13527     13521     13519     13523     13528     13521     13519     13523
     13511     13499     13501     13496     13512     13499     13501     13496
     13529     13517     13519     13513     13530     13517     13519     13513
     13691     13685     13683     13687     13692     13685     13683     13687
     13709     13703     13701     13705     13710     13703     13701     13705
     13693     13681     13683     13678     13694     13681     13683     13678
     13711     13699     13701     13695     13712     13699     13701     13695
     13873     13867     13865     13869     13874     13867     13865     13869
     13891     13885     13883     13887     13892     13885     13883     13887
     13875     13863     13865     13860     13876     13863     13865     13860
     13893     13881     13883     13877     13894     13881     13883     13877
     14055     14049     14047     14051     14056     14049     14047     14051
     14073     14067     14065     14069     14074     14067     14065     14069
     14057     14045     14047     14042     14058     14045     14047     14042
     14075     14063     14065     14059     14076     14063     14065     14059
     14237     14231     14229     14233     14238     14231     14229     14233
     14255     14249     14247     14251     14256     14249     14247     14251
     14239     14227     14229     14224     14240     14227     14229     14224
     14257     14245     14247     14241     14258     14245     14247     14241
     14419     14413     14411     14415     14420     14413     14411     14415
     14437     14431     14429     14433     14438     14431     14429     14433
     14421     14409     14411     14406     14422     14409     14411     14406
     14439     14427     14429     14423     14440     14427     14429     14423
     14601     14595     14593     14597     14602     14595     14593     14597
     14619     14613     14611     14615     14620     14613     14611     14615
     14603     14591     14593     14588     14604     14591     14593     14588
     14621     14609     14611     14605     14622     14609     14611     14605
     14783     14777     14775     14779     14784     14777     14775     14779
     14801     14795     14793     14797     14802     14795     14793     14797
     14785     14773     14775     14770     14786     14773     14775     14770
     14803     14791     14793     14787     14804     14791     14793     14787
     14965     14959     14957     14961     14966     14959     14957     14961
     14983     14977     14975     14979     14984     14977     14975     14979
     14967     14955     14957     14952     14968     14955     14957     14952
     14985     14973     14975     14969     14986     14973     14975     14969
     15147     15141     15139     15143     15148     15141     15139     15143
     15165     15159     15157     15161     15166     15159     15157     15161
     15149     15137     15139     15134     15150     15137     15139     15134
     15167     15155     15157     15151     15168     15155     15157     15151
     15329     15323     15321     15325     15330     15323     15321     15325
     15347     15341     15339     15343     15348     15341     15339     15343
     15331     15319     15321     15316     15332     15319     15321     15316
     15349     15337     15339     15333     15350     15337     15339     15333
     15511     15505     15503     15507     15512     15505     15503     15507
     15529     15523     15521     15525     15530     15523     15521     15525
     15513     15501     15503     15498     15514     15501     15503     15498
     15531     15519     15521     15515     15532     15519     15521     15515
     15693     15687     15685     15689     15694     15687     15685     15689
     15711     15705     15703     15707     15712     15705     15703     15707
     15695     15683     15685     15680     15696     15683     15685     15680
     15713     15701     15703     15697     15714     15701     15703     15697
     15875     15869     15867     15871     15876     15869     15867     15871
     15893     15887     15885     15889     15894     15887     15885     15889
     15877     15865     15867     15862     15878     15865     15867     15862
     15895     15883     15885     15879     15896     15883     15885     15879
     16057     16051     16049     16053     16058     16051     16049     16053
     16075     16069     16067     16071     16076     16069     16067     16071
     16059     16047     16049     16044     16060     16047     16049     16044
     16077     16065     16067     16061     16078     16065     16067     16061
     16239     16233     16231     16235     16240     16233     16231     16235
     16257     16251     16249     16253     16258     16251     16249     16253
     16241     16229     16231     16226     16242     16229     16231     16226
     16259     16247     16249     16243     16260     16247     16249     16243
     16421     16415     16413     16417     16422     16415     16413     16417
     16439     16433     16431     16435     16440     16433     16431     16435
     16423     16411     16413     16408     16424     16411     16413     16408
     16441     16429     16431     16425     16442     16429     16431     16425
     16603     16597     16595     16599     16604     16597     16595     16599
     16621     16615     16613     16617     16622     16615     16613     16617
     16605     16593     16595     16590     16606     16593     16595     16590
     16623     16611     16613     16607     16624     16611     16613     16607
     16785     16779     16777     16781     16786     16779     16777     16781
     16803     16797     16795     16799     16804     16797     16795     16799
     16787     16775     16777     16772     16788     16775     16777     16772
     16805     16793     16795     16789     16806     16793     16795     16789
     16967     16961     16959     16963     16968     16961     16959     16963
     16985     16979     16977     16981     16986     16979     16977     16981
     16969     16957     16959     16954     16970     16957     16959     16954
     16987     16975     16977     16971     16988     16975     16977     16971
     17149     17143     17141     17145     17150     17143     17141     17145
     17167     17161     17159     17163     17168     17161     17159     17163
     17151     17139     17141     17136     17152     17139     17141     17136
     17169     17157     17159     17153     17170     17157     17159     17153
     17331     17325     17323     17327     17332     17325     17323     17327
     17349     17343     17341     17345     17350     17343     17341     17345
     17333     17321     17323     17318     17334     17321     17323     17318
     17351     17339     17341     17335     17352     17339     17341     17335
     17513     17507     17505     17509     17514     17507     17505     17509
     17531     17525     17523     17527     17532     17525     17523     17527
     17515     17503     17505     17500     17516     17503     17505     17500
     17533     17521     17523     17517     17534     17521     17523     17517
     17695     17689     17687     17691     17696     17689     17687     17691
     17713     17707     17705     17709     17714     17707     17705     17709
     17697     17685     17687     17682     17698     17685     17687     17682
     17715     17703     17705     17699     17716     17703     17705     17699
     17877     17871     17869     17873     17878     17871     17869     17873
     17895     17889     17887     17891     17896     17889     17887     17891
     17879     17867     17869     17864     17880     17867     17869     17864
     17897     17885     17887     17881     17898     17885     17887     17881
     18059     18053     18051     18055     18060     18053     18051     18055
     18077     18071     18069     18073     18078     18071     18069     18073
     18061     18049     18051     18046     18062     18049     18051     18046
     18079     18067     18069     18063     18080     18067     18069     18063
     18241     18235     18233     18237     18242     18235     18233     18237
     18259     18253     18251     18255     18260     18253     18251     18255
     18243     18231     18233     18228     18244     18231     18233     18228
     18261     18249     18251     18245     18262     18249     18251     18245
     18423     18417     18415     18419     18424     18417     18415     18419
     18441     18435     18433     18437     18442     18435     18433     18437
     18425     18413     18415     18410     18426     18413     18415     18410
     18443     18431     18433     18427     18444     18431     18433     18427
     18605     18599     18597     18601     18606     18599     18597     18601
     18623     18617     18615     18619     18624     18617     18615     18619
     18607     18595     18597     18592     18608     18595     18597     18592
     18625     18613     18615     18609     18626     18613     18615     18609
     18787     18781     18779     18783     18788     18781     18779     18783
     18805     18799     18797     18801     18806     18799     18797     18801
     18789     18777     18779     18774     18790     18777     18779     18774
     18807     18795     18797     18791     18808     18795     18797     18791
     18969     18963     18961     18965     18970     18963     18961     18965
     18987     18981     18979     18983     18988     18981     18979     18983
     18971     18959     18961     18956     18972     18959     18961     18956
     18989     18977     18979     18973     18990     18977     18979     18973
     19151     19145     19143     19147     19152     19145     19143     19147
     19169     19163     19161     19165     19170     19163     19161     19165
     19153     19141     19143     19138     19154     19141     19143     19138
     19171     19159     19161     19155     19172     19159     19161     19155
     19333     19327     19325     19329     19334     19327     19325     19329
     19351     19345     19343     19347     19352     19345     19343     19347
     19335     19323     19325     19320     19336     19323     19325     19320
     19353     19341     19343     19337     19354     19341     19343     19337
     19515     19509     19507     19511     19516     19509     19507     19511
     19533     19527     19525     19529     19534     19527     19525     19529
     19517     19505     19507     19502     19518     19505     19507     19502
     19535     19523     19525     19519     19536     19523     19525     19519
     19697     19691     19689     19693     19698     19691     19689     19693
     19715     19709     19707     19711     19716     19709     19707     19711
     19699     19687     19689     19684     19700     19687     19689     19684
     19717     19705     19707     19701     19718     19705     19707     19701
     19879     19873     19871     19875     19880     19873     19871     19875
     19897     19891     19889     19893     19898     19891     19889     19893
     19881     19869     19871     19866     19882     19869     19871     19866
     19899     19887     19889     19883     19900     19887     19889     19883
     20061     20055     20053     20057     20062     20055     20053     20057
     20079     20073     20071     20075     20080     20073     20071     20075
     20063     20051     20053     20048     20064     20051     20053     20048
     20081     20069     20071     20065     20082     20069     20071     20065
     20243     20237     20235     20239     20244     20237     20235     20239
     20261     20255     20253     20257     20262     20255     20253     20257
     20245     20233     20235     20230     20246     20233     20235     20230
     20263     20251     20253     20247     20264     20251     20253     20247
     20425     20419     20417     20421     20426     20419     20417     20421
     20443     20437     20435     20439     20444     20437     20435     20439
     20427     20415     20417     20412     20428     20415     20417     20412
     20445     20433     20435     20429     20446     20433     20435     20429
     20607     20601     20599     20603     20608     20601     20599     20603
     20625     20619     20617     20621     20626     20619     20617     20621
     20609     20597     20599     20594     20610     20597     20599     20594
     20627     20615     20617     20611     20628     20615     20617     20611
     20789     20783     20781     20785     20790     20783     20781     20785
     20807     20801     20799     20803     20808     20801     20799     20803
     20791     20779     20781     20776     20792     20779     20781     20776
     20809     20797     20799     20793     20810     20797     20799     20793
     20971     20965     20963     20967     20972     20965     20963     20967
     20989     20983     20981     20985     20990     20983     20981     20985
     20973     20961     20963     20958     20974     20961     20963     20958
     20991     20979     20981     20975     20992     20979     20981     20975
     21153     21147     21145     21149     21154     21147     21145     21149
     21171     21165     21163     21167     21172     21165     21163     21167
     21155     21143     21145     21140     21156     21143     21145     21140
     21173     21161     21163     21157     21174     21161     21163     21157
     21335     21329     21327     21331     21336     21329     21327     21331
     21353     21347     21345     21349     21354     21347     21345     21349
     21337     21325     21327     21322     21338     21325     21327     21322
     21355     21343     21345     21339     21356     21343     21345     21339
     21517     21511     21509     21513     21518     21511     21509     21513
     21535     21529     21527     21531     21536     21529     21527     21531
     21519     21507     21509     21504     21520     21507     21509     21504
     21537     21525     21527     21521     21538     21525     21527     21521
     21699     21693     21691     21695     21700     21693     21691     21695
     21717     21711     21709     21713     21718     21711     21709     21713
     21701     21689     21691     21686     21702     21689     21691     21686
     21719     21707     21709     21703     21720     21707     21709     21703
     21881     21875     21873     21877     21882     21875     21873     21877
     21899     21893     21891     21895     21900     21893     21891     21895
     21883     21871     21873     21868     21884     21871     21873     21868
     21901     21889     21891     21885     21902     21889     21891     21885
     22063     22057     22055     22059     22064     22057     22055     22059
     22081     22075     22073     22077     22082     22075     22073     22077
     22065     22053     22055     22050     22066     22053     22055     22050
     22083     22071     22073     22067     22084     22071     22073     22067
     22245     22239     22237     22241     22246     22239     22237     22241
     22263     22257     22255     22259     22264     22257     22255     22259
     22247     22235     22237     22232     22248     22235     22237     22232
     22265     22253     22255     22249     22266     22253     22255     22249
     22427     22421     22419     22423     22428     22421     22419     22423
     22445     22439     22437     22441     22446     22439     22437     22441
     22429     22417     22419     22414     22430     22417     22419     22414
     22447     22435     22437     22431     22448     22435     22437     22431
     22609     22603     22601     22605     22610     22603     22601     22605
     22627     22621     22619     22623     22628     22621     22619     22623
     22611     22599     22601     22596     22612     22599     22601     22596
     22629     22617     22619     22613     22630     22617     22619     22613
     22791     22785     22783     22787     22792     22785     22783     22787
     22809     22803     22801     22805     22810     22803     22801     22805
     22793     22781     22783     22778     22794     22781     22783     22778
     22811     22799     22801     22795     22812     22799     22801     22795
     22973     22967     22965     22969     22974     22967     22965     22969
     22991     22985     22983     22987     22992     22985     22983     22987
     22975     22963     22965     22960     22976     22963     22965     22960
     22993     22981     22983     22977     22994     22981     22983     22977
     23155     23149     23147     23151     23156     23149     23147     23151
     23173     23167     23165     23169     23174     23167     23165     23169
     23157     23145     23147     23142     23158     23145     23147     23142
     23175     23163     23165     23159     23176     23163     23165     23159
     23337     23331     23329     23333     23338     23331     23329     23333
     23355     23349     23347     23351     23356     23349     23347     23351
     23339     23327     23329     23324     23340     23327     23329     23324
     23357     23345     23347     23341     23358     23345     23347     23341
     23519     23513     23511     23515     23520     23513     23511     23515
     23537     23531     23529     23533     23538     23531     23529     23533
     23521     23509     23511     23506     23522     23509     23511     23506
     23539     23527     23529     23523     23540     23527     23529     23523
     23701     23695     23693     23697     23702     23695     23693     23697
     23719     23713     23711     23715     23720     23713     23711     23715
     23703     23691     23693     23688     23704     23691     23693     23688
     23721     23709     23711     23705     23722     23709     23711     23705
     23883     23877     23875     23879     23884     23877     23875     23879
     23901     23895     23893     23897     23902     23895     23893     23897
     23885     23873     23875     23870     23886     23873     23875     23870
     23903     23891     23893     23887     23904     23891     23893     23887
     24065     24059     24057     24061     24066     24059     24057     24061
     24083     24077     24075     24079     24084     24077     24075     24079
     24067     24055     24057     24052     24068     24055     24057     24052
     24085     24073     24075     24069     24086     24073     24075     24069
     24247     24241     24239     24243     24248     24241     24239     24243
     24265     24259     24257     24261     24266     24259     24257     24261
     24249     24237     24239     24234     24250     24237     24239     24234
     24267     24255     24257     24251     24268     24255     24257     24251
     24429     24423     24421     24425     24430     24423     24421     24425
     24447     24441     24439     24443     24448     24441     24439     24443
     24431     24419     24421     24416     24432     24419     24421     24416
     24449     24437     24439     24433     24450     24437     24439     24433
     24611     24605     24603     24607     24612     24605     24603     24607
     24629     24623     24621     24625     24630     24623     24621     24625
     24613     24601     24603     24598     24614     24601     24603     24598
     24631     24619     24621     24615     24632     24619     24621     24615
     24793     24787     24785     24789     24794     24787     24785     24789
     24811     24805     24803     24807     24812     24805     24803     24807
     24795     24783     24785     24780     24796     24783     24785     24780
     24813     24801     24803     24797     24814     24801     24803     24797
     24975     24969     24967     24971     24976     24969     24967     24971
     24993     24987     24985     24989     24994     24987     24985     24989
     24977     24965     24967     24962     24978     24965     24967     24962
     24995     24983     24985     24979     24996     24983     24985     24979
     25157     25151     25149     25153     25158     25151     25149     25153
     25175     25169     25167     25171     25176     25169     25167     25171
     25159     25147     25149     25144     25160     25147     25149     25144
     25177     25165     25167     25161     25178     25165     25167     25161
     25339     25333     25331     25335     25340     25333     25331     25335
     25357     25351     25349     25353     25358     25351     25349     25353
     25341     25329     25331     25326     25342     25329     25331     25326
     25359     25347     25349     25343     25360     25347     25349     25343
     25521     25515     25513     25517     25522     25515     25513     25517
     25539     25533     25531     25535     25540     25533     25531     25535
     25523     25511     25513     25508     25524     25511     25513     25508
     25541     25529     25531     25525     25542     25529     25531     25525
     25703     25697     25695     25699     25704     25697     25695     25699
     25721     25715     25713     25717     25722     25715     25713     25717
     25705     25693     25695     25690     25706     25693     25695     25690
     25723     25711     25713     25707     25724     25711     25713     25707
     25885     25879     25877     25881     25886     25879     25877     25881
     25903     25897     25895     25899     25904     25897     25895     25899
     25887     25875     25877     25872     25888     25875     25877     25872
     25905     25893     25895     25889     25906     25893     25895     25889
     26067     26061     26059     26063     26068     26061     26059     26063
     26085     26079     26077     26081     26086     26079     26077     26081
     26069     26057     26059     26054     26070     26057     26059     26054
     26087     26075     26077     26071     26088     26075     26077     26071
     26211     26209     26212     26213     26216     26214     26217     26218
     26221     26219     26222     26223     26226     26224     26227     26228
     26231     26229     26232     26233     26236     26234     26237     26238
     26241     26239     26242     26243     26246     26244     26247     26248
     26251     26249     26252     26253     26256     26254     26257     26258
     26261     26259     26262     26263     26266     26264     26267     26268
     26271     26269     26272     26273     26276     26274     26277     26278
     26281     26279     26282     26283     26286     26284     26287     26288
     26291     26289     26292     26293     26296     26294     26297     26298
     26301     26299     26302     26303     26306     26304     26307     26308
     26311     26309     26312     26313     26316     26314     26317     26318
     26321     26319     26322     26323     26326     26324     26327     26328
     26331     26329     26332     26333     26336     26334     26337     26338
     26341     26339     26342     26343     26346     26344     26347     26348
     26351     26349     26352     26353     26356     26354     26357     26358
     26361     26359     26362     26363     26366     26364     26367     26368
     26371     26369     26372     26373     26376     26374     26377     26378
     26381     26379     26382     26383     26386     26384     26387     26388
     26391     26389     26392     26393     26396     26394     26397     26398
     26401     26399     26402     26403     26406     26404     26407     26408
     26411     26409     26412     26413     26416     26414     26417     26418
     26421     26419     26422     26423     26426     26424     26427     26428
     26431     26429     26432     26433     26436     26434     26437     26438
     26441     26439     26442     26443     26446     26444     26447     26448
     26451     26449     26452     26453     26456     26454     26457     26458
     26461     26459     26462     26463     26466     26464     26467     26468
     26471     26469     26472     26473     26476     26474     26477     26478
     26481     26479     26482     26483     26486     26484     26487     26488
     26491     26489     26492     26493     26496     26494     26497     26498
     26501     26499     26502     26503     26506     26504     26507     26508
     26511     26509     26512     26513     26516     26514     26517     26518
     26521     26519     26522     26523     26526     26524     26527     26528
     26531     26529     26532     26533     26536     26534     26537     26538
     26541     26539     26542     26543     26546     26544     26547     26548
     26551     26549     26552     26553     26556     26554     26557     26558
     26561     26559     26562     26563     26566     26564     26567     26568
     26571     26569     26572     26573     26576     26574     26577     26578
     26581     26579     26582     26583     26586     26584     26587     26588
     26591     26589     26592     26593     26596     26594     26597     26598
     26601     26599     26602     26603     26606     26604     26607     26608
     26611     26609     26612     26613     26616     26614     26617     26618
     26621     26619     26622     26623     26626     26624     26627     26628
     26631     26629     26632     26633     26636     26634     26637     26638
     26641     26639     26642     26643     26646     26644     26647     26648
     26651     26649     26652     26653     26656     26654     26657     26658
     26661     26659     26662     26663     26666     26664     26667     26668
     26671     26669     26672     26673     26676     26674     26677     26678
     26681     26679     26682     26683     26686     26684     26687     26688
     26691     26689     26692     26693     26696     26694     26697     26698
     26701     26699     26702     26703     26706     26704     26707     26708
     26711     26709     26712     26713     26716     26714     26717     26718
     26721     26719     26722     26723     26726     26724     26727     26728
     26731     26729     26732     26733     26736     26734     26737     26738
     26741     26739     26742     26743     26746     26744     26747     26748
     26751     26749     26752     26753     26756     26754     26757     26758
     26761     26759     26762     26763     26766     26764     26767     26768
     26771     26769     26772     26773     26776     26774     26777     26778
     26781     26779     26782     26783     26786     26784     26787     26788
     26791     26789     26792     26793     26796     26794     26797     26798
     26801     26799     26802     26803     26806     26804     26807     26808
     26811     26809     26812     26813     26816     26814     26817     26818
     26821     26819     26822     26823     26826     26824     26827     26828
     26831     26829     26832     26833     26836     26834     26837     26838
     26841     26839     26842     26843     26846     26844     26847     26848
     26851     26849     26852     26853     26856     26854     26857     26858
     26861     26859     26862     26863     26866     26864     26867     26868
     26871     26869     26872     26873     26876     26874     26877     26878
     26881     26879     26882     26883     26886     26884     26887     26888
     26891     26889     26892     26893     26896     26894     26897     26898
     26901     26899     26902     26903     26906     26904     26907     26908
     26911     26909     26912     26913     26916     26914     26917     26918
     26921     26919     26922     26923     26926     26924     26927     26928
     26931     26929     26932     26933     26936     26934     26937     26938
     26941     26939     26942     26943     26946     26944     26947     26948
     26951     26949     26952     26953     26956     26954     26957     26958
     26961     26959     26962     26963     26966     26964     26967     26968
     26971     26969     26972     26973     26976     26974     26977     26978
     26981     26979     26982     26983     26986     26984     26987     26988
     26991     26989     26992     26993     26996     26994     26997     26998
     27001     26999     27002     27003     27006     27004     27007     27008
     27011     27009     27012     27013     27016     27014     27017     27018
     27021     27019     27022     27023     27026     27024     27027     27028
     27031     27029     27032     27033     27036     27034     27037     27038
     27041     27039     27042     27043     27046     27044     27047     27048
     27051     27049     27052     27053     27056     27054     27057     27058
     27061     27059     27062     27063     27066     27064     27067     27068
     27071     27069     27072     27073     27076     27074     27077     27078
     27081     27079     27082     27083     27086     27084     27087     27088
     27091     27089     27092     27093     27096     27094     27097     27098
     27101     27099     27102     27103     27106     27104     27107     27108
     27111     27109     27112     27113     27116     27114     27117     27118
     27121     27119     27122     27123     27126     27124     27127     27128
     27131     27129     27132     27133     27136     27134     27137     27138
     27141     27139     27142     27143     27146     27144     27147     27148
     27151     27149     27152     27153     27156     27154     27157     27158
     27161     27159     27162     27163     27166     27164     27167     27168
     27171     27169     27172     27173     27176     27174     27177     27178
     27181     27179     27182     27183     27186     27184     27187     27188
     27191     27189     27192     27193     27196     27194     27197     27198
     27201     27199     27202     27203     27206     27204     27207     27208
     27211     27209     27212     27213     27216     27214     27217     27218
     27221     27219     27222     27223     27226     27224     27227     27228
     27231     27229     27232     27233     27236     27234     27237     27238
     27241     27239     27242     27243     27246     27244     27247     27248
     27251     27249     27252     27253     27256     27254     27257     27258
     27261     27259     27262     27263     27266     27264     27267     27268
     27271     27269     27272     27273     27276     27274     27277     27278
     27281     27279     27282     27283     27286     27284     27287     27288
     27291     27289     27292     27293     27296     27294     27297     27298
     27301     27299     27302     27303     27306     27304     27307     27308
     27311     27309     27312     27313     27316     27314     27317     27318
     27321     27319     27322     27323     27326     27324     27327     27328
     27331     27329     27332     27333     27336     27334     27337     27338
     27341     27339     27342     27343     27346     27344     27347     27348
     27351     27349     27352     27353     27356     27354     27357     27358
     27361     27359     27362     27363     27366     27364     27367     27368
     27371     27369     27372     27373     27376     27374     27377     27378
     27381     27379     27382     27383     27386     27384     27387     27388
     27391     27389     27392     27393     27396     27394     27397     27398
     27401     27399     27402     27403     27406     27404     27407     27408
     27411     27409     27412     27413     27416     27414     27417     27418
     27421     27419     27422     27423     27426     27424     27427     27428
     27431     27429     27432     27433     27436     27434     27437     27438
     27441     27439     27442     27443     27446     27444     27447     27448
     27451     27449     27452     27453     27456     27454     27457     27458
     27461     27459     27462     27463     27466     27464     27467     27468
     27471     27469     27472     27473     27476     27474     27477     27478
     27481     27479     27482     27483     27486     27484     27487     27488
     27491     27489     27492     27493     27496     27494     27497     27498
     27501     27499     27502     27503     27506     27504     27507     27508
     27511     27509     27512     27513     27516     27514     27517     27518
     27521     27519     27522     27523     27526     27524     27527     27528
     27531     27529     27532     27533     27536     27534     27537     27538
     27541     27539     27542     27543     27546     27544     27547     27548
     27551     27549     27552     27553     27556     27554     27557     27558
     27561     27559     27562     27563     27566     27564     27567     27568
     27571     27569     27572     27573     27576     27574     27577     27578
     27581     27579     27582     27583     27586     27584     27587     27588
     27591     27589     27592     27593     27596     27594     27597     27598
     27601     27599     27602     27603     27606     27604     27607     27608
     27611     27609     27612     27613     27616     27614     27617     27618
     27621     27619     27622     27623     27626     27624     27627     27628
     27631     27629     27632     27633     27636     27634     27637     27638
     27641     27639     27642     27643     27646     27644     27647     27648
     27651     27649     27652     27653     27656     27654     27657     27658
     27661     27659     27662     27663     27666     27664     27667     27668
     27671     27669     27672     27673     27676     27674     27677     27678
     27681     27679     27682     27683     27686     27684     27687     27688
     27691     27689     27692     27693     27696     27694     27697     27698
     27701     27699     27702     27703     27706     27704     27707     27708
     27711     27709     27712     27713     27716     27714     27717     27718
     27721     27719     27722     27723     27726     27724     27727     27728
     27731     27729     27732     27733     27736     27734     27737     27738
     27741     27739     27742     27743     27746     27744     27747     27748
     27751     27749     27752     27753     27756     27754     27757     27758
     27761     27759     27762     27763     27766     27764     27767     27768
     27771     27769     27772     27773     27776     27774     27777     27778
     27781     27779     27782     27783     27786     27784     27787     27788
     27791     27789     27792     27793     27796     27794     27797     27798
     27801     27799     27802     27803     27806     27804     27807     27808
     27811     27809     27812     27813     27816     27814     27817     27818
     27821     27819     27822     27823     27826     27824     27827     27828
     27831     27829     27832     27833     27836     27834     27837     27838
     27841     27839     27842     27843     27846     27844     27847     27848
     27851     27849     27852     27853     27856     27854     27857     27858
     27861     27859     27862     27863     27866     27864     27867     27868
     27871     27869     27872     27873     27876     27874     27877     27878
     27881     27879     27882     27883     27886     27884     27887     27888
     27891     27889     27892     27893     27896     27894     27897     27898
     27901     27899     27902     27903     27906     27904     27907     27908
     27911     27909     27912     27913     27916     27914     27917     27918
     27921     27919     27922     27923     27926     27924     27927     27928
     27931     27929     27932     27933     27936     27934     27937     27938
     27941     27939     27942     27943     27946     27944     27947     27948
     27951     27949     27952     27953     27956     27954     27957     27958
     27961     27959     27962     27963     27966     27964     27967     27968
     27971     27969     27972     27973     27976     27974     27977     27978
     27981     27979     27982     27983     27986     27984     27987     27988
     27991     27989     27992     27993     27996     27994     27997     27998
     28001     27999     28002     28003     28006     28004     28007     28008
     28011     28009     28012     28013     28016     28014     28017     28018
     28021     28019     28022     28023     28026     28024     28027     28028
     28031     28029     28032     28033     28036     28034     28037     28038
     28041     28039     28042     28043     28046     28044     28047     28048
     28051     28049     28052     28053     28056     28054     28057     28058
     28061     28059     28062     28063     28066     28064     28067     28068
     28071     28069     28072     28073     28076     28074     28077     28078
     28081     28079     28082     28083     28086     28084     28087     28088
     28091     28089     28092     28093     28096     28094     28097     28098
     28101     28099     28102     28103     28106     28104     28107     28108
     28111     28109     28112     28113     28116     28114     28117     28118
     28121     28119     28122     28123     28126     28124     28127     28128
     28131     28129     28132     28133     28136     28134     28137     28138
     28141     28139     28142     28143     28146     28144     28147     28148
     28151     28149     28152     28153     28156     28154     28157     28158
     28161     28159     28162     28163     28166     28164     28167     28168
     28171     28169     28172     28173     28176     28174     28177     28178
     28181     28179     28182     28183     28186     28184     28187     28188
     28191     28189     28192     28193     28196     28194     28197     28198
     28201     28199     28202     28203     28206     28204     28207     28208
     28211     28209     28212     28213     28216     28214     28217     28218
     28221     28219     28222     28223     28226     28224     28227     28228
     28231     28229     28232     28233     28236     28234     28237     28238
     28241     28239     28242     28243     28246     28244     28247     28248
     28251     28249     28252     28253     28256     28254     28257     28258
     28261     28259     28262     28263     28266     28264     28267     28268
     28271     28269     28272     28273     28276     28274     28277     28278
     28281     28279     28282     28283     28286     28284     28287     28288
     28291     28289     28292     28293     28296     28294     28297     28298
     28301     28299     28302     28303     28306     28304     28307     28308
     28311     28309     28312     28313     28316     28314     28317     28318
     28321     28319     28322     28323     28326     28324     28327     28328
     28331     28329     28332     28333     28336     28334     28337     28338
     28341     28339     28342     28343     28346     28344     28347     28348
     28351     28349     28352     28353     28356     28354     28357     28358
     28361     28359     28362     28363     28366     28364     28367     28368
     28371     28369     28372     28373     28376     28374     28377     28378
     28381     28379     28382     28383     28386     28384     28387     28388
     28391     28389     28392     28393     28396     28394     28397     28398
     28401     28399     28402     28403     28406     28404     28407     28408
     28411     28409     28412     28413     28416     28414     28417     28418
     28421     28419     28422     28423     28426     28424     28427     28428
     28431     28429     28432     28433     28436     28434     28437     28438
     28441     28439     28442     28443     28446     28444     28447     28448
     28451     28449     28452     28453     28456     28454     28457     28458
     28461     28459     28462     28463     28466     28464     28467     28468
     28471     28469     28472     28473     28476     28474     28477     28478
     28481     28479     28482     28483     28486     28484     28487     28488
     28491     28489     28492     28493     28496     28494     28497     28498
     28501     28499     28502     28503     28506     28504     28507     28508
     28511     28509     28512     28513     28516     28514     28517     28518
     28521     28519     28522     28523     28526     28524     28527     28528
     28531     28529     28532     28533     28536     28534     28537     28538
     28541     28539     28542     28543     28546     28544     28547     28548
     28551     28549     28552     28553     28556     28554     28557     28558
     28561     28559     28562     28563     28566     28564     28567     28568
     28571     28569     28572     28573     28576     28574     28577     28578
     28581     28579     28582     28583     28586     28584     28587     28588
     28591     28589     28592     28593     28596     28594     28597     28598
     28601     28599     28602     28603     28606     28604     28607     28608
     28611     28609     28612     28613     28616     28614     28617     28618
     28621     28619     28622     28623     28626     28624     28627     28628
     28631     28629     28632     28633     28636     28634     28637     28638
     28641     28639     28642     28643     28646     28644     28647     28648
     28651     28649     28652     28653     28656     28654     28657     28658
     28661     28659     28662     28663     28666     28664     28667     28668
     28671     28669     28672     28673     28676     28674     28677     28678
     28681     28679     28682     28683     28686     28684     28687     28688
     28691     28689     28692     28693     28696     28694     28697     28698
     28701     28699     28702     28703     28706     28704     28707     28708
     28711     28709     28712     28713     28716     28714     28717     28718
     28721     28719     28722     28723     28726     28724     28727     28728
     28731     28729     28732     28733     28736     28734     28737     28738
     28741     28739     28742     28743     28746     28744     28747     28748
     28751     28749     28752     28753     28756     28754     28757     28758
     28761     28759     28762     28763     28766     28764     28767     28768
     28771     28769     28772     28773     28776     28774     28777     28778
     28781     28779     28782     28783     28786     28784     28787     28788
     28791     28789     28792     28793     28796     28794     28797     28798
     28801     28799     28802     28803     28806     28804     28807     28808
     28811     28809     28812     28813     28816     28814     28817     28818
     28821     28819     28822     28823     28826     28824     28827     28828
     28831     28829     28832     28833     28836     28834     28837     28838
     28841     28839     28842     28843     28846     28844     28847     28848
     28851     28849     28852     28853     28856     28854     28857     28858
     28861     28859     28862     28863     28866     28864     28867     28868
     28871     28869     28872     28873     28876     28874     28877     28878
     28881     28879     28882     28883     28886     28884     28887     28888
     28891     28889     28892     28893     28896     28894     28897     28898
     28901     28899     28902     28903     28906     28904     28907     28908
     28911     28909     28912     28913     28916     28914     28917     28918
     28921     28919     28922     28923     28926     28924     28927     28928
     28931     28929     28932     28933     28936     28934     28937     28938
     28941     28939     28942     28943     28946     28944     28947     28948
     28951     28949     28952     28953     28956     28954     28957     28958
     28961     28959     28962     28963     28966     28964     28967     28968
     28971     28969     28972     28973     28976     28974     28977     28978
     28981     28979     28982     28983     28986     28984     28987     28988
     28991     28989     28992     28993     28996     28994     28997     28998
     29001     28999     29002     29003     29006     29004     29007     29008
     29011     29009     29012     29013     29016     29014     29017     29018
     29021     29019     29022     29023     29026     29024     29027     29028
     29031     29029     29032     29033     29036     29034     29037     29038
     29041     29039     29042     29043     29046     29044     29047     29048
     29051     29049     29052     29053     29056     29054     29057     29058
     29061     29059     29062     29063     29066     29064     29067     29068
     29071     29069     29072     29073     29076     29074     29077     29078
     29081     29079     29082     29083     29086     29084     29087     29088
     29091     29089     29092     29093     29096     29094     29097     29098
     29101     29099     29102     29103     29106     29104     29107     29108
     29111     29109     29112     29113     29116     29114     29117     29118
     29121     29119     29122     29123     29126     29124     29127     29128
     29131     29129     29132     29133     29136     29134     29137     29138
     29141     29139     29142     29143     29146     29144     29147     29148
     29151     29149     29152     29153     29156     29154     29157     29158
     29161     29159     29162     29163     29166     29164     29167     29168
     29171     29169     29172     29173     29176     29174     29177     29178
     29181     29179     29182     29183     29186     29184     29187     29188
     29191     29189     29192     29193     29196     29194     29197     29198
     29201     29199     29202     29203     29206     29204     29207     29208
     29211     29209     29212     29213     29216     29214     29217     29218
     29221     29219     29222     29223     29226     29224     29227     29228
     29231     29229     29232     29233     29236     29234     29237     29238
     29241     29239     29242     29243     29246     29244     29247     29248
     29251     29249     29252     29253     29256     29254     29257     29258
     29261     29259     29262     29263     29266     29264     29267     29268
     29271     29269     29272     29273     29276     29274     29277     29278
     29281     29279     29282     29283     29286     29284     29287     29288
     29291     29289     29292     29293     29296     29294     29297     29298
     29301     29299     29302     29303     29306     29304     29307     29308
     29311     29309     29312     29313     29316     29314     29317     29318
     29321     29319     29322     29323     29326     29324     29327     29328
     29331     29329     29332     29333     29336     29334     29337     29338
     29341     29339     29342     29343     29346     29344     29347     29348
     29351     29349     29352     29353     29356     29354     29357     29358
     29361     29359     29362     29363     29366     29364     29367     29368
     29371     29369     29372     29373     29376     29374     29377     29378
     29381     29379     29382     29383     29386     29384     29387     29388
     29391     29389     29392     29393     29396     29394     29397     29398
     29401     29399     29402     29403     29406     29404     29407     29408
     29411     29409     29412     29413     29416     29414     29417     29418
     29421     29419     29422     29423     29426     29424     29427     29428
     29431     29429     29432     29433     29436     29434     29437     29438
     29441     29439     29442     29443     29446     29444     29447     29448
     29451     29449     29452     29453     29456     29454     29457     29458
     29461     29459     29462     29463     29466     29464     29467     29468
     29471     29469     29472     29473     29476     29474     29477     29478
     29481     29479     29482     29483     29486     29484     29487     29488
     29491     29489     29492     29493     29496     29494     29497     29498
     29501     29499     29502     29503     29506     29504     29507     29508
     29511     29509     29512     29513     29516     29514     29517     29518
     29521     29519     29522     29523     29526     29524     29527     29528
     29531     29529     29532     29533     29536     29534     29537     29538
     29541     29539     29542     29543     29546     29544     29547     29548
     29551     29549     29552     29553     29556     29554     29557     29558
     29561     29559     29562     29563     29566     29564     29567     29568
     29571     29569     29572     29573     29576     29574     29577     29578
     29581     29579     29582     29583     29586     29584     29587     29588
     29591     29589     29592     29593     29596     29594     29597     29598
     29601     29599     29602     29603     29606     29604     29607     29608
     29611     29609     29612     29613     29616     29614     29617     29618
     29621     29619     29622     29623     29626     29624     29627     29628
     29631     29629     29632     29633     29636     29634     29637     29638
     29641     29639     29642     29643     29646     29644     29647     29648
     29651     29649     29652     29653     29656     29654     29657     29658
     29661     29659     29662     29663     29666     29664     29667     29668
     29671     29669     29672     29673     29676     29674     29677     29678
     29681     29679     29682     29683     29686     29684     29687     29688
     29691     29689     29692     29693     29696     29694     29697     29698
     29701     29699     29702     29703     29706     29704     29707     29708
     29711     29709     29712     29713     29716     29714     29717     29718
     29721     29719     29722     29723     29726     29724     29727     29728
     29731     29729     29732     29733     29736     29734     29737     29738
     29741     29739     29742     29743     29746     29744     29747     29748
     29751     29749     29752     29753     29756     29754     29757     29758
     29761     29759     29762     29763     29766     29764     29767     29768
     29771     29769     29772     29773     29776     29774     29777     29778
     29781     29779     29782     29783     29786     29784     29787     29788
     29791     29789     29792     29793     29796     29794     29797     29798
     29801     29799     29802     29803     29806     29804     29807     29808
     29811     29809     29812     29813     29816     29814     29817     29818
     29821     29819     29822     29823     29826     29824     29827     29828
     29831     29829     29832     29833     29836     29834     29837     29838
     29841     29839     29842     29843     29846     29844     29847     29848
     29851     29849     29852     29853     29856     29854     29857     29858
     29861     29859     29862     29863     29866     29864     29867     29868
     29871     29869     29872     29873     29876     29874     29877     29878
     29881     29879     29882     29883     29886     29884     29887     29888
     29891     29889     29892     29893     29896     29894     29897     29898
     29901     29899     29902     29903     29906     29904     29907     29908
     29911     29909     29912     29913     29916     29914     29917     29918
     29921     29919     29922     29923     29926     29924     29927     29928
     29931     29929     29932     29933     29936     29934     29937     29938
     29941     29939     29942     29943     29946     29944     29947     29948
     29951     29949     29952     29953     29956     29954     29957     29958
     29961     29959     29962     29963     29966     29964     29967     29968
     29971     29969     29972     29973     29976     29974     29977     29978
     29981     29979     29982     29983     29986     29984     29987     29988
     29991     29989     29992     29993     29996     29994     29997     29998
     30001     29999     30002     30003     30006     30004     30007     30008
     30011     30009     30012     30013     30016     30014     30017     30018
     30021     30019     30022     30023     30026     30024     30027     30028
     30031     30029     30032     30033     30036     30034     30037     30038
     30041     30039     30042     30043     30046     30044     30047     30048
     30051     30049     30052     30053     30056     30054     30057     30058
     30061     30059     30062     30063     30066     30064     30067     30068
     30071     30069     30072     30073     30076     30074     30077     30078
     30081     30079     30082     30083     30086     30084     30087     30088
     30091     30089     30092     30093     30096     30094     30097     30098
     30101     30099     30102     30103     30106     30104     30107     30108
     30111     30109     30112     30113     30116     30114     30117     30118
     30121     30119     30122     30123     30126     30124     30127     30128
     30131     30129     30132     30133     30136     30134     30137     30138
     30141     30139     30142     30143     30146     30144     30147     30148
     30151     30149     30152     30153     30156     30154     30157     30158
     30161     30159     30162     30163     30166     30164     30167     30168
     30171     30169     30172     30173     30176     30174     30177     30178
     30181     30179     30182     30183     30186     30184     30187     30188
     30191     30189     30192     30193     30196     30194     30197     30198
     30201     30199     30202     30203     30206     30204     30207     30208
     30211     30209     30212     30213     30216     30214     30217     30218
     30221     30219     30222     30223     30226     30224     30227     30228
     30231     30229     30232     30233     30236     30234     30237     30238
     30241     30239     30242     30243     30246     30244     30247     30248
     30251     30249     30252     30253     30256     30254     30257     30258
     30261     30259     30262     30263     30266     30264     30267     30268
     30271     30269     30272     30273     30276     30274     30277     30278
     30281     30279     30282     30283     30286     30284     30287     30288
     30291     30289     30292     30293     30296     30294     30297     30298
     30301     30299     30302     30303     30306     30304     30307     30308
     30311     30309     30312     30313     30316     30314     30317     30318
     30321     30319     30322     30323     30326     30324     30327     30328
     30331     30329     30332     30333     30336     30334     30337     30338
     30341     30339     30342     30343     30346     30344     30347     30348
     30351     30349     30352     30353     30356     30354     30357     30358
     30361     30359     30362     30363     30366     30364     30367     30368
     30371     30369     30372     30373     30376     30374     30377     30378
     30381     30379     30382     30383     30386     30384     30387     30388
     30391     30389     30392     30393     30396     30394     30397     30398
     30401     30399     30402     30403     30406     30404     30407     30408
     30411     30409     30412     30413     30416     30414     30417     30418
     30421     30419     30422     30423     30426     30424     30427     30428
     30431     30429     30432     30433     30436     30434     30437     30438
     30441     30439     30442     30443     30446     30444     30447     30448
     30451     30449     30452     30453     30456     30454     30457     30458
     30461     30459     30462     30463     30466     30464     30467     30468
     30471     30469     30472     30473     30476     30474     30477     30478
     30481     30479     30482     30483     30486     30484     30487     30488
     30491     30489     30492     30493     30496     30494     30497     30498
     30501     30499     30502     30503     30506     30504     30507     30508
     30511     30509     30512     30513     30516     30514     30517     30518
     30521     30519     30522     30523     30526     30524     30527     30528
     30531     30529     30532     30533     30536     30534     30537     30538
     30541     30539     30542     30543     30546     30544     30547     30548
     30551     30549     30552     30553     30556     30554     30557     30558
     30561     30559     30562     30563     30566     30564     30567     30568
     30571     30569     30572     30573     30576     30574     30577     30578
     30581     30579     30582     30583     30586     30584     30587     30588
     30591     30589     30592     30593     30596     30594     30597     30598
     30601     30599     30602     30603     30606     30604     30607     30608
     30611     30609     30612     30613     30616     30614     30617     30618
     30621     30619     30622     30623     30626     30624     30627     30628
     30631     30629     30632     30633     30636     30634     30637     30638
     30641     30639     30642     30643     30646     30644     30647     30648
     30651     30649     30652     30653     30656     30654     30657     30658
     30661     30659     30662     30663     30666     30664     30667     30668
     30671     30669     30672     30673     30676     30674     30677     30678
     30681     30679     30682     30683     30686     30684     30687     30688
     30691     30689     30692     30693     30696     30694     30697     30698
     30701     30699     30702     30703     30706     30704     30707     30708
     30711     30709     30712     30713     30716     30714     30717     30718
     30721     30719     30722     30723     30726     30724     30727     30728
     30731     30729     30732     30733     30736     30734     30737     30738
     30741     30739     30742     30743     30746     30744     30747     30748
     30751     30749     30752     30753     30756     30754     30757     30758
     30761     30759     30762     30763     30766     30764     30767     30768
     30771     30769     30772     30773     30776     30774     30777     30778
     30781     30779     30782     30783     30786     30784     30787     30788
     30791     30789     30792     30793     30796     30794     30797     30798
     30801     30799     30802     30803     30806     30804     30807     30808
     30811     30809     30812     30813     30816     30814     30817     30818
     30821     30819     30822     30823     30826     30824     30827     30828
     30831     30829     30832     30833     30836     30834     30837     30838
     30841     30839     30842     30843     30846     30844     30847     30848
     30851     30849     30852     30853     30856     30854     30857     30858
     30861     30859     30862     30863     30866     30864     30867     30868
     30871     30869     30872     30873     30876     30874     30877     30878
     30881     30879     30882     30883     30886     30884     30887     30888
     30891     30889     30892     30893     30896     30894     30897     30898
     30901     30899     30902     30903     30906     30904     30907     30908
     30911     30909     30912     30913     30916     30914     30917     30918
     30921     30919     30922     30923     30926     30924     30927     30928
     30931     30929     30932     30933     30936     30934     30937     30938
     30941     30939     30942     30943     30946     30944     30947     30948
     30951     30949     30952     30953     30956     30954     30957     30958
     30961     30959     30962     30963     30966     30964     30967     30968
     30971     30969     30972     30973     30976     30974     30977     30978
     30981     30979     30982     30983     30986     30984     30987     30988
     30991     30989     30992     30993     30996     30994     30997     30998
     31001     30999     31002     31003     31006     31004     31007     31008
     31011     31009     31012     31013     31016     31014     31017     31018
     31021     31019     31022     31023     31026     31024     31027     31028
     31031     31029     31032     31033     31036     31034     31037     31038
     31041     31039     31042     31043     31046     31044     31047     31048
     31051     31049     31052     31053     31056     31054     31057     31058
     31061     31059     31062     31063     31066     31064     31067     31068
     31071     31069     31072     31073     31076     31074     31077     31078
     31081     31079     31082     31083     31086     31084     31087     31088
     31091     31089     31092     31093     31096     31094     31097     31098
     31101     31099     31102     31103     31106     31104     31107     31108
     31111     31109     31112     31113     31116     31114     31117     31118
     31121     31119     31122     31123     31126     31124     31127     31128
     31131     31129     31132     31133     31136     31134     31137     31138
     31141     31139     31142     31143     31146     31144     31147     31148
     31151     31149     31152     31153     31156     31154     31157     31158
     31161     31159     31162     31163     31166     31164     31167     31168
     31171     31169     31172     31173     31176     31174     31177     31178
     31181     31179     31182     31183     31186     31184     31187     31188
     31191     31189     31192     31193     31196     31194     31197     31198
     31201     31199     31202     31203     31206     31204     31207     31208
     31211     31209     31212     31213     31216     31214     31217     31218
     31221     31219     31222     31223     31226     31224     31227     31228
     31231     31229     31232     31233     31236     31234     31237     31238
     31241     31239     31242     31243     31246     31244     31247     31248
     31251     31249     31252     31253     31256     31254     31257     31258
     31261     31259     31262     31263     31266     31264     31267     31268
     31271     31269     31272     31273     31276     31274     31277     31278
     31281     31279     31282     31283     31286     31284     31287     31288
     31291     31289     31292     31293     31296     31294     31297     31298
     31301     31299     31302     31303     31306     31304     31307     31308
     31311     31309     31312     31313     31316     31314     31317     31318
     31321     31319     31322     31323     31326     31324     31327     31328
     31331     31329     31332     31333     31336     31334     31337     31338
     31341     31339     31342     31343     31346     31344     31347     31348
     31351     31349     31352     31353     31356     31354     31357     31358
     31361     31359     31362     31363     31366     31364     31367     31368
     31371     31369     31372     31373     31376     31374     31377     31378
     31381     31379     31382     31383     31386     31384     31387     31388
     31391     31389     31392     31393     31396     31394     31397     31398
     31401     31399     31402     31403     31406     31404     31407     31408
     31411     31409     31412     31413     31416     31414     31417     31418
     31421     31419     31422     31423     31426     31424     31427     31428
     31431     31429     31432     31433     31436     31434     31437     31438
     31441     31439     31442     31443     31446     31444     31447     31448
     31451     31449     31452     31453     31456     31454     31457     31458
     31461     31459     31462     31463     31466     31464     31467     31468
     31471     31469     31472     31473     31476     31474     31477     31478
     31481     31479     31482     31483     31486     31484     31487     31488
     31491     31489     31492     31493     31496     31494     31497     31498
     31501     31499     31502     31503     31506     31504     31507     31508
     31511     31509     31512     31513     31516     31514     31517     31518
     31521     31519     31522     31523     31526     31524     31527     31528
     31531     31529     31532     31533     31536     31534     31537     31538
     31541     31539     31542     31543     31546     31544     31547     31548
     31551     31549     31552     31553     31556     31554     31557     31558
     31561     31559     31562     31563     31566     31564     31567     31568
     31571     31569     31572     31573     31576     31574     31577     31578
     31581     31579     31582     31583     31586     31584     31587     31588
     31591     31589     31592     31593     31596     31594     31597     31598
     31601     31599     31602     31603     31606     31604     31607     31608
     31611     31609     31612     31613     31616     31614     31617     31618
     31621     31619     31622     31623     31626     31624     31627     31628
     31631     31629     31632     31633     31636     31634     31637     31638
     31641     31639     31642     31643     31646     31644     31647     31648
     31651     31649     31652     31653     31656     31654     31657     31658
     31661     31659     31662     31663     31666     31664     31667     31668
     31671     31669     31672     31673     31676     31674     31677     31678
     31681     31679     31682     31683     31686     31684     31687     31688
     31691     31689     31692     31693     31696     31694     31697     31698
     31701     31699     31702     31703     31706     31704     31707     31708
     31711     31709     31712     31713     31716     31714     31717     31718
     31721     31719     31722     31723     31726     31724     31727     31728
     31731     31729     31732     31733     31736     31734     31737     31738
     31741     31739     31742     31743     31746     31744     31747     31748
     31751     31749     31752     31753     31756     31754     31757     31758
     31761     31759     31762     31763     31766     31764     31767     31768
     31771     31769     31772     31773     31776     31774     31777     31778
     31781     31779     31782     31783     31786     31784     31787     31788
     31791     31789     31792     31793     31796     31794     31797     31798
     31801     31799     31802     31803     31806     31804     31807     31808
     31811     31809     31812     31813     31816     31814     31817     31818
     31821     31819     31822     31823     31826     31824     31827     31828
     31831     31829     31832     31833     31836     31834     31837     31838
     31841     31839     31842     31843     31846     31844     31847     31848
     31851     31849     31852     31853     31856     31854     31857     31858
     31861     31859     31862     31863     31866     31864     31867     31868
     31871     31869     31872     31873     31876     31874     31877     31878
     31881     31879     31882     31883     31886     31884     31887     31888
     31891     31889     31892     31893     31896     31894     31897     31898
     31901     31899     31902     31903     31906     31904     31907     31908
     31911     31909     31912     31913     31916     31914     31917     31918
     31921     31919     31922     31923     31926     31924     31927     31928
     31931     31929     31932     31933     31936     31934     31937     31938
     31941     31939     31942     31943     31946     31944     31947     31948
     31951     31949     31952     31953     31956     31954     31957     31958
     31961     31959     31962     31963     31966     31964     31967     31968
     31971     31969     31972     31973     31976     31974     31977     31978
     31981     31979     31982     31983     31986     31984     31987     31988
     31991     31989     31992     31993     31996     31994     31997     31998
     32001     31999     32002     32003     32006     32004     32007     32008
     32011     32009     32012     32013     32016     32014     32017     32018
     32021     32019     32022     32023     32026     32024     32027     32028
     32031     32029     32032     32033     32036     32034     32037     32038
     32041     32039     32042     32043     32046     32044     32047     32048
     32051     32049     32052     32053     32056     32054     32057     32058
     32061     32059     32062     32063     32066     32064     32067     32068
     32071     32069     32072     32073     32076     32074     32077     32078
     32081     32079     32082     32083     32086     32084     32087     32088
     32091     32089     32092     32093     32096     32094     32097     32098
     32101     32099     32102     32103     32106     32104     32107     32108
     32111     32109     32112     32113     32116     32114     32117     32118
     32121     32119     32122     32123     32126     32124     32127     32128
     32131     32129     32132     32133     32136     32134     32137     32138
     32141     32139     32142     32143     32146     32144     32147     32148
     32151     32149     32152     32153     32156     32154     32157     32158
     32161     32159     32162     32163     32166     32164     32167     32168
     32171     32169     32172     32173     32176     32174     32177     32178
     32181     32179     32182     32183     32186     32184     32187     32188
     32191     32189     32192     32193     32196     32194     32197     32198
     32201     32199     32202     32203     32206     32204     32207     32208
     32211     32209     32212     32213     32216     32214     32217     32218
     32221     32219     32222     32223     32226     32224     32227     32228
     32231     32229     32232     32233     32236     32234     32237     32238
     32241     32239     32242     32243     32246     32244     32247     32248
     32251     32249     32252     32253     32256     32254     32257     32258
     32261     32259     32262     32263     32266     32264     32267     32268
     32271     32269     32272     32273     32276     32274     32277     32278
     32281     32279     32282     32283     32286     32284     32287     32288
     32291     32289     32292     32293     32296     32294     32297     32298
     32301     32299     32302     32303     32306     32304     32307     32308
     32311     32309     32312     32313     32316     32314     32317     32318
     32321     32319     32322     32323     32326     32324     32327     32328
     32331     32329     32332     32333     32336     32334     32337     32338
     32341     32339     32342     32343     32346     32344     32347     32348
     32351     32349     32352     32353     32356     32354     32357     32358
     32361     32359     32362     32363     32366     32364     32367     32368
     32371     32369     32372     32373     32376     32374     32377     32378
     32381     32379     32382     32383     32386     32384     32387     32388
     32391     32389     32392     32393     32396     32394     32397     32398
     32401     32399     32402     32403     32406     32404     32407     32408
     32411     32409     32412     32413     32416     32414     32417     32418
     32421     32419     32422     32423     32426     32424     32427     32428
     32431     32429     32432     32433     32436     32434     32437     32438
     32441     32439     32442     32443     32446     32444     32447     32448
     32451     32449     32452     32453     32456     32454     32457     32458
     32461     32459     32462     32463     32466     32464     32467     32468
     32471     32469     32472     32473     32476     32474     32477     32478
     32481     32479     32482     32483     32486     32484     32487     32488
     32491     32489     32492     32493     32496     32494     32497     32498
     32501     32499     32502     32503     32506     32504     32507     32508
     32511     32509     32512     32513     32516     32514     32517     32518
     32521     32519     32522     32523     32526     32524     32527     32528
     32531     32529     32532     32533     32536     32534     32537     32538
     32541     32539     32542     32543     32546     32544     32547     32548
     32551     32549     32552     32553     32556     32554     32557     32558
     32561     32559     32562     32563     32566     32564     32567     32568
     32571     32569     32572     32573     32576     32574     32577     32578
     32581     32579     32582     32583     32586     32584     32587     32588
     32591     32589     32592     32593     32596     32594     32597     32598
     32601     32599     32602     32603     32606     32604     32607     32608
     32611     32609     32612     32613     32616     32614     32617     32618
     32621     32619     32622     32623     32626     32624     32627     32628
     32631     32629     32632     32633     32636     32634     32637     32638
     32641     32639     32642     32643     32646     32644     32647     32648
     32651     32649     32652     32653     32656     32654     32657     32658
     32661     32659     32662     32663     32666     32664     32667     32668
     32671     32669     32672     32673     32676     32674     32677     32678
     32681     32679     32682     32683     32686     32684     32687     32688
     32691     32689     32692     32693     32696     32694     32697     32698
     32701     32699     32702     32703     32706     32704     32707     32708
     32711     32709     32712     32713     32716     32714     32717     32718
     32721     32719     32722     32723     32726     32724     32727     32728
     32731     32729     32732     32733     32736     32734     32737     32738
     32741     32739     32742     32743     32746     32744     32747     32748
     32751     32749     32752     32753     32756     32754     32757     32758
     32761     32759     32762     32763     32766     32764     32767     32768
     32771     32769     32772     32773     32776     32774     32777     32778
     32781     32779     32782     32783     32786     32784     32787     32788
     32791     32789     32792     32793     32796     32794     32797     32798
     32801     32799     32802     32803     32806     32804     32807     32808
     32811     32809     32812     32813     32816     32814     32817     32818
     32821     32819     32822     32823     32826     32824     32827     32828
     32831     32829     32832     32833     32836     32834     32837     32838
     32841     32839     32842     32843     32846     32844     32847     32848
     32851     32849     32852     32853     32856     32854     32857     32858
     32861     32859     32862     32863     32866     32864     32867     32868
     32871     32869     32872     32873     32876     32874     32877     32878
     32881     32879     32882     32883     32886     32884     32887     32888
     32891     32889     32892     32893     32896     32894     32897     32898
     32901     32899     32902     32903     32906     32904     32907     32908
     32911     32909     32912     32913     32916     32914     32917     32918
     32921     32919     32922     32923     32926     32924     32927     32928
     32931     32929     32932     32933     32936     32934     32937     32938
     32941     32939     32942     32943     32946     32944     32947     32948
     32951     32949     32952     32953     32956     32954     32957     32958
     32961     32959     32962     32963     32966     32964     32967     32968
     32971     32969     32972     32973     32976     32974     32977     32978
     32981     32979     32982     32983     32986     32984     32987     32988
     32991     32989     32992     32993     32996     32994     32997     32998
     33001     32999     33002     33003     33006     33004     33007     33008
     33011     33009     33012     33013     33016     33014     33017     33018
     33021     33019     33022     33023     33026     33024     33027     33028
     33031     33029     33032     33033     33036     33034     33037     33038
     33041     33039     33042     33043     33046     33044     33047     33048
     33051     33049     33052     33053     33056     33054     33057     33058
     33061     33059     33062     33063     33066     33064     33067     33068
     33071     33069     33072     33073     33076     33074     33077     33078
     33081     33079     33082     33083     33086     33084     33087     33088
     33091     33089     33092     33093     33096     33094     33097     33098
     33101     33099     33102     33103     33106     33104     33107     33108
     33111     33109     33112     33113     33116     33114     33117     33118
     33121     33119     33122     33123     33126     33124     33127     33128
     33131     33129     33132     33133     33136     33134     33137     33138
     33141     33139     33142     33143     33146     33144     33147     33148
     33151     33149     33152     33153     33156     33154     33157     33158
     33161     33159     33162     33163     33166     33164     33167     33168
     33171     33169     33172     33173     33176     33174     33177     33178
     33181     33179     33182     33183     33186     33184     33187     33188
     33191     33189     33192     33193     33196     33194     33197     33198
     33201     33199     33202     33203     33206     33204     33207     33208
     33211     33209     33212     33213     33216     33214     33217     33218
     33221     33219     33222     33223     33226     33224     33227     33228
     33231     33229     33232     33233     33236     33234     33237     33238
     33241     33239     33242     33243     33246     33244     33247     33248
     33251     33249     33252     33253     33256     33254     33257     33258
     33261     33259     33262     33263     33266     33264     33267     33268
     33271     33269     33272     33273     33276     33274     33277     33278
     33281     33279     33282     33283     33286     33284     33287     33288
     33291     33289     33292     33293     33296     33294     33297     33298
     33301     33299     33302     33303     33306     33304     33307     33308
     33311     33309     33312     33313     33316     33314     33317     33318
     33321     33319     33322     33323     33326     33324     33327     33328
     33331     33329     33332     33333     33336     33334     33337     33338
     33341     33339     33342     33343     33346     33344     33347     33348
     33351     33349     33352     33353     33356     33354     33357     33358
     33361     33359     33362     33363     33366     33364     33367     33368
     33371     33369     33372     33373     33376     33374     33377     33378
     33381     33379     33382     33383     33386     33384     33387     33388
     33391     33389     33392     33393     33396     33394     33397     33398
     33401     33399     33402     33403     33406     33404     33407     33408
     33411     33409     33412     33413     33416     33414     33417     33418
     33421     33419     33422     33423     33426     33424     33427     33428
     33431     33429     33432     33433     33436     33434     33437     33438
     33441     33439     33442     33443     33446     33444     33447     33448
     33451     33449     33452     33453     33456     33454     33457     33458
     33461     33459     33462     33463     33466     33464     33467     33468
     33471     33469     33472     33473     33476     33474     33477     33478
     33481     33479     33482     33483     33486     33484     33487     33488
     33491     33489     33492     33493     33496     33494     33497     33498
     33501     33499     33502     33503     33506     33504     33507     33508
     33511     33509     33512     33513     33516     33514     33517     33518
     33521     33519     33522     33523     33526     33524     33527     33528
     33531     33529     33532     33533     33536     33534     33537     33538
     33541     33539     33542     33543     33546     33544     33547     33548
     33551     33549     33552     33553     33556     33554     33557     33558
     33561     33559     33562     33563     33566     33564     33567     33568
     33571     33569     33572     33573     33576     33574     33577     33578
     33581     33579     33582     33583     33586     33584     33587     33588
     33591     33589     33592     33593     33596     33594     33597     33598
     33601     33599     33602     33603     33606     33604     33607     33608
     33611     33609     33612     33613     33616     33614     33617     33618
     33621     33619     33622     33623     33626     33624     33627     33628
     33631     33629     33632     33633     33636     33634     33637     33638
     33641     33639     33642     33643     33646     33644     33647     33648
     33651     33649     33652     33653     33656     33654     33657     33658
     33661     33659     33662     33663     33666     33664     33667     33668
     33671     33669     33672     33673     33676     33674     33677     33678
     33681     33679     33682     33683     33686     33684     33687     33688
     33691     33689     33692     33693     33696     33694     33697     33698
     33701     33699     33702     33703     33706     33704     33707     33708
     33711     33709     33712     33713     33716     33714     33717     33718
     33721     33719     33722     33723     33726     33724     33727     33728
     33731     33729     33732     33733     33736     33734     33737     33738
     33741     33739     33742     33743     33746     33744     33747     33748
     33751     33749     33752     33753     33756     33754     33757     33758
     33761     33759     33762     33763     33766     33764     33767     33768
     33771     33769     33772     33773     33776     33774     33777     33778
     33781     33779     33782     33783     33786     33784     33787     33788
     33791     33789     33792     33793     33796     33794     33797     33798
     33801     33799     33802     33803     33806     33804     33807     33808
     33811     33809     33812     33813     33816     33814     33817     33818
     33821     33819     33822     33823     33826     33824     33827     33828
     33831     33829     33832     33833     33836     33834     33837     33838
     33841     33839     33842     33843     33846     33844     33847     33848
     33851     33849     33852     33853     33856     33854     33857     33858
     33861     33859     33862     33863     33866     33864     33867     33868
     33871     33869     33872     33873     33876     33874     33877     33878
     33881     33879     33882     33883     33886     33884     33887     33888
     33891     33889     33892     33893     33896     33894     33897     33898
     33901     33899     33902     33903     33906     33904     33907     33908
     33911     33909     33912     33913     33916     33914     33917     33918
     33921     33919     33922     33923     33926     33924     33927     33928
     33931     33929     33932     33933     33936     33934     33937     33938
     33941     33939     33942     33943     33946     33944     33947     33948
     33951     33949     33952     33953     33956     33954     33957     33958
     33961     33959     33962     33963     33966     33964     33967     33968
     33971     33969     33972     33973     33976     33974     33977     33978
     33981     33979     33982     33983     33986     33984     33987     33988
     33991     33989     33992     33993     33996     33994     33997     33998
     34001     33999     34002     34003     34006     34004     34007     34008
     34011     34009     34012     34013     34016     34014     34017     34018
     34021     34019     34022     34023     34026     34024     34027     34028
     34031     34029     34032     34033     34036     34034     34037     34038
     34041     34039     34042     34043     34046     34044     34047     34048
     34051     34049     34052     34053     34056     34054     34057     34058
     34061     34059     34062     34063     34066     34064     34067     34068
     34071     34069     34072     34073     34076     34074     34077     34078
     34081     34079     34082     34083     34086     34084     34087     34088
     34091     34089     34092     34093     34096     34094     34097     34098
     34101     34099     34102     34103     34106     34104     34107     34108
     34111     34109     34112     34113     34116     34114     34117     34118
     34121     34119     34122     34123     34126     34124     34127     34128
     34131     34129     34132     34133     34136     34134     34137     34138
     34141     34139     34142     34143     34146     34144     34147     34148
     34151     34149     34152     34153     34156     34154     34157     34158
     34161     34159     34162     34163     34166     34164     34167     34168
     34171     34169     34172     34173     34176     34174     34177     34178
     34181     34179     34182     34183     34186     34184     34187     34188
     34191     34189     34192     34193     34196     34194     34197     34198
     34201     34199     34202     34203     34206     34204     34207     34208
     34211     34209     34212     34213     34216     34214     34217     34218
     34221     34219     34222     34223     34226     34224     34227     34228
     34231     34229     34232     34233     34236     34234     34237     34238
     34241     34239     34242     34243     34246     34244     34247     34248
     34251     34249     34252     34253     34256     34254     34257     34258
     34261     34259     34262     34263     34266     34264     34267     34268
     34271     34269     34272     34273     34276     34274     34277     34278
     34281     34279     34282     34283     34286     34284     34287     34288
     34291     34289     34292     34293     34296     34294     34297     34298
     34301     34299     34302     34303     34306     34304     34307     34308
     34311     34309     34312     34313     34316     34314     34317     34318
     34321     34319     34322     34323     34326     34324     34327     34328
     34331     34329     34332     34333     34336     34334     34337     34338
     34341     34339     34342     34343     34346     34344     34347     34348
     34351     34349     34352     34353     34356     34354     34357     34358
     34361     34359     34362     34363     34366     34364     34367     34368
     34371     34369     34372     34373     34376     34374     34377     34378
     34381     34379     34382     34383     34386     34384     34387     34388
     34391     34389     34392     34393     34396     34394     34397     34398
     34401     34399     34402     34403     34406     34404     34407     34408
     34411     34409     34412     34413     34416     34414     34417     34418
     34421     34419     34422     34423     34426     34424     34427     34428
     34431     34429     34432     34433     34436     34434     34437     34438
     34441     34439     34442     34443     34446     34444     34447     34448
     34451     34449     34452     34453     34456     34454     34457     34458
     34461     34459     34462     34463     34466     34464     34467     34468
     34471     34469     34472     34473     34476     34474     34477     34478
     34481     34479     34482     34483     34486     34484     34487     34488
     34491     34489     34492     34493     34496     34494     34497     34498
     34501     34499     34502     34503     34506     34504     34507     34508
     34511     34509     34512     34513     34516     34514     34517     34518
     34521     34519     34522     34523     34526     34524     34527     34528
     34531     34529     34532     34533     34536     34534     34537     34538
     34541     34539     34542     34543     34546     34544     34547     34548
     34551     34549     34552     34553     34556     34554     34557     34558
     34561     34559     34562     34563     34566     34564     34567     34568
     34571     34569     34572     34573     34576     34574     34577     34578
     34581     34579     34582     34583     34586     34584     34587     34588
     34591     34589     34592     34593     34596     34594     34597     34598
     34601     34599     34602     34603     34606     34604     34607     34608
     34611     34609     34612     34613     34616     34614     34617     34618
     34621     34619     34622     34623     34626     34624     34627     34628
     34631     34629     34632     34633     34636     34634     34637     34638
     34641     34639     34642     34643     34646     34644     34647     34648
     34651     34649     34652     34653     34656     34654     34657     34658
     34661     34659     34662     34663     34666     34664     34667     34668
     34671     34669     34672     34673     34676     34674     34677     34678
     34681     34679     34682     34683     34686     34684     34687     34688
     34691     34689     34692     34693     34696     34694     34697     34698
     34701     34699     34702     34703     34706     34704     34707     34708
     34711     34709     34712     34713     34716     34714     34717     34718
     34721     34719     34722     34723     34726     34724     34727     34728
     34731     34729     34732     34733     34736     34734     34737     34738
     34741     34739     34742     34743     34746     34744     34747     34748
     34751     34749     34752     34753     34756     34754     34757     34758
     34761     34759     34762     34763     34766     34764     34767     34768
     34771     34769     34772     34773     34776     34774     34777     34778
     34781     34779     34782     34783     34786     34784     34787     34788
     34791     34789     34792     34793     34796     34794     34797     34798
     34801     34799     34802     34803     34806     34804     34807     34808
     34811     34809     34812     34813     34816     34814     34817     34818
     34821     34819     34822     34823     34826     34824     34827     34828
     34831     34829     34832     34833     34836     34834     34837     34838
     34841     34839     34842     34843     34846     34844     34847     34848
     34851     34849     34852     34853     34856     34854     34857     34858
     34861     34859     34862     34863     34866     34864     34867     34868
     34871     34869     34872     34873     34876     34874     34877     34878
     34881     34879     34882     34883     34886     34884     34887     34888
     34891     34889     34892     34893     34896     34894     34897     34898
     34901     34899     34902     34903     34906     34904     34907     34908
     34911     34909     34912     34913     34916     34914     34917     34918
     34921     34919     34922     34923     34926     34924     34927     34928
     34931     34929     34932     34933     34936     34934     34937     34938
     34941     34939     34942     34943     34946     34944     34947     34948
     34951     34949     34952     34953     34956     34954     34957     34958
     34961     34959     34962     34963     34966     34964     34967     34968
     34971     34969     34972     34973     34976     34974     34977     34978
     34981     34979     34982     34983     34986     34984     34987     34988
     34991     34989     34992     34993     34996     34994     34997     34998
     35001     34999     35002     35003     35006     35004     35007     35008
     35011     35009     35012     35013     35016     35014     35017     35018
     35021     35019     35022     35023     35026     35024     35027     35028
     35031     35029     35032     35033     35036     35034     35037     35038
     35041     35039     35042     35043     35046     35044     35047     35048
     35051     35049     35052     35053     35056     35054     35057     35058
     35061     35059     35062     35063     35066     35064     35067     35068
     35071     35069     35072     35073     35076     35074     35077     35078
     35081     35079     35082     35083     35086     35084     35087     35088
     35091     35089     35092     35093     35096     35094     35097     35098
     35101     35099     35102     35103     35106     35104     35107     35108
     35111     35109     35112     35113     35116     35114     35117     35118
     35121     35119     35122     35123     35126     35124     35127     35128
     35131     35129     35132     35133     35136     35134     35137     35138
     35141     35139     35142     35143     35146     35144     35147     35148
     35151     35149     35152     35153     35156     35154     35157     35158
     35161     35159     35162     35163     35166     35164     35167     35168
     35171     35169     35172     35173     35176     35174     35177     35178
     35181     35179     35182     35183     35186     35184     35187     35188
     35191     35189     35192     35193     35196     35194     35197     35198
     35201     35199     35202     35203     35206     35204     35207     35208
     35211     35209     35212     35213     35216     35214     35217     35218
     35221     35219     35222     35223     35226     35224     35227     35228
     35231     35229     35232     35233     35236     35234     35237     35238
     35241     35239     35242     35243     35246     35244     35247     35248
     35251     35249     35252     35253     35256     35254     35257     35258
     35261     35259     35262     35263     35266     35264     35267     35268
     35271     35269     35272     35273     35276     35274     35277     35278
     35281     35279     35282     35283     35286     35284     35287     35288
     35291     35289     35292     35293     35296     35294     35297     35298
     35301     35299     35302     35303     35306     35304     35307     35308
     35311     35309     35312     35313     35316     35314     35317     35318
     35321     35319     35322     35323     35326     35324     35327     35328
     35331     35329     35332     35333     35336     35334     35337     35338
     35341     35339     35342     35343     35346     35344     35347     35348
     35351     35349     35352     35353     35356     35354     35357     35358
     35361     35359     35362     35363     35366     35364     35367     35368
     35371     35369     35372     35373     35376     35374     35377     35378
     35381     35379     35382     35383     35386     35384     35387     35388
     35391     35389     35392     35393     35396     35394     35397     35398
     35401     35399     35402     35403     35406     35404     35407     35408
     35411     35409     35412     35413     35416     35414     35417     35418
     35421     35419     35422     35423     35426     35424     35427     35428
     35431     35429     35432     35433     35436     35434     35437     35438
     35441     35439     35442     35443     35446     35444     35447     35448
     35451     35449     35452     35453     35456     35454     35457     35458
     35461     35459     35462     35463     35466     35464     35467     35468
     35471     35469     35472     35473     35476     35474     35477     35478
     35481     35479     35482     35483     35486     35484     35487     35488
     35491     35489     35492     35493     35496     35494     35497     35498
     35501     35499     35502     35503     35506     35504     35507     35508
     35511     35509     35512     35513     35516     35514     35517     35518
     35521     35519     35522     35523     35526     35524     35527     35528
     35531     35529     35532     35533     35536     35534     35537     35538
     35541     35539     35542     35543     35546     35544     35547     35548
     35551     35549     35552     35553     35556     35554     35557     35558
     35561     35559     35562     35563     35566     35564     35567     35568
     35571     35569     35572     35573     35576     35574     35577     35578
     35581     35579     35582     35583     35586     35584     35587     35588
     35591     35589     35592     35593     35596     35594     35597     35598
     35601     35599     35602     35603     35606     35604     35607     35608
     35611     35609     35612     35613     35616     35614     35617     35618
     35621     35619     35622     35623     35626     35624     35627     35628
     35631     35629     35632     35633     35636     35634     35637     35638
     35641     35639     35642     35643     35646     35644     35647     35648
     35651     35649     35652     35653     35656     35654     35657     35658
     35661     35659     35662     35663     35666     35664     35667     35668
     35671     35669     35672     35673     35676     35674     35677     35678
     35681     35679     35682     35683     35686     35684     35687     35688
     35691     35689     35692     35693     35696     35694     35697     35698
     35701     35699     35702     35703     35706     35704     35707     35708
     35711     35709     35712     35713     35716     35714     35717     35718
     35721     35719     35722     35723     35726     35724     35727     35728
     35731     35729     35732     35733     35736     35734     35737     35738
     35741     35739     35742     35743     35746     35744     35747     35748
     35751     35749     35752     35753     35756     35754     35757     35758
     35761     35759     35762     35763     35766     35764     35767     35768
     35771     35769     35772     35773     35776     35774     35777     35778
     35781     35779     35782     35783     35786     35784     35787     35788
     35791     35789     35792     35793     35796     35794     35797     35798
     35801     35799     35802     35803     35806     35804     35807     35808
     35811     35809     35812     35813     35816     35814     35817     35818
     35821     35819     35822     35823     35826     35824     35827     35828
     35831     35829     35832     35833     35836     35834     35837     35838
     35841     35839     35842     35843     35846     35844     35847     35848
     35851     35849     35852     35853     35856     35854     35857     35858
     35861     35859     35862     35863     35866     35864     35867     35868
     35871     35869     35872     35873     35876     35874     35877     35878
     35881     35879     35882     35883     35886     35884     35887     35888
     35891     35889     35892     35893     35896     35894     35897     35898
     35901     35899     35902     35903     35906     35904     35907     35908
     35911     35909     35912     35913     35916     35914     35917     35918
     35921     35919     35922     35923     35926     35924     35927     35928
     35931     35929     35932     35933     35936     35934     35937     35938
     35941     35939     35942     35943     35946     35944     35947     35948
     35951     35949     35952     35953     35956     35954     35957     35958
     35961     35959     35962     35963     35966     35964     35967     35968
     35971     35969     35972     35973     35976     35974     35977     35978
     35981     35979     35982     35983     35986     35984     35987     35988
     35991     35989     35992     35993     35996     35994     35997     35998
     36001     35999     36002     36003     36006     36004     36007     36008
     36011     36009     36012     36013     36016     36014     36017     36018
     36021     36019     36022     36023     36026     36024     36027     36028
     36031     36029     36032     36033     36036     36034     36037     36038
     36041     36039     36042     36043     36046     36044     36047     36048
     36051     36049     36052     36053     36056     36054     36057     36058
     36061     36059     36062     36063     36066     36064     36067     36068
     36071     36069     36072     36073     36076     36074     36077     36078
     36081     36079     36082     36083     36086     36084     36087     36088
     36091     36089     36092     36093     36096     36094     36097     36098
     36101     36099     36102     36103     36106     36104     36107     36108
     36111     36109     36112     36113     36116     36114     36117     36118
     36121     36119     36122     36123     36126     36124     36127     36128
     36131     36129     36132     36133     36136     36134     36137     36138
     36141     36139     36142     36143     36146     36144     36147     36148
     36151     36149     36152     36153     36156     36154     36157     36158
     36161     36159     36162     36163     36166     36164     36167     36168
     36171     36169     36172     36173     36176     36174     36177     36178
     36181     36179     36182     36183     36186     36184     36187     36188
     36191     36189     36192     36193     36196     36194     36197     36198
     36201     36199     36202     36203     36206     36204     36207     36208
     36211     36209     36212     36213     36216     36214     36217     36218
     36221     36219     36222     36223     36226     36224     36227     36228
     36231     36229     36232     36233     36236     36234     36237     36238
     36241     36239     36242     36243     36246     36244     36247     36248
     36251     36249     36252     36253     36256     36254     36257     36258
     36261     36259     36262     36263     36266     36264     36267     36268
     36271     36269     36272     36273     36276     36274     36277     36278
     36281     36279     36282     36283     36286     36284     36287     36288
     36291     36289     36292     36293     36296     36294     36297     36298
     36301     36299     36302     36303     36306     36304     36307     36308
     36311     36309     36312     36313     36316     36314     36317     36318
     36321     36319     36322     36323     36326     36324     36327     36328
     36331     36329     36332     36333     36336     36334     36337     36338
     36341     36339     36342     36343     36346     36344     36347     36348
     36351     36349     36352     36353     36356     36354     36357     36358
     36361     36359     36362     36363     36366     36364     36367     36368
     36371     36369     36372     36373     36376     36374     36377     36378
     36381     36379     36382     36383     36386     36384     36387     36388
     36391     36389     36392     36393     36396     36394     36397     36398
     36401     36399     36402     36403     36406     36404     36407     36408
     36411     36409     36412     36413     36416     36414     36417     36418
     36421     36419     36422     36423     36426     36424     36427     36428
     36431     36429     36432     36433     36436     36434     36437     36438
     36441     36439     36442     36443     36446     36444     36447     36448
     36451     36449     36452     36453     36456     36454     36457     36458
     36461     36459     36462     36463     36466     36464     36467     36468
     36471     36469     36472     36473     36476     36474     36477     36478
     36481     36479     36482     36483     36486     36484     36487     36488
     36491     36489     36492     36493     36496     36494     36497     36498
     36501     36499     36502     36503     36506     36504     36507     36508
     36511     36509     36512     36513     36516     36514     36517     36518
     36521     36519     36522     36523     36526     36524     36527     36528
     36531     36529     36532     36533     36536     36534     36537     36538
     36541     36539     36542     36543     36546     36544     36547     36548
     36551     36549     36552     36553     36556     36554     36557     36558
     36561     36559     36562     36563     36566     36564     36567     36568
     36571     36569     36572     36573     36576     36574     36577     36578
     36581     36579     36582     36583     36586     36584     36587     36588
     36591     36589     36592     36593     36596     36594     36597     36598
     36601     36599     36602     36603     36606     36604     36607     36608
     36611     36609     36612     36613     36616     36614     36617     36618
     36621     36619     36622     36623     36626     36624     36627     36628
     36631     36629     36632     36633     36636     36634     36637     36638
     36641     36639     36642     36643     36646     36644     36647     36648
     36651     36649     36652     36653     36656     36654     36657     36658
     36661     36659     36662     36663     36666     36664     36667     36668
     36671     36669     36672     36673     36676     36674     36677     36678
     36681     36679     36682     36683     36686     36684     36687     36688
     36691     36689     36692     36693     36696     36694     36697     36698
     36701     36699     36702     36703     36706     36704     36707     36708
     36711     36709     36712     36713     36716     36714     36717     36718
     36721     36719     36722     36723     36726     36724     36727     36728
     36731     36729     36732     36733     36736     36734     36737     36738
     36741     36739     36742     36743     36746     36744     36747     36748
     36751     36749     36752     36753     36756     36754     36757     36758
     36761     36759     36762     36763     36766     36764     36767     36768
     36771     36769     36772     36773     36776     36774     36777     36778
     36781     36779     36782     36783     36786     36784     36787     36788
     36791     36789     36792     36793     36796     36794     36797     36798
     36801     36799     36802     36803     36806     36804     36807     36808
     36811     36809     36812     36813     36816     36814     36817     36818
     36821     36819     36822     36823     36826     36824     36827     36828
     36831     36829     36832     36833     36836     36834     36837     36838
     36841     36839     36842     36843     36846     36844     36847     36848
     36851     36849     36852     36853     36856     36854     36857     36858
     36861     36859     36862     36863     36866     36864     36867     36868
     36871     36869     36872     36873     36876     36874     36877     36878
     36881     36879     36882     36883     36886     36884     36887     36888
     36891     36889     36892     36893     36896     36894     36897     36898
     36901     36899     36902     36903     36906     36904     36907     36908
     36911     36909     36912     36913     36916     36914     36917     36918
     36921     36919     36922     36923     36926     36924     36927     36928
     36931     36929     36932     36933     36936     36934     36937     36938
     36941     36939     36942     36943     36946     36944     36947     36948
     36951     36949     36952     36953     36956     36954     36957     36958
     36961     36959     36962     36963     36966     36964     36967     36968
     36971     36969     36972     36973     36976     36974     36977     36978
     36981     36979     36982     36983     36986     36984     36987     36988
     36991     36989     36992     36993     36996     36994     36997     36998
     37001     36999     37002     37003     37006     37004     37007     37008
     37011     37009     37012     37013     37016     37014     37017     37018
     37021     37019     37022     37023     37026     37024     37027     37028
     37031     37029     37032     37033     37036     37034     37037     37038
     37041     37039     37042     37043     37046     37044     37047     37048
     37051     37049     37052     37053     37056     37054     37057     37058
     37061     37059     37062     37063     37066     37064     37067     37068
     37071     37069     37072     37073     37076     37074     37077     37078
     37081     37079     37082     37083     37086     37084     37087     37088
     37091     37089     37092     37093     37096     37094     37097     37098
     37101     37099     37102     37103     37106     37104     37107     37108
     37111     37109     37112     37113     37116     37114     37117     37118
     37121     37119     37122     37123     37126     37124     37127     37128
     37131     37129     37132     37133     37136     37134     37137     37138
     37141     37139     37142     37143     37146     37144     37147     37148
     37151     37149     37152     37153     37156     37154     37157     37158
     37161     37159     37162     37163     37166     37164     37167     37168
     37171     37169     37172     37173     37176     37174     37177     37178
     37181     37179     37182     37183     37186     37184     37187     37188
     37191     37189     37192     37193     37196     37194     37197     37198
     37201     37199     37202     37203     37206     37204     37207     37208
     37211     37209     37212     37213     37216     37214     37217     37218
     37221     37219     37222     37223     37226     37224     37227     37228
     37231     37229     37232     37233     37236     37234     37237     37238
     37241     37239     37242     37243     37246     37244     37247     37248
     37251     37249     37252     37253     37256     37254     37257     37258
     37261     37259     37262     37263     37266     37264     37267     37268
     37271     37269     37272     37273     37276     37274     37277     37278
     37281     37279     37282     37283     37286     37284     37287     37288
     37291     37289     37292     37293     37296     37294     37297     37298
     37301     37299     37302     37303     37306     37304     37307     37308
     37311     37309     37312     37313     37316     37314     37317     37318
     37321     37319     37322     37323     37326     37324     37327     37328
     37331     37329     37332     37333     37336     37334     37337     37338
     37341     37339     37342     37343     37346     37344     37347     37348
     37351     37349     37352     37353     37356     37354     37357     37358
     37361     37359     37362     37363     37366     37364     37367     37368
     37371     37369     37372     37373     37376     37374     37377     37378
     37381     37379     37382     37383     37386     37384     37387     37388
     37391     37389     37392     37393     37396     37394     37397     37398
     37401     37399     37402     37403     37406     37404     37407     37408
     37411     37409     37412     37413     37416     37414     37417     37418
     37421     37419     37422     37423     37426     37424     37427     37428
     37431     37429     37432     37433     37436     37434     37437     37438
     37441     37439     37442     37443     37446     37444     37447     37448
     37451     37449     37452     37453     37456     37454     37457     37458
     37461     37459     37462     37463     37466     37464     37467     37468
     37471     37469     37472     37473     37476     37474     37477     37478
     37481     37479     37482     37483     37486     37484     37487     37488
     37491     37489     37492     37493     37496     37494     37497     37498
     37501     37499     37502     37503     37506     37504     37507     37508
     37511     37509     37512     37513     37516     37514     37517     37518
     37521     37519     37522     37523     37526     37524     37527     37528
     37531     37529     37532     37533     37536     37534     37537     37538
     37541     37539     37542     37543     37546     37544     37547     37548
     37551     37549     37552     37553     37556     37554     37557     37558
     37561     37559     37562     37563     37566     37564     37567     37568
     37571     37569     37572     37573     37576     37574     37577     37578
     37581     37579     37582     37583     37586     37584     37587     37588
     37591     37589     37592     37593     37596     37594     37597     37598
     37601     37599     37602     37603     37606     37604     37607     37608
     37611     37609     37612     37613     37616     37614     37617     37618
     37621     37619     37622     37623     37626     37624     37627     37628
     37631     37629     37632     37633     37636     37634     37637     37638
     37641     37639     37642     37643     37646     37644     37647     37648
     37651     37649     37652     37653     37656     37654     37657     37658
     37661     37659     37662     37663     37666     37664     37667     37668
     37671     37669     37672     37673     37676     37674     37677     37678
     37681     37679     37682     37683     37686     37684     37687     37688
     37691     37689     37692     37693     37696     37694     37697     37698
     37701     37699     37702     37703     37706     37704     37707     37708
     37711     37709     37712     37713     37716     37714     37717     37718
     37721     37719     37722     37723     37726     37724     37727     37728
     37731     37729     37732     37733     37736     37734     37737     37738
     37741     37739     37742     37743     37746     37744     37747     37748
     37751     37749     37752     37753     37756     37754     37757     37758
     37761     37759     37762     37763     37766     37764     37767     37768
     37771     37769     37772     37773     37776     37774     37777     37778
     37781     37779     37782     37783     37786     37784     37787     37788
     37791     37789     37792     37793     37796     37794     37797     37798
     37801     37799     37802     37803     37806     37804     37807     37808
     37811     37809     37812     37813     37816     37814     37817     37818
     37821     37819     37822     37823     37826     37824     37827     37828
     37831     37829     37832     37833     37836     37834     37837     37838
     37841     37839     37842     37843     37846     37844     37847     37848
     37851     37849     37852     37853     37856     37854     37857     37858
     37861     37859     37862     37863     37866     37864     37867     37868
     37871     37869     37872     37873     37876     37874     37877     37878
     37881     37879     37882     37883     37886     37884     37887     37888
     37891     37889     37892     37893     37896     37894     37897     37898
     37901     37899     37902     37903     37906     37904     37907     37908
     37911     37909     37912     37913     37916     37914     37917     37918
     37921     37919     37922     37923     37926     37924     37927     37928
     37931     37929     37932     37933     37936     37934     37937     37938
     37941     37939     37942     37943     37946     37944     37947     37948
     37951     37949     37952     37953     37956     37954     37957     37958
     37961     37959     37962     37963     37966     37964     37967     37968
     37971     37969     37972     37973     37976     37974     37977     37978
     37981     37979     37982     37983     37986     37984     37987     37988
     37991     37989     37992     37993     37996     37994     37997     37998
     38001     37999     38002     38003     38006     38004     38007     38008
     38011     38009     38012     38013     38016     38014     38017     38018
     38021     38019     38022     38023     38026     38024     38027     38028
     38031     38029     38032     38033     38036     38034     38037     38038
     38041     38039     38042     38043     38046     38044     38047     38048
     38051     38049     38052     38053     38056     38054     38057     38058
     38061     38059     38062     38063     38066     38064     38067     38068
     38071     38069     38072     38073     38076     38074     38077     38078
     38081     38079     38082     38083     38086     38084     38087     38088
     38091     38089     38092     38093     38096     38094     38097     38098
     38101     38099     38102     38103     38106     38104     38107     38108
     38111     38109     38112     38113     38116     38114     38117     38118
     38121     38119     38122     38123     38126     38124     38127     38128
     38131     38129     38132     38133     38136     38134     38137     38138
     38141     38139     38142     38143     38146     38144     38147     38148
     38151     38149     38152     38153     38156     38154     38157     38158
     38161     38159     38162     38163     38166     38164     38167     38168
     38171     38169     38172     38173     38176     38174     38177     38178
     38181     38179     38182     38183     38186     38184     38187     38188
     38191     38189     38192     38193     38196     38194     38197     38198
     38201     38199     38202     38203     38206     38204     38207     38208
     38211     38209     38212     38213     38216     38214     38217     38218
     38221     38219     38222     38223     38226     38224     38227     38228
     38231     38229     38232     38233     38236     38234     38237     38238
     38241     38239     38242     38243     38246     38244     38247     38248
     38251     38249     38252     38253     38256     38254     38257     38258
     38261     38259     38262     38263     38266     38264     38267     38268
     38271     38269     38272     38273     38276     38274     38277     38278
     38281     38279     38282     38283     38286     38284     38287     38288
     38291     38289     38292     38293     38296     38294     38297     38298
     38301     38299     38302     38303     38306     38304     38307     38308
     38311     38309     38312     38313     38316     38314     38317     38318
     38321     38319     38322     38323     38326     38324     38327     38328
     38331     38329     38332     38333     38336     38334     38337     38338
     38341     38339     38342     38343     38346     38344     38347     38348
     38351     38349     38352     38353     38356     38354     38357     38358
     38361     38359     38362     38363     38366     38364     38367     38368
     38371     38369     38372     38373     38376     38374     38377     38378
     38381     38379     38382     38383     38386     38384     38387     38388
     38391     38389     38392     38393     38396     38394     38397     38398
     38401     38399     38402     38403     38406     38404     38407     38408
     38411     38409     38412     38413     38416     38414     38417     38418
     38421     38419     38422     38423     38426     38424     38427     38428
     38431     38429     38432     38433     38436     38434     38437     38438
     38441     38439     38442     38443     38446     38444     38447     38448
     38451     38449     38452     38453     38456     38454     38457     38458
     38461     38459     38462     38463     38466     38464     38467     38468
     38471     38469     38472     38473     38476     38474     38477     38478
     38481     38479     38482     38483     38486     38484     38487     38488
     38491     38489     38492     38493     38496     38494     38497     38498
     38501     38499     38502     38503     38506     38504     38507     38508
     38511     38509     38512     38513     38516     38514     38517     38518
     38521     38519     38522     38523     38526     38524     38527     38528
     38531     38529     38532     38533     38536     38534     38537     38538
     38541     38539     38542     38543     38546     38544     38547     38548
     38551     38549     38552     38553     38556     38554     38557     38558
     38561     38559     38562     38563     38566     38564     38567     38568
     38571     38569     38572     38573     38576     38574     38577     38578
     38581     38579     38582     38583     38586     38584     38587     38588
     38591     38589     38592     38593     38596     38594     38597     38598
     38601     38599     38602     38603     38606     38604     38607     38608
     38611     38609     38612     38613     38616     38614     38617     38618
     38621     38619     38622     38623     38626     38624     38627     38628
     38631     38629     38632     38633     38636     38634     38637     38638
     38641     38639     38642     38643     38646     38644     38647     38648
     38651     38649     38652     38653     38656     38654     38657     38658
     38661     38659     38662     38663     38666     38664     38667     38668
     38671     38669     38672     38673     38676     38674     38677     38678
     38681     38679     38682     38683     38686     38684     38687     38688
     38691     38689     38692     38693     38696     38694     38697     38698
     38701     38699     38702     38703     38706     38704     38707     38708
     38711     38709     38712     38713     38716     38714     38717     38718
     38721     38719     38722     38723     38726     38724     38727     38728
     38731     38729     38732     38733     38736     38734     38737     38738
     38741     38739     38742     38743     38746     38744     38747     38748
     38751     38749     38752     38753     38756     38754     38757     38758
     38761     38759     38762     38763     38766     38764     38767     38768
     38771     38769     38772     38773     38776     38774     38777     38778
     38781     38779     38782     38783     38786     38784     38787     38788
     38791     38789     38792     38793     38796     38794     38797     38798
     38801     38799     38802     38803     38806     38804     38807     38808
     38811     38809     38812     38813     38816     38814     38817     38818
     38821     38819     38822     38823     38826     38824     38827     38828
     38831     38829     38832     38833     38836     38834     38837     38838
     38841     38839     38842     38843     38846     38844     38847     38848
     38851     38849     38852     38853     38856     38854     38857     38858
     38861     38859     38862     38863     38866     38864     38867     38868
     38871     38869     38872     38873     38876     38874     38877     38878
     38881     38879     38882     38883     38886     38884     38887     38888
     38891     38889     38892     38893     38896     38894     38897     38898
     38901     38899     38902     38903     38906     38904     38907     38908
     38911     38909     38912     38913     38916     38914     38917     38918
     38921     38919     38922     38923     38926     38924     38927     38928
     38931     38929     38932     38933     38936     38934     38937     38938
     38941     38939     38942     38943     38946     38944     38947     38948
     38951     38949     38952     38953     38956     38954     38957     38958
     38961     38959     38962     38963     38966     38964     38967     38968
     38971     38969     38972     38973     38976     38974     38977     38978
     38981     38979     38982     38983     38986     38984     38987     38988
     38991     38989     38992     38993     38996     38994     38997     38998
     39001     38999     39002     39003     39006     39004     39007     39008
     39011     39009     39012     39013     39016     39014     39017     39018
     39021     39019     39022     39023     39026     39024     39027     39028
     39031     39029     39032     39033     39036     39034     39037     39038
     39041     39039     39042     39043     39046     39044     39047     39048
     39051     39049     39052     39053     39056     39054     39057     39058
     39061     39059     39062     39063     39066     39064     39067     39068
     39071     39069     39072     39073     39076     39074     39077     39078
     39081     39079     39082     39083     39086     39084     39087     39088
     39091     39089     39092     39093     39096     39094     39097     39098
     39101     39099     39102     39103     39106     39104     39107     39108
     39111     39109     39112     39113     39116     39114     39117     39118
     39121     39119     39122     39123     39126     39124     39127     39128
     39131     39129     39132     39133     39136     39134     39137     39138
     39141     39139     39142     39143     39146     39144     39147     39148
     39151     39149     39152     39153     39156     39154     39157     39158
     39161     39159     39162     39163     39166     39164     39167     39168
     39171     39169     39172     39173     39176     39174     39177     39178
     39181     39179     39182     39183     39186     39184     39187     39188
     39191     39189     39192     39193     39196     39194     39197     39198
     39201     39199     39202     39203     39206     39204     39207     39208
     39211     39209     39212     39213     39216     39214     39217     39218
     39221     39219     39222     39223     39226     39224     39227     39228
     39231     39229     39232     39233     39236     39234     39237     39238
     39241     39239     39242     39243     39246     39244     39247     39248
     39251     39249     39252     39253     39256     39254     39257     39258
     39261     39259     39262     39263     39266     39264     39267     39268
     39271     39269     39272     39273     39276     39274     39277     39278
     39281     39279     39282     39283     39286     39284     39287     39288
     39291     39289     39292     39293     39296     39294     39297     39298
     39301     39299     39302     39303     39306     39304     39307     39308
     39311     39309     39312     39313     39316     39314     39317     39318
     39321     39319     39322     39323     39326     39324     39327     39328
     39331     39329     39332     39333     39336     39334     39337     39338
     39341     39339     39342     39343     39346     39344     39347     39348
     39351     39349     39352     39353     39356     39354     39357     39358
     39361     39359     39362     39363     39366     39364     39367     39368
     39371     39369     39372     39373     39376     39374     39377     39378
     39381     39379     39382     39383     39386     39384     39387     39388
     39391     39389     39392     39393     39396     39394     39397     39398
     39401     39399     39402     39403     39406     39404     39407     39408
     39411     39409     39412     39413     39416     39414     39417     39418
     39421     39419     39422     39423     39426     39424     39427     39428
     39431     39429     39432     39433     39436     39434     39437     39438
     39441     39439     39442     39443     39446     39444     39447     39448
     39451     39449     39452     39453     39456     39454     39457     39458
     39461     39459     39462     39463     39466     39464     39467     39468
     39471     39469     39472     39473     39476     39474     39477     39478
     39481     39479     39482     39483     39486     39484     39487     39488
     39491     39489     39492     39493     39496     39494     39497     39498
     39501     39499     39502     39503     39506     39504     39507     39508
     39511     39509     39512     39513     39516     39514     39517     39518
     39521     39519     39522     39523     39526     39524     39527     39528
     39531     39529     39532     39533     39536     39534     39537     39538
     39541     39539     39542     39543     39546     39544     39547     39548
     39551     39549     39552     39553     39556     39554     39557     39558
     39561     39559     39562     39563     39566     39564     39567     39568
     39571     39569     39572     39573     39576     39574     39577     39578
     39581     39579     39582     39583     39586     39584     39587     39588
     39591     39589     39592     39593     39596     39594     39597     39598
     39601     39599     39602     39603     39606     39604     39607     39608
     39611     39609     39612     39613     39616     39614     39617     39618
     39621     39619     39622     39623     39626     39624     39627     39628
     39631     39629     39632     39633     39636     39634     39637     39638
     39641     39639     39642     39643     39646     39644     39647     39648
     39651     39649     39652     39653     39656     39654     39657     39658
     39661     39659     39662     39663     39666     39664     39667     39668
     39671     39669     39672     39673     39676     39674     39677     39678
     39681     39679     39682     39683     39686     39684     39687     39688
     39691     39689     39692     39693     39696     39694     39697     39698
     39701     39699     39702     39703     39706     39704     39707     39708
     39711     39709     39712     39713     39716     39714     39717     39718
     39721     39719     39722     39723     39726     39724     39727     39728
     39731     39729     39732     39733     39736     39734     39737     39738
     39741     39739     39742     39743     39746     39744     39747     39748
     39751     39749     39752     39753     39756     39754     39757     39758
     39761     39759     39762     39763     39766     39764     39767     39768
     39771     39769     39772     39773     39776     39774     39777     39778
     39781     39779     39782     39783     39786     39784     39787     39788
     39791     39789     39792     39793     39796     39794     39797     39798
     39801     39799     39802     39803     39806     39804     39807     39808
     39811     39809     39812     39813     39816     39814     39817     39818
     39821     39819     39822     39823     39826     39824     39827     39828
     39831     39829     39832     39833     39836     39834     39837     39838
     39841     39839     39842     39843     39846     39844     39847     39848
     39851     39849     39852     39853     39856     39854     39857     39858
     39861     39859     39862     39863     39866     39864     39867     39868
     39871     39869     39872     39873     39876     39874     39877     39878
     39881     39879     39882     39883     39886     39884     39887     39888
     39891     39889     39892     39893     39896     39894     39897     39898
     39901     39899     39902     39903     39906     39904     39907     39908
     39911     39909     39912     39913     39916     39914     39917     39918
     39921     39919     39922     39923     39926     39924     39927     39928
     39931     39929     39932     39933     39936     39934     39937     39938
     39941     39939     39942     39943     39946     39944     39947     39948
     39951     39949     39952     39953     39956     39954     39957     39958
     39961     39959     39962     39963     39966     39964     39967     39968
     39971     39969     39972     39973     39976     39974     39977     39978
     39981     39979     39982     39983     39986     39984     39987     39988
     39991     39989     39992     39993     39996     39994     39997     39998
     40001     39999     40002     40003     40006     40004     40007     40008
     40011     40009     40012     40013     40016     40014     40017     40018
     40021     40019     40022     40023     40026     40024     40027     40028
     40031     40029     40032     40033     40036     40034     40037     40038
     40041     40039     40042     40043     40046     40044     40047     40048
     40051     40049     40052     40053     40056     40054     40057     40058
     40061     40059     40062     40063     40066     40064     40067     40068
     40071     40069     40072     40073     40076     40074     40077     40078
     40081     40079     40082     40083     40086     40084     40087     40088
     40091     40089     40092     40093     40096     40094     40097     40098
     40101     40099     40102     40103     40106     40104     40107     40108
     40111     40109     40112     40113     40116     40114     40117     40118
     40121     40119     40122     40123     40126     40124     40127     40128
     40131     40129     40132     40133     40136     40134     40137     40138
     40141     40139     40142     40143     40146     40144     40147     40148
     40151     40149     40152     40153     40156     40154     40157     40158
     40161     40159     40162     40163     40166     40164     40167     40168
     40171     40169     40172     40173     40176     40174     40177     40178
     40181     40179     40182     40183     40186     40184     40187     40188
     40191     40189     40192     40193     40196     40194     40197     40198
     40201     40199     40202     40203     40206     40204     40207     40208
     40211     40209     40212     40213     40216     40214     40217     40218
     40221     40219     40222     40223     40226     40224     40227     40228
     40231     40229     40232     40233     40236     40234     40237     40238
     40241     40239     40242     40243     40246     40244     40247     40248
     40251     40249     40252     40253     40256     40254     40257     40258
     40261     40259     40262     40263     40266     40264     40267     40268
     40271     40269     40272     40273     40276     40274     40277     40278
     40281     40279     40282     40283     40286     40284     40287     40288
     40291     40289     40292     40293     40296     40294     40297     40298
     40301     40299     40302     40303     40306     40304     40307     40308
     40311     40309     40312     40313     40316     40314     40317     40318
     40321     40319     40322     40323     40326     40324     40327     40328
     40331     40329     40332     40333     40336     40334     40337     40338
     40341     40339     40342     40343     40346     40344     40347     40348
     40351     40349     40352     40353     40356     40354     40357     40358
     40361     40359     40362     40363     40366     40364     40367     40368
     40371     40369     40372     40373     40376     40374     40377     40378
     40381     40379     40382     40383     40386     40384     40387     40388
     40391     40389     40392     40393     40396     40394     40397     40398
     40401     40399     40402     40403     40406     40404     40407     40408
     40411     40409     40412     40413     40416     40414     40417     40418
     40421     40419     40422     40423     40426     40424     40427     40428
     40431     40429     40432     40433     40436     40434     40437     40438
     40441     40439     40442     40443     40446     40444     40447     40448
     40451     40449     40452     40453     40456     40454     40457     40458
     40461     40459     40462     40463     40466     40464     40467     40468
     40471     40469     40472     40473     40476     40474     40477     40478
     40481     40479     40482     40483     40486     40484     40487     40488
     40491     40489     40492     40493     40496     40494     40497     40498
     40501     40499     40502     40503     40506     40504     40507     40508
     40511     40509     40512     40513     40516     40514     40517     40518
     40521     40519     40522     40523     40526     40524     40527     40528
     40531     40529     40532     40533     40536     40534     40537     40538
     40541     40539     40542     40543     40546     40544     40547     40548
     40551     40549     40552     40553     40556     40554     40557     40558
     40561     40559     40562     40563     40566     40564     40567     40568
     40571     40569     40572     40573     40576     40574     40577     40578
     40581     40579     40582     40583     40586     40584     40587     40588
     40591     40589     40592     40593     40596     40594     40597     40598
     40601     40599     40602     40603     40606     40604     40607     40608
     40611     40609     40612     40613     40616     40614     40617     40618
     40621     40619     40622     40623     40626     40624     40627     40628
     40631     40629     40632     40633     40636     40634     40637     40638
     40641     40639     40642     40643     40646     40644     40647     40648
     40651     40649     40652     40653     40656     40654     40657     40658
     40661     40659     40662     40663     40666     40664     40667     40668
     40671     40669     40672     40673     40676     40674     40677     40678
     40681     40679     40682     40683     40686     40684     40687     40688
     40691     40689     40692     40693     40696     40694     40697     40698
     40701     40699     40702     40703     40706     40704     40707     40708
     40711     40709     40712     40713     40716     40714     40717     40718
     40721     40719     40722     40723     40726     40724     40727     40728
     40731     40729     40732     40733     40736     40734     40737     40738
     40741     40739     40742     40743     40746     40744     40747     40748
     40751     40749     40752     40753     40756     40754     40757     40758
     40761     40759     40762     40763     40766     40764     40767     40768
     40771     40769     40772     40773     40776     40774     40777     40778
     40781     40779     40782     40783     40786     40784     40787     40788
     40791     40789     40792     40793     40796     40794     40797     40798
     40801     40799     40802     40803     40806     40804     40807     40808
     40811     40809     40812     40813     40816     40814     40817     40818
     40821     40819     40822     40823     40826     40824     40827     40828
     40831     40829     40832     40833     40836     40834     40837     40838
     40841     40839     40842     40843     40846     40844     40847     40848
     40851     40849     40852     40853     40856     40854     40857     40858
     40861     40859     40862     40863     40866     40864     40867     40868
     40871     40869     40872     40873     40876     40874     40877     40878
     40881     40879     40882     40883     40886     40884     40887     40888
     40891     40889     40892     40893     40896     40894     40897     40898
     40901     40899     40902     40903     40906     40904     40907     40908
     40911     40909     40912     40913     40916     40914     40917     40918
     40921     40919     40922     40923     40926     40924     40927     40928
     40931     40929     40932     40933     40936     40934     40937     40938
     40941     40939     40942     40943     40946     40944     40947     40948
     40951     40949     40952     40953     40956     40954     40957     40958
     40961     40959     40962     40963     40966     40964     40967     40968
     40971     40969     40972     40973     40976     40974     40977     40978
     40981     40979     40982     40983     40986     40984     40987     40988
     40991     40989     40992     40993     40996     40994     40997     40998
     41001     40999     41002     41003     41006     41004     41007     41008
     41011     41009     41012     41013     41016     41014     41017     41018
     41021     41019     41022     41023     41026     41024     41027     41028
     41031     41029     41032     41033     41036     41034     41037     41038
     41041     41039     41042     41043     41046     41044     41047     41048
     41051     41049     41052     41053     41056     41054     41057     41058
     41061     41059     41062     41063     41066     41064     41067     41068
     41071     41069     41072     41073     41076     41074     41077     41078
     41081     41079     41082     41083     41086     41084     41087     41088
     41091     41089     41092     41093     41096     41094     41097     41098
     41101     41099     41102     41103     41106     41104     41107     41108
     41111     41109     41112     41113     41116     41114     41117     41118
     41121     41119     41122     41123     41126     41124     41127     41128
     41131     41129     41132     41133     41136     41134     41137     41138
     41141     41139     41142     41143     41146     41144     41147     41148
     41151     41149     41152     41153     41156     41154     41157     41158
     41161     41159     41162     41163     41166     41164     41167     41168
     41171     41169     41172     41173     41176     41174     41177     41178
     41181     41179     41182     41183     41186     41184     41187     41188
     41191     41189     41192     41193     41196     41194     41197     41198
     41201     41199     41202     41203     41206     41204     41207     41208
     41211     41209     41212     41213     41216     41214     41217     41218
     41221     41219     41222     41223     41226     41224     41227     41228
     41231     41229     41232     41233     41236     41234     41237     41238
     41241     41239     41242     41243     41246     41244     41247     41248
     41251     41249     41252     41253     41256     41254     41257     41258
     41261     41259     41262     41263     41266     41264     41267     41268
     41271     41269     41272     41273     41276     41274     41277     41278
     41281     41279     41282     41283     41286     41284     41287     41288
     41291     41289     41292     41293     41296     41294     41297     41298
     41301     41299     41302     41303     41306     41304     41307     41308
     41311     41309     41312     41313     41316     41314     41317     41318
     41321     41319     41322     41323     41326     41324     41327     41328
     41331     41329     41332     41333     41336     41334     41337     41338
     41341     41339     41342     41343     41346     41344     41347     41348
     41351     41349     41352     41353     41356     41354     41357     41358
     41361     41359     41362     41363     41366     41364     41367     41368
     41371     41369     41372     41373     41376     41374     41377     41378
     41381     41379     41382     41383     41386     41384     41387     41388
     41391     41389     41392     41393     41396     41394     41397     41398
     41401     41399     41402     41403     41406     41404     41407     41408
     41411     41409     41412     41413     41416     41414     41417     41418
     41421     41419     41422     41423     41426     41424     41427     41428
     41431     41429     41432     41433     41436     41434     41437     41438
     41441     41439     41442     41443     41446     41444     41447     41448
     41451     41449     41452     41453     41456     41454     41457     41458
     41461     41459     41462     41463     41466     41464     41467     41468
     41471     41469     41472     41473     41476     41474     41477     41478
     41481     41479     41482     41483     41486     41484     41487     41488
     41491     41489     41492     41493     41496     41494     41497     41498
     41501     41499     41502     41503     41506     41504     41507     41508
     41511     41509     41512     41513     41516     41514     41517     41518
     41521     41519     41522     41523     41526     41524     41527     41528
     41531     41529     41532     41533     41536     41534     41537     41538
     41541     41539     41542     41543     41546     41544     41547     41548
     41551     41549     41552     41553     41556     41554     41557     41558
     41561     41559     41562     41563     41566     41564     41567     41568
     41571     41569     41572     41573     41576     41574     41577     41578
     41581     41579     41582     41583     41586     41584     41587     41588
     41591     41589     41592     41593     41596     41594     41597     41598
     41601     41599     41602     41603     41606     41604     41607     41608
     41611     41609     41612     41613     41616     41614     41617     41618
     41621     41619     41622     41623     41626     41624     41627     41628
     41631     41629     41632     41633     41636     41634     41637     41638
     41641     41639     41642     41643     41646     41644     41647     41648
     41651     41649     41652     41653     41656     41654     41657     41658
     41661     41659     41662     41663     41666     41664     41667     41668
     41671     41669     41672     41673     41676     41674     41677     41678
     41681     41679     41682     41683     41686     41684     41687     41688
     41691     41689     41692     41693     41696     41694     41697     41698
     41701     41699     41702     41703     41706     41704     41707     41708
     41711     41709     41712     41713     41716     41714     41717     41718
     41721     41719     41722     41723     41726     41724     41727     41728
     41731     41729     41732     41733     41736     41734     41737     41738
     41741     41739     41742     41743     41746     41744     41747     41748
     41751     41749     41752     41753     41756     41754     41757     41758
     41761     41759     41762     41763     41766     41764     41767     41768
     41771     41769     41772     41773     41776     41774     41777     41778
     41781     41779     41782     41783     41786     41784     41787     41788
     41791     41789     41792     41793     41796     41794     41797     41798
     41801     41799     41802     41803     41806     41804     41807     41808
     41811     41809     41812     41813     41816     41814     41817     41818
     41821     41819     41822     41823     41826     41824     41827     41828
     41831     41829     41832     41833     41836     41834     41837     41838
     41841     41839     41842     41843     41846     41844     41847     41848
     41851     41849     41852     41853     41856     41854     41857     41858
     41861     41859     41862     41863     41866     41864     41867     41868
     41871     41869     41872     41873     41876     41874     41877     41878
     41881     41879     41882     41883     41886     41884     41887     41888
     41891     41889     41892     41893     41896     41894     41897     41898
     41901     41899     41902     41903     41906     41904     41907     41908
     41911     41909     41912     41913     41916     41914     41917     41918
     41921     41919     41922     41923     41926     41924     41927     41928
     41931     41929     41932     41933     41936     41934     41937     41938
     41941     41939     41942     41943     41946     41944     41947     41948
     41951     41949     41952     41953     41956     41954     41957     41958
     41961     41959     41962     41963     41966     41964     41967     41968
     41971     41969     41972     41973     41976     41974     41977     41978
     41981     41979     41982     41983     41986     41984     41987     41988
     41991     41989     41992     41993     41996     41994     41997     41998
     42001     41999     42002     42003     42006     42004     42007     42008
     42011     42009     42012     42013     42016     42014     42017     42018
     42021     42019     42022     42023     42026     42024     42027     42028
     42031     42029     42032     42033     42036     42034     42037     42038
     42041     42039     42042     42043     42046     42044     42047     42048
     42051     42049     42052     42053     42056     42054     42057     42058
     42061     42059     42062     42063     42066     42064     42067     42068
     42071     42069     42072     42073     42076     42074     42077     42078
     42081     42079     42082     42083     42086     42084     42087     42088
     42091     42089     42092     42093     42096     42094     42097     42098
     42101     42099     42102     42103     42106     42104     42107     42108
     42111     42109     42112     42113     42116     42114     42117     42118
     42121     42119     42122     42123     42126     42124     42127     42128
     42131     42129     42132     42133     42136     42134     42137     42138
     42141     42139     42142     42143     42146     42144     42147     42148
     42151     42149     42152     42153     42156     42154     42157     42158
     42161     42159     42162     42163     42166     42164     42167     42168
     42171     42169     42172     42173     42176     42174     42177     42178
     42181     42179     42182     42183     42186     42184     42187     42188
     42191     42189     42192     42193     42196     42194     42197     42198
     42201     42199     42202     42203     42206     42204     42207     42208
     42211     42209     42212     42213     42216     42214     42217     42218
     42221     42219     42222     42223     42226     42224     42227     42228
     42231     42229     42232     42233     42236     42234     42237     42238
     42241     42239     42242     42243     42246     42244     42247     42248
     42251     42249     42252     42253     42256     42254     42257     42258
     42261     42259     42262     42263     42266     42264     42267     42268
     42271     42269     42272     42273     42276     42274     42277     42278
     42281     42279     42282     42283     42286     42284     42287     42288
     42291     42289     42292     42293     42296     42294     42297     42298
     42301     42299     42302     42303     42306     42304     42307     42308
     42311     42309     42312     42313     42316     42314     42317     42318
     42321     42319     42322     42323     42326     42324     42327     42328
     42331     42329     42332     42333     42336     42334     42337     42338
     42341     42339     42342     42343     42346     42344     42347     42348
     42351     42349     42352     42353     42356     42354     42357     42358
     42361     42359     42362     42363     42366     42364     42367     42368
     42371     42369     42372     42373     42376     42374     42377     42378
     42381     42379     42382     42383     42386     42384     42387     42388
     42391     42389     42392     42393     42396     42394     42397     42398
     42401     42399     42402     42403     42406     42404     42407     42408
     42411     42409     42412     42413     42416     42414     42417     42418
     42421     42419     42422     42423     42426     42424     42427     42428
     42431     42429     42432     42433     42436     42434     42437     42438
     42441     42439     42442     42443     42446     42444     42447     42448
     42451     42449     42452     42453     42456     42454     42457     42458
     42461     42459     42462     42463     42466     42464     42467     42468
     42471     42469     42472     42473     42476     42474     42477     42478
     42481     42479     42482     42483     42486     42484     42487     42488
     42491     42489     42492     42493     42496     42494     42497     42498
     42501     42499     42502     42503     42506     42504     42507     42508
     42511     42509     42512     42513     42516     42514     42517     42518
     42521     42519     42522     42523     42526     42524     42527     42528
     42531     42529     42532     42533     42536     42534     42537     42538
     42541     42539     42542     42543     42546     42544     42547     42548
     42551     42549     42552     42553     42556     42554     42557     42558
     42561     42559     42562     42563     42566     42564     42567     42568
     42571     42569     42572     42573     42576     42574     42577     42578
     42581     42579     42582     42583     42586     42584     42587     42588
     42591     42589     42592     42593     42596     42594     42597     42598
     42601     42599     42602     42603     42606     42604     42607     42608
     42611     42609     42612     42613     42616     42614     42617     42618
     42621     42619     42622     42623     42626     42624     42627     42628
     42631     42629     42632     42633     42636     42634     42637     42638
     42641     42639     42642     42643     42646     42644     42647     42648
     42651     42649     42652     42653     42656     42654     42657     42658
     42661     42659     42662     42663     42666     42664     42667     42668
     42671     42669     42672     42673     42676     42674     42677     42678
     42681     42679     42682     42683     42686     42684     42687     42688
     42691     42689     42692     42693     42696     42694     42697     42698
     42701     42699     42702     42703     42706     42704     42707     42708
     42711     42709     42712     42713     42716     42714     42717     42718
     42721     42719     42722     42723     42726     42724     42727     42728
     42731     42729     42732     42733     42736     42734     42737     42738
     42741     42739     42742     42743     42746     42744     42747     42748
     42751     42749     42752     42753     42756     42754     42757     42758
     42761     42759     42762     42763     42766     42764     42767     42768
     42771     42769     42772     42773     42776     42774     42777     42778
     42781     42779     42782     42783     42786     42784     42787     42788
     42791     42789     42792     42793     42796     42794     42797     42798
     42801     42799     42802     42803     42806     42804     42807     42808
     42811     42809     42812     42813     42816     42814     42817     42818
     42821     42819     42822     42823     42826     42824     42827     42828
     42831     42829     42832     42833     42836     42834     42837     42838
     42841     42839     42842     42843     42846     42844     42847     42848
     42851     42849     42852     42853     42856     42854     42857     42858
     42861     42859     42862     42863     42866     42864     42867     42868
     42871     42869     42872     42873     42876     42874     42877     42878
     42881     42879     42882     42883     42886     42884     42887     42888
     42891     42889     42892     42893     42896     42894     42897     42898
     42901     42899     42902     42903     42906     42904     42907     42908
     42911     42909     42912     42913     42916     42914     42917     42918
     42921     42919     42922     42923     42926     42924     42927     42928
     42931     42929     42932     42933     42936     42934     42937     42938
     42941     42939     42942     42943     42946     42944     42947     42948
     42951     42949     42952     42953     42956     42954     42957     42958
     42961     42959     42962     42963     42966     42964     42967     42968
     42971     42969     42972     42973     42976     42974     42977     42978
     42981     42979     42982     42983     42986     42984     42987     42988
     42991     42989     42992     42993     42996     42994     42997     42998
     43001     42999     43002     43003     43006     43004     43007     43008
     43011     43009     43012     43013     43016     43014     43017     43018
     43021     43019     43022     43023     43026     43024     43027     43028
     43031     43029     43032     43033     43036     43034     43037     43038
     43041     43039     43042     43043     43046     43044     43047     43048
     43051     43049     43052     43053     43056     43054     43057     43058
     43061     43059     43062     43063     43066     43064     43067     43068
     43071     43069     43072     43073     43076     43074     43077     43078
     43081     43079     43082     43083     43086     43084     43087     43088
     43091     43089     43092     43093     43096     43094     43097     43098
     43101     43099     43102     43103     43106     43104     43107     43108
     43111     43109     43112     43113     43116     43114     43117     43118
     43121     43119     43122     43123     43126     43124     43127     43128
     43131     43129     43132     43133     43136     43134     43137     43138
     43141     43139     43142     43143     43146     43144     43147     43148
     43151     43149     43152     43153     43156     43154     43157     43158
     43161     43159     43162     43163     43166     43164     43167     43168
     43171     43169     43172     43173     43176     43174     43177     43178
     43181     43179     43182     43183     43186     43184     43187     43188
     43191     43189     43192     43193     43196     43194     43197     43198
     43201     43199     43202     43203     43206     43204     43207     43208
     43211     43209     43212     43213     43216     43214     43217     43218
     43221     43219     43222     43223     43226     43224     43227     43228
     43231     43229     43232     43233     43236     43234     43237     43238
     43241     43239     43242     43243     43246     43244     43247     43248
     43251     43249     43252     43253     43256     43254     43257     43258
     43261     43259     43262     43263     43266     43264     43267     43268
     43271     43269     43272     43273     43276     43274     43277     43278
     43281     43279     43282     43283     43286     43284     43287     43288
     43291     43289     43292     43293     43296     43294     43297     43298
     43301     43299     43302     43303     43306     43304     43307     43308
     43311     43309     43312     43313     43316     43314     43317     43318
     43321     43319     43322     43323     43326     43324     43327     43328
     43331     43329     43332     43333     43336     43334     43337     43338
     43341     43339     43342     43343     43346     43344     43347     43348
     43351     43349     43352     43353     43356     43354     43357     43358
     43361     43359     43362     43363     43366     43364     43367     43368
     43371     43369     43372     43373     43376     43374     43377     43378
     43381     43379     43382     43383     43386     43384     43387     43388
     43391     43389     43392     43393     43396     43394     43397     43398
     43401     43399     43402     43403     43406     43404     43407     43408
     43411     43409     43412     43413     43416     43414     43417     43418
     43421     43419     43422     43423     43426     43424     43427     43428
     43431     43429     43432     43433     43436     43434     43437     43438
     43441     43439     43442     43443     43446     43444     43447     43448
     43451     43449     43452     43453     43456     43454     43457     43458
     43461     43459     43462     43463     43466     43464     43467     43468
     43471     43469     43472     43473     43476     43474     43477     43478
     43481     43479     43482     43483     43486     43484     43487     43488
     43491     43489     43492     43493     43496     43494     43497     43498
     43501     43499     43502     43503     43506     43504     43507     43508
     43511     43509     43512     43513     43516     43514     43517     43518
     43521     43519     43522     43523     43526     43524     43527     43528
     43531     43529     43532     43533     43536     43534     43537     43538
     43541     43539     43542     43543     43546     43544     43547     43548
     43551     43549     43552     43553     43556     43554     43557     43558
     43561     43559     43562     43563     43566     43564     43567     43568
     43571     43569     43572     43573     43576     43574     43577     43578
     43581     43579     43582     43583     43586     43584     43587     43588
     43591     43589     43592     43593     43596     43594     43597     43598
     43601     43599     43602     43603     43606     43604     43607     43608
     43611     43609     43612     43613     43616     43614     43617     43618
     43621     43619     43622     43623     43626     43624     43627     43628
     43631     43629     43632     43633     43636     43634     43637     43638
     43641     43639     43642     43643     43646     43644     43647     43648
     43651     43649     43652     43653     43656     43654     43657     43658
     43661     43659     43662     43663     43666     43664     43667     43668
     43671     43669     43672     43673     43676     43674     43677     43678
     43681     43679     43682     43683     43686     43684     43687     43688
     43691     43689     43692     43693     43696     43694     43697     43698
     43701     43699     43702     43703     43706     43704     43707     43708
     43711     43709     43712     43713     43716     43714     43717     43718
     43721     43719     43722     43723     43726     43724     43727     43728
     43731     43729     43732     43733     43736     43734     43737     43738
     43741     43739     43742     43743     43746     43744     43747     43748
     43751     43749     43752     43753     43756     43754     43757     43758
     43761     43759     43762     43763     43766     43764     43767     43768
     43771     43769     43772     43773     43776     43774     43777     43778
     43781     43779     43782     43783     43786     43784     43787     43788
     43791     43789     43792     43793     43796     43794     43797     43798
     43801     43799     43802     43803     43806     43804     43807     43808
     43811     43809     43812     43813     43816     43814     43817     43818
     43821     43819     43822     43823     43826     43824     43827     43828
     43831     43829     43832     43833     43836     43834     43837     43838
     43841     43839     43842     43843     43846     43844     43847     43848
     43851     43849     43852     43853     43856     43854     43857     43858
     43861     43859     43862     43863     43866     43864     43867     43868
     43871     43869     43872     43873     43876     43874     43877     43878
     43881     43879     43882     43883     43886     43884     43887     43888
     43891     43889     43892     43893     43896     43894     43897     43898
     43901     43899     43902     43903     43906     43904     43907     43908
     43911     43909     43912     43913     43916     43914     43917     43918
     43921     43919     43922     43923     43926     43924     43927     43928
     43931     43929     43932     43933     43936     43934     43937     43938
     43941     43939     43942     43943     43946     43944     43947     43948
     43951     43949     43952     43953     43956     43954     43957     43958
     43961     43959     43962     43963     43966     43964     43967     43968
     43971     43969     43972     43973     43976     43974     43977     43978
     43981     43979     43982     43983     43986     43984     43987     43988
     43991     43989     43992     43993     43996     43994     43997     43998
     44001     43999     44002     44003     44006     44004     44007     44008
     44011     44009     44012     44013     44016     44014     44017     44018
     44021     44019     44022     44023     44026     44024     44027     44028
     44031     44029     44032     44033     44036     44034     44037     44038
     44041     44039     44042     44043     44046     44044     44047     44048
     44051     44049     44052     44053     44056     44054     44057     44058
     44061     44059     44062     44063     44066     44064     44067     44068
     44071     44069     44072     44073     44076     44074     44077     44078
     44081     44079     44082     44083     44086     44084     44087     44088
     44091     44089     44092     44093     44096     44094     44097     44098
     44101     44099     44102     44103     44106     44104     44107     44108
     44111     44109     44112     44113     44116     44114     44117     44118
     44121     44119     44122     44123     44126     44124     44127     44128
     44131     44129     44132     44133     44136     44134     44137     44138
     44141     44139     44142     44143     44146     44144     44147     44148
     44151     44149     44152     44153     44156     44154     44157     44158
     44161     44159     44162     44163     44166     44164     44167     44168
     44171     44169     44172     44173     44176     44174     44177     44178
     44181     44179     44182     44183     44186     44184     44187     44188
     44191     44189     44192     44193     44196     44194     44197     44198
     44201     44199     44202     44203     44206     44204     44207     44208
     44211     44209     44212     44213     44216     44214     44217     44218
     44221     44219     44222     44223     44226     44224     44227     44228
     44231     44229     44232     44233     44236     44234     44237     44238
     44241     44239     44242     44243     44246     44244     44247     44248
     44251     44249     44252     44253     44256     44254     44257     44258
     44261     44259     44262     44263     44266     44264     44267     44268
     44271     44269     44272     44273     44276     44274     44277     44278
     44281     44279     44282     44283     44286     44284     44287     44288
     44291     44289     44292     44293     44296     44294     44297     44298
     44301     44299     44302     44303     44306     44304     44307     44308
     44311     44309     44312     44313     44316     44314     44317     44318
     44321     44319     44322     44323     44326     44324     44327     44328
     44331     44329     44332     44333     44336     44334     44337     44338
     44341     44339     44342     44343     44346     44344     44347     44348
     44351     44349     44352     44353     44356     44354     44357     44358
     44361     44359     44362     44363     44366     44364     44367     44368
     44371     44369     44372     44373     44376     44374     44377     44378
     44381     44379     44382     44383     44386     44384     44387     44388
     44391     44389     44392     44393     44396     44394     44397     44398
     44401     44399     44402     44403     44406     44404     44407     44408
     44411     44409     44412     44413     44416     44414     44417     44418
     44421     44419     44422     44423     44426     44424     44427     44428
     44431     44429     44432     44433     44436     44434     44437     44438
     44441     44439     44442     44443     44446     44444     44447     44448
     44451     44449     44452     44453     44456     44454     44457     44458
     44461     44459     44462     44463     44466     44464     44467     44468
     44471     44469     44472     44473     44476     44474     44477     44478
     44481     44479     44482     44483     44486     44484     44487     44488
     44491     44489     44492     44493     44496     44494     44497     44498
     44501     44499     44502     44503     44506     44504     44507     44508
     44511     44509     44512     44513     44516     44514     44517     44518
     44521     44519     44522     44523     44526     44524     44527     44528
     44531     44529     44532     44533     44536     44534     44537     44538
     44541     44539     44542     44543     44546     44544     44547     44548
     44551     44549     44552     44553     44556     44554     44557     44558
     44561     44559     44562     44563     44566     44564     44567     44568
     44571     44569     44572     44573     44576     44574     44577     44578
     44581     44579     44582     44583     44586     44584     44587     44588
     44591     44589     44592     44593     44596     44594     44597     44598
     44601     44599     44602     44603     44606     44604     44607     44608
     44611     44609     44612     44613     44616     44614     44617     44618
     44621     44619     44622     44623     44626     44624     44627     44628
     44631     44629     44632     44633     44636     44634     44637     44638
     44641     44639     44642     44643     44646     44644     44647     44648
     44651     44649     44652     44653     44656     44654     44657     44658
     44661     44659     44662     44663     44666     44664     44667     44668
     44671     44669     44672     44673     44676     44674     44677     44678
     44681     44679     44682     44683     44686     44684     44687     44688
     44691     44689     44692     44693     44696     44694     44697     44698
     44701     44699     44702     44703     44706     44704     44707     44708
     44711     44709     44712     44713     44716     44714     44717     44718
     44721     44719     44722     44723     44726     44724     44727     44728
     44731     44729     44732     44733     44736     44734     44737     44738
     44741     44739     44742     44743     44746     44744     44747     44748
     44751     44749     44752     44753     44756     44754     44757     44758
     44761     44759     44762     44763     44766     44764     44767     44768
     44771     44769     44772     44773     44776     44774     44777     44778
     44781     44779     44782     44783     44786     44784     44787     44788
     44791     44789     44792     44793     44796     44794     44797     44798
     44801     44799     44802     44803     44806     44804     44807     44808
     44811     44809     44812     44813     44816     44814     44817     44818
     44821     44819     44822     44823     44826     44824     44827     44828
     44831     44829     44832     44833     44836     44834     44837     44838
     44841     44839     44842     44843     44846     44844     44847     44848
     44851     44849     44852     44853     44856     44854     44857     44858
     44861     44859     44862     44863     44866     44864     44867     44868
     44871     44869     44872     44873     44876     44874     44877     44878
     44881     44879     44882     44883     44886     44884     44887     44888
     44891     44889     44892     44893     44896     44894     44897     44898
     44901     44899     44902     44903     44906     44904     44907     44908
     44911     44909     44912     44913     44916     44914     44917     44918
     44921     44919     44922     44923     44926     44924     44927     44928
     44931     44929     44932     44933     44936     44934     44937     44938
     44941     44939     44942     44943     44946     44944     44947     44948
     44951     44949     44952     44953     44956     44954     44957     44958
     44961     44959     44962     44963     44966     44964     44967     44968
     44971     44969     44972     44973     44976     44974     44977     44978
     44981     44979     44982     44983     44986     44984     44987     44988
     44991     44989     44992     44993     44996     44994     44997     44998
     45001     44999     45002     45003     45006     45004     45007     45008
     45011     45009     45012     45013     45016     45014     45017     45018
     45021     45019     45022     45023     45026     45024     45027     45028
     45031     45029     45032     45033     45036     45034     45037     45038
     45041     45039     45042     45043     45046     45044     45047     45048
     45051     45049     45052     45053     45056     45054     45057     45058
     45061     45059     45062     45063     45066     45064     45067     45068
     45071     45069     45072     45073     45076     45074     45077     45078
     45081     45079     45082     45083     45086     45084     45087     45088
     45091     45089     45092     45093     45096     45094     45097     45098
     45101     45099     45102     45103     45106     45104     45107     45108
     45111     45109     45112     45113     45116     45114     45117     45118
     45121     45119     45122     45123     45126     45124     45127     45128
     45131     45129     45132     45133     45136     45134     45137     45138
     45141     45139     45142     45143     45146     45144     45147     45148
     45151     45149     45152     45153     45156     45154     45157     45158
     45161     45159     45162     45163     45166     45164     45167     45168
     45171     45169     45172     45173     45176     45174     45177     45178
     45181     45179     45182     45183     45186     45184     45187     45188
     45191     45189     45192     45193     45196     45194     45197     45198
     45201     45199     45202     45203     45206     45204     45207     45208
     45211     45209     45212     45213     45216     45214     45217     45218
     45221     45219     45222     45223     45226     45224     45227     45228
     45231     45229     45232     45233     45236     45234     45237     45238
     45241     45239     45242     45243     45246     45244     45247     45248
     45251     45249     45252     45253     45256     45254     45257     45258
     45261     45259     45262     45263     45266     45264     45267     45268
     45271     45269     45272     45273     45276     45274     45277     45278
     45281     45279     45282     45283     45286     45284     45287     45288
     45291     45289     45292     45293     45296     45294     45297     45298
     45301     45299     45302     45303     45306     45304     45307     45308
     45311     45309     45312     45313     45316     45314     45317     45318
     45321     45319     45322     45323     45326     45324     45327     45328
     45331     45329     45332     45333     45336     45334     45337     45338
     45341     45339     45342     45343     45346     45344     45347     45348
     45351     45349     45352     45353     45356     45354     45357     45358
     45361     45359     45362     45363     45366     45364     45367     45368
     45371     45369     45372     45373     45376     45374     45377     45378
     45381     45379     45382     45383     45386     45384     45387     45388
     45391     45389     45392     45393     45396     45394     45397     45398
     45401     45399     45402     45403     45406     45404     45407     45408
     45411     45409     45412     45413     45416     45414     45417     45418
     45421     45419     45422     45423     45426     45424     45427     45428
     45431     45429     45432     45433     45436     45434     45437     45438
     45441     45439     45442     45443     45446     45444     45447     45448
     45451     45449     45452     45453     45456     45454     45457     45458
     45461     45459     45462     45463     45466     45464     45467     45468
     45471     45469     45472     45473     45476     45474     45477     45478
     45481     45479     45482     45483     45486     45484     45487     45488
     45491     45489     45492     45493     45496     45494     45497     45498
     45501     45499     45502     45503     45506     45504     45507     45508
     45511     45509     45512     45513     45516     45514     45517     45518
     45521     45519     45522     45523     45526     45524     45527     45528
     45531     45529     45532     45533     45536     45534     45537     45538
     45541     45539     45542     45543     45546     45544     45547     45548
     45551     45549     45552     45553     45556     45554     45557     45558
     45561     45559     45562     45563     45566     45564     45567     45568
     45571     45569     45572     45573     45576     45574     45577     45578
     45581     45579     45582     45583     45586     45584     45587     45588
     45591     45589     45592     45593     45596     45594     45597     45598
     45601     45599     45602     45603     45606     45604     45607     45608
     45611     45609     45612     45613     45616     45614     45617     45618
     45621     45619     45622     45623     45626     45624     45627     45628
     45631     45629     45632     45633     45636     45634     45637     45638
     45641     45639     45642     45643     45646     45644     45647     45648
     45651     45649     45652     45653     45656     45654     45657     45658
     45661     45659     45662     45663     45666     45664     45667     45668
     45671     45669     45672     45673     45676     45674     45677     45678
     45681     45679     45682     45683     45686     45684     45687     45688
     45691     45689     45692     45693     45696     45694     45697     45698
     45701     45699     45702     45703     45706     45704     45707     45708
     45711     45709     45712     45713     45716     45714     45717     45718
     45721     45719     45722     45723     45726     45724     45727     45728
     45731     45729     45732     45733     45736     45734     45737     45738
     45741     45739     45742     45743     45746     45744     45747     45748
     45751     45749     45752     45753     45756     45754     45757     45758
     45761     45759     45762     45763     45766     45764     45767     45768
     45771     45769     45772     45773     45776     45774     45777     45778
     45781     45779     45782     45783     45786     45784     45787     45788
     45791     45789     45792     45793     45796     45794     45797     45798
     45801     45799     45802     45803     45806     45804     45807     45808
     45811     45809     45812     45813     45816     45814     45817     45818
     45821     45819     45822     45823     45826     45824     45827     45828
     45831     45829     45832     45833     45836     45834     45837     45838
     45841     45839     45842     45843     45846     45844     45847     45848
     45851     45849     45852     45853     45856     45854     45857     45858
     45861     45859     45862     45863     45866     45864     45867     45868
     45871     45869     45872     45873     45876     45874     45877     45878
     45881     45879     45882     45883     45886     45884     45887     45888
     45891     45889     45892     45893     45896     45894     45897     45898
     45901     45899     45902     45903     45906     45904     45907     45908
     45911     45909     45912     45913     45916     45914     45917     45918
     45921     45919     45922     45923     45926     45924     45927     45928
     45931     45929     45932     45933     45936     45934     45937     45938
     45941     45939     45942     45943     45946     45944     45947     45948
     45951     45949     45952     45953     45956     45954     45957     45958
     45961     45959     45962     45963     45966     45964     45967     45968
     45971     45969     45972     45973     45976     45974     45977     45978
     45981     45979     45982     45983     45986     45984     45987     45988
     45991     45989     45992     45993     45996     45994     45997     45998
     46001     45999     46002     46003     46006     46004     46007     46008
     46011     46009     46012     46013     46016     46014     46017     46018
     46021     46019     46022     46023     46026     46024     46027     46028
     46031     46029     46032     46033     46036     46034     46037     46038
     46041     46039     46042     46043     46046     46044     46047     46048
     46051     46049     46052     46053     46056     46054     46057     46058
     46061     46059     46062     46063     46066     46064     46067     46068
     46071     46069     46072     46073     46076     46074     46077     46078
     46081     46079     46082     46083     46086     46084     46087     46088
     46091     46089     46092     46093     46096     46094     46097     46098
     46101     46099     46102     46103     46106     46104     46107     46108
     46111     46109     46112     46113     46116     46114     46117     46118
     46121     46119     46122     46123     46126     46124     46127     46128
     46131     46129     46132     46133     46136     46134     46137     46138
     46141     46139     46142     46143     46146     46144     46147     46148
     46151     46149     46152     46153     46156     46154     46157     46158
     46161     46159     46162     46163     46166     46164     46167     46168
     46171     46169     46172     46173     46176     46174     46177     46178
     46181     46179     46182     46183     46186     46184     46187     46188
     46191     46189     46192     46193     46196     46194     46197     46198
     46201     46199     46202     46203     46206     46204     46207     46208
     46211     46209     46212     46213     46216     46214     46217     46218
     46221     46219     46222     46223     46226     46224     46227     46228
     46231     46229     46232     46233     46236     46234     46237     46238
     46241     46239     46242     46243     46246     46244     46247     46248
     46251     46249     46252     46253     46256     46254     46257     46258
     46261     46259     46262     46263     46266     46264     46267     46268
     46271     46269     46272     46273     46276     46274     46277     46278
     46281     46279     46282     46283     46286     46284     46287     46288
     46291     46289     46292     46293     46296     46294     46297     46298
     46301     46299     46302     46303     46306     46304     46307     46308
     46311     46309     46312     46313     46316     46314     46317     46318
     46321     46319     46322     46323     46326     46324     46327     46328
     46331     46329     46332     46333     46336     46334     46337     46338
     46341     46339     46342     46343     46346     46344     46347     46348
     46351     46349     46352     46353     46356     46354     46357     46358
     46361     46359     46362     46363     46366     46364     46367     46368
     46371     46369     46372     46373     46376     46374     46377     46378
     46381     46379     46382     46383     46386     46384     46387     46388
     46391     46389     46392     46393     46396     46394     46397     46398
     46401     46399     46402     46403     46406     46404     46407     46408
     46411     46409     46412     46413     46416     46414     46417     46418
     46421     46419     46422     46423     46426     46424     46427     46428
     46431     46429     46432     46433     46436     46434     46437     46438
     46441     46439     46442     46443     46446     46444     46447     46448
     46451     46449     46452     46453     46456     46454     46457     46458
     46461     46459     46462     46463     46466     46464     46467     46468
     46471     46469     46472     46473     46476     46474     46477     46478
     46481     46479     46482     46483     46486     46484     46487     46488
     46491     46489     46492     46493     46496     46494     46497     46498
     46501     46499     46502     46503     46506     46504     46507     46508
     46511     46509     46512     46513     46516     46514     46517     46518
     46521     46519     46522     46523     46526     46524     46527     46528
     46531     46529     46532     46533     46536     46534     46537     46538
     46541     46539     46542     46543     46546     46544     46547     46548
     46551     46549     46552     46553     46556     46554     46557     46558
     46561     46559     46562     46563     46566     46564     46567     46568
     46571     46569     46572     46573     46576     46574     46577     46578
     46581     46579     46582     46583     46586     46584     46587     46588
     46591     46589     46592     46593     46596     46594     46597     46598
     46601     46599     46602     46603     46606     46604     46607     46608
     46611     46609     46612     46613     46616     46614     46617     46618
     46621     46619     46622     46623     46626     46624     46627     46628
     46631     46629     46632     46633     46636     46634     46637     46638
     46641     46639     46642     46643     46646     46644     46647     46648
     46651     46649     46652     46653     46656     46654     46657     46658
     46661     46659     46662     46663     46666     46664     46667     46668
     46671     46669     46672     46673     46676     46674     46677     46678
     46681     46679     46682     46683     46686     46684     46687     46688
     46691     46689     46692     46693     46696     46694     46697     46698
     46701     46699     46702     46703     46706     46704     46707     46708
     46711     46709     46712     46713     46716     46714     46717     46718
     46721     46719     46722     46723     46726     46724     46727     46728
     46731     46729     46732     46733     46736     46734     46737     46738
     46741     46739     46742     46743     46746     46744     46747     46748
     46751     46749     46752     46753     46756     46754     46757     46758
     46761     46759     46762     46763     46766     46764     46767     46768
     46771     46769     46772     46773     46776     46774     46777     46778
     46781     46779     46782     46783     46786     46784     46787     46788
     46791     46789     46792     46793     46796     46794     46797     46798
     46801     46799     46802     46803     46806     46804     46807     46808
     46811     46809     46812     46813     46816     46814     46817     46818
     46821     46819     46822     46823     46826     46824     46827     46828
     46831     46829     46832     46833     46836     46834     46837     46838
     46841     46839     46842     46843     46846     46844     46847     46848
     46851     46849     46852     46853     46856     46854     46857     46858
     46861     46859     46862     46863     46866     46864     46867     46868
     46871     46869     46872     46873     46876     46874     46877     46878
     46881     46879     46882     46883     46886     46884     46887     46888
     46891     46889     46892     46893     46896     46894     46897     46898
     46901     46899     46902     46903     46906     46904     46907     46908
     46911     46909     46912     46913     46916     46914     46917     46918
     46921     46919     46922     46923     46926     46924     46927     46928
     46931     46929     46932     46933     46936     46934     46937     46938
     46941     46939     46942     46943     46946     46944     46947     46948
     46951     46949     46952     46953     46956     46954     46957     46958
     46961     46959     46962     46963     46966     46964     46967     46968
     46971     46969     46972     46973     46976     46974     46977     46978
     46981     46979     46982     46983     46986     46984     46987     46988
     46991     46989     46992     46993     46996     46994     46997     46998
     47001     46999     47002     47003     47006     47004     47007     47008
     47011     47009     47012     47013     47016     47014     47017     47018
     47021     47019     47022     47023     47026     47024     47027     47028
     47031     47029     47032     47033     47036     47034     47037     47038
     47041     47039     47042     47043     47046     47044     47047     47048
     47051     47049     47052     47053     47056     47054     47057     47058
     47061     47059     47062     47063     47066     47064     47067     47068
     47071     47069     47072     47073     47076     47074     47077     47078
     47081     47079     47082     47083     47086     47084     47087     47088
     47091     47089     47092     47093     47096     47094     47097     47098
     47101     47099     47102     47103     47106     47104     47107     47108
     47111     47109     47112     47113     47116     47114     47117     47118
     47121     47119     47122     47123     47126     47124     47127     47128
     47131     47129     47132     47133     47136     47134     47137     47138
     47141     47139     47142     47143     47146     47144     47147     47148
     47151     47149     47152     47153     47156     47154     47157     47158
     47161     47159     47162     47163     47166     47164     47167     47168
     47171     47169     47172     47173     47176     47174     47177     47178
     47181     47179     47182     47183     47186     47184     47187     47188
     47191     47189     47192     47193     47196     47194     47197     47198
     47201     47199     47202     47203     47206     47204     47207     47208
     47211     47209     47212     47213     47216     47214     47217     47218
     47221     47219     47222     47223     47226     47224     47227     47228
     47231     47229     47232     47233     47236     47234     47237     47238
     47241     47239     47242     47243     47246     47244     47247     47248
     47251     47249     47252     47253     47256     47254     47257     47258
     47261     47259     47262     47263     47266     47264     47267     47268
     47271     47269     47272     47273     47276     47274     47277     47278
     47281     47279     47282     47283     47286     47284     47287     47288
     47291     47289     47292     47293     47296     47294     47297     47298
     47301     47299     47302     47303     47306     47304     47307     47308
     47311     47309     47312     47313     47316     47314     47317     47318
     47321     47319     47322     47323     47326     47324     47327     47328
     47331     47329     47332     47333     47336     47334     47337     47338
     47341     47339     47342     47343     47346     47344     47347     47348
     47351     47349     47352     47353     47356     47354     47357     47358
     47361     47359     47362     47363     47366     47364     47367     47368
     47371     47369     47372     47373     47376     47374     47377     47378
     47381     47379     47382     47383     47386     47384     47387     47388
     47391     47389     47392     47393     47396     47394     47397     47398
     47401     47399     47402     47403     47406     47404     47407     47408
     47411     47409     47412     47413     47416     47414     47417     47418
     47421     47419     47422     47423     47426     47424     47427     47428
     47431     47429     47432     47433     47436     47434     47437     47438
     47441     47439     47442     47443     47446     47444     47447     47448
     47451     47449     47452     47453     47456     47454     47457     47458
     47461     47459     47462     47463     47466     47464     47467     47468
     47471     47469     47472     47473     47476     47474     47477     47478
     47481     47479     47482     47483     47486     47484     47487     47488
     47491     47489     47492     47493     47496     47494     47497     47498
     47501     47499     47502     47503     47506     47504     47507     47508
     47511     47509     47512     47513     47516     47514     47517     47518
     47521     47519     47522     47523     47526     47524     47527     47528
     47531     47529     47532     47533     47536     47534     47537     47538
     47541     47539     47542     47543     47546     47544     47547     47548
     47551     47549     47552     47553     47556     47554     47557     47558
     47561     47559     47562     47563     47566     47564     47567     47568
     47571     47569     47572     47573     47576     47574     47577     47578
     47581     47579     47582     47583     47586     47584     47587     47588
     47591     47589     47592     47593     47596     47594     47597     47598
     47601     47599     47602     47603     47606     47604     47607     47608
     47611     47609     47612     47613     47616     47614     47617     47618
     47621     47619     47622     47623     47626     47624     47627     47628
     47631     47629     47632     47633     47636     47634     47637     47638
     47641     47639     47642     47643     47646     47644     47647     47648
     47651     47649     47652     47653     47656     47654     47657     47658
     47661     47659     47662     47663     47666     47664     47667     47668
     47671     47669     47672     47673     47676     47674     47677     47678
     47681     47679     47682     47683     47686     47684     47687     47688
     47691     47689     47692     47693     47696     47694     47697     47698
     47701     47699     47702     47703     47706     47704     47707     47708
     47711     47709     47712     47713     47716     47714     47717     47718
     47721     47719     47722     47723     47726     47724     47727     47728
     47731     47729     47732     47733     47736     47734     47737     47738
     47741     47739     47742     47743     47746     47744     47747     47748
     47751     47749     47752     47753     47756     47754     47757     47758
     47761     47759     47762     47763     47766     47764     47767     47768
     47771     47769     47772     47773     47776     47774     47777     47778
     47781     47779     47782     47783     47786     47784     47787     47788
     47791     47789     47792     47793     47796     47794     47797     47798
     47801     47799     47802     47803     47806     47804     47807     47808
     47811     47809     47812     47813     47816     47814     47817     47818
     47821     47819     47822     47823     47826     47824     47827     47828
     47831     47829     47832     47833     47836     47834     47837     47838
     47841     47839     47842     47843     47846     47844     47847     47848
     47851     47849     47852     47853     47856     47854     47857     47858
     47861     47859     47862     47863     47866     47864     47867     47868
     47871     47869     47872     47873     47876     47874     47877     47878
     47881     47879     47882     47883     47886     47884     47887     47888
     47891     47889     47892     47893     47896     47894     47897     47898
     47901     47899     47902     47903     47906     47904     47907     47908
     47911     47909     47912     47913     47916     47914     47917     47918
     47921     47919     47922     47923     47926     47924     47927     47928
     47931     47929     47932     47933     47936     47934     47937     47938
     47941     47939     47942     47943     47946     47944     47947     47948
     47951     47949     47952     47953     47956     47954     47957     47958
     47961     47959     47962     47963     47966     47964     47967     47968
     47971     47969     47972     47973     47976     47974     47977     47978
     47981     47979     47982     47983     47986     47984     47987     47988
     47991     47989     47992     47993     47996     47994     47997     47998
     48001     47999     48002     48003     48006     48004     48007     48008
     48011     48009     48012     48013     48016     48014     48017     48018
     48021     48019     48022     48023     48026     48024     48027     48028
     48031     48029     48032     48033     48036     48034     48037     48038
     48041     48039     48042     48043     48046     48044     48047     48048
     48051     48049     48052     48053     48056     48054     48057     48058
     48061     48059     48062     48063     48066     48064     48067     48068
     48071     48069     48072     48073     48076     48074     48077     48078
     48081     48079     48082     48083     48086     48084     48087     48088
     48091     48089     48092     48093     48096     48094     48097     48098
     48101     48099     48102     48103     48106     48104     48107     48108
     48111     48109     48112     48113     48116     48114     48117     48118
     48121     48119     48122     48123     48126     48124     48127     48128
     48131     48129     48132     48133     48136     48134     48137     48138
     48141     48139     48142     48143     48146     48144     48147     48148
     48151     48149     48152     48153     48156     48154     48157     48158
     48161     48159     48162     48163     48166     48164     48167     48168
     48171     48169     48172     48173     48176     48174     48177     48178
     48181     48179     48182     48183     48186     48184     48187     48188
     48191     48189     48192     48193     48196     48194     48197     48198
     48201     48199     48202     48203     48206     48204     48207     48208
     48211     48209     48212     48213     48216     48214     48217     48218
     48221     48219     48222     48223     48226     48224     48227     48228
     48231     48229     48232     48233     48236     48234     48237     48238
     48241     48239     48242     48243     48246     48244     48247     48248
     48251     48249     48252     48253     48256     48254     48257     48258
     48261     48259     48262     48263     48266     48264     48267     48268
     48271     48269     48272     48273     48276     48274     48277     48278
     48281     48279     48282     48283     48286     48284     48287     48288
     48291     48289     48292     48293     48296     48294     48297     48298
     48301     48299     48302     48303     48306     48304     48307     48308
     48311     48309     48312     48313     48316     48314     48317     48318
     48321     48319     48322     48323     48326     48324     48327     48328
     48331     48329     48332     48333     48336     48334     48337     48338
     48341     48339     48342     48343     48346     48344     48347     48348
     48351     48349     48352     48353     48356     48354     48357     48358
     48361     48359     48362     48363     48366     48364     48367     48368
     48371     48369     48372     48373     48376     48374     48377     48378
     48381     48379     48382     48383     48386     48384     48387     48388
     48391     48389     48392     48393     48396     48394     48397     48398
     48401     48399     48402     48403     48406     48404     48407     48408
     48411     48409     48412     48413     48416     48414     48417     48418
     48421     48419     48422     48423     48426     48424     48427     48428
     48431     48429     48432     48433     48436     48434     48437     48438
     48441     48439     48442     48443     48446     48444     48447     48448
     48451     48449     48452     48453     48456     48454     48457     48458
     48461     48459     48462     48463     48466     48464     48467     48468
     48471     48469     48472     48473     48476     48474     48477     48478
     48481     48479     48482     48483     48486     48484     48487     48488
     48491     48489     48492     48493     48496     48494     48497     48498
     48501     48499     48502     48503     48506     48504     48507     48508
     48511     48509     48512     48513     48516     48514     48517     48518
     48521     48519     48522     48523     48526     48524     48527     48528
     48531     48529     48532     48533     48536     48534     48537     48538
     48541     48539     48542     48543     48546     48544     48547     48548
     48551     48549     48552     48553     48556     48554     48557     48558
     48561     48559     48562     48563     48566     48564     48567     48568
     48571     48569     48572     48573     48576     48574     48577     48578
     48581     48579     48582     48583     48586     48584     48587     48588
     48591     48589     48592     48593     48596     48594     48597     48598
     48601     48599     48602     48603     48606     48604     48607     48608
     48611     48609     48612     48613     48616     48614     48617     48618
     48621     48619     48622     48623     48626     48624     48627     48628
     48631     48629     48632     48633     48636     48634     48637     48638
     48641     48639     48642     48643     48646     48644     48647     48648
     48651     48649     48652     48653     48656     48654     48657     48658
     48661     48659     48662     48663     48666     48664     48667     48668
     48671     48669     48672     48673     48676     48674     48677     48678
     48681     48679     48682     48683     48686     48684     48687     48688
     48691     48689     48692     48693     48696     48694     48697     48698
     48701     48699     48702     48703     48706     48704     48707     48708
     48711     48709     48712     48713     48716     48714     48717     48718
     48721     48719     48722     48723     48726     48724     48727     48728
     48731     48729     48732     48733     48736     48734     48737     48738
     48741     48739     48742     48743     48746     48744     48747     48748
     48751     48749     48752     48753     48756     48754     48757     48758
     48761     48759     48762     48763     48766     48764     48767     48768
     48771     48769     48772     48773     48776     48774     48777     48778
     48781     48779     48782     48783     48786     48784     48787     48788
     48791     48789     48792     48793     48796     48794     48797     48798
     48801     48799     48802     48803     48806     48804     48807     48808
     48811     48809     48812     48813     48816     48814     48817     48818
     48821     48819     48822     48823     48826     48824     48827     48828
     48831     48829     48832     48833     48836     48834     48837     48838
     48841     48839     48842     48843     48846     48844     48847     48848
     48851     48849     48852     48853     48856     48854     48857     48858
     48861     48859     48862     48863     48866     48864     48867     48868
     48871     48869     48872     48873     48876     48874     48877     48878
     48881     48879     48882     48883     48886     48884     48887     48888
     48891     48889     48892     48893     48896     48894     48897     48898
     48901     48899     48902     48903     48906     48904     48907     48908
     48911     48909     48912     48913     48916     48914     48917     48918
     48921     48919     48922     48923     48926     48924     48927     48928
     48931     48929     48932     48933     48936     48934     48937     48938
     48941     48939     48942     48943     48946     48944     48947     48948
     48951     48949     48952     48953     48956     48954     48957     48958
     48961     48959     48962     48963     48966     48964     48967     48968
     48971     48969     48972     48973     48976     48974     48977     48978
     48981     48979     48982     48983     48986     48984     48987     48988
     48991     48989     48992     48993     48996     48994     48997     48998
     49001     48999     49002     49003     49006     49004     49007     49008
     49011     49009     49012     49013     49016     49014     49017     49018
     49021     49019     49022     49023     49026     49024     49027     49028
     49031     49029     49032     49033     49036     49034     49037     49038
     49041     49039     49042     49043     49046     49044     49047     49048
     49051     49049     49052     49053     49056     49054     49057     49058
     49061     49059     49062     49063     49066     49064     49067     49068
     49071     49069     49072     49073     49076     49074     49077     49078
     49081     49079     49082     49083     49086     49084     49087     49088
     49091     49089     49092     49093     49096     49094     49097     49098
     49101     49099     49102     49103     49106     49104     49107     49108
     49111     49109     49112     49113     49116     49114     49117     49118
     49121     49119     49122     49123     49126     49124     49127     49128
     49131     49129     49132     49133     49136     49134     49137     49138
     49141     49139     49142     49143     49146     49144     49147     49148
     49151     49149     49152     49153     49156     49154     49157     49158
     49161     49159     49162     49163     49166     49164     49167     49168
     49171     49169     49172     49173     49176     49174     49177     49178
     49181     49179     49182     49183     49186     49184     49187     49188
     49191     49189     49192     49193     49196     49194     49197     49198
     49201     49199     49202     49203     49206     49204     49207     49208
     49211     49209     49212     49213     49216     49214     49217     49218
     49221     49219     49222     49223     49226     49224     49227     49228
     49231     49229     49232     49233     49236     49234     49237     49238
     49241     49239     49242     49243     49246     49244     49247     49248
     49251     49249     49252     49253     49256     49254     49257     49258
     49261     49259     49262     49263     49266     49264     49267     49268
     49271     49269     49272     49273     49276     49274     49277     49278
     49281     49279     49282     49283     49286     49284     49287     49288
     49291     49289     49292     49293     49296     49294     49297     49298
     49301     49299     49302     49303     49306     49304     49307     49308
     49311     49309     49312     49313     49316     49314     49317     49318
     49321     49319     49322     49323     49326     49324     49327     49328
     49331     49329     49332     49333     49336     49334     49337     49338
     49341     49339     49342     49343     49346     49344     49347     49348
     49351     49349     49352     49353     49356     49354     49357     49358
     49361     49359     49362     49363     49366     49364     49367     49368
     49371     49369     49372     49373     49376     49374     49377     49378
     49381     49379     49382     49383     49386     49384     49387     49388
     49391     49389     49392     49393     49396     49394     49397     49398
     49401     49399     49402     49403     49406     49404     49407     49408
     49411     49409     49412     49413     49416     49414     49417     49418
     49421     49419     49422     49423     49426     49424     49427     49428
     49431     49429     49432     49433     49436     49434     49437     49438
     49441     49439     49442     49443     49446     49444     49447     49448
     49451     49449     49452     49453     49456     49454     49457     49458
     49461     49459     49462     49463     49466     49464     49467     49468
     49471     49469     49472     49473     49476     49474     49477     49478
     49481     49479     49482     49483     49486     49484     49487     49488
     49491     49489     49492     49493     49496     49494     49497     49498
     49501     49499     49502     49503     49506     49504     49507     49508
     49511     49509     49512     49513     49516     49514     49517     49518
     49521     49519     49522     49523     49526     49524     49527     49528
     49531     49529     49532     49533     49536     49534     49537     49538
     49541     49539     49542     49543     49546     49544     49547     49548
     49551     49549     49552     49553     49556     49554     49557     49558
     49561     49559     49562     49563     49566     49564     49567     49568
     49571     49569     49572     49573     49576     49574     49577     49578
     49581     49579     49582     49583     49586     49584     49587     49588
     49591     49589     49592     49593     49596     49594     49597     49598
     49601     49599     49602     49603     49606     49604     49607     49608
     49611     49609     49612     49613     49616     49614     49617     49618
     49621     49619     49622     49623     49626     49624     49627     49628
     49631     49629     49632     49633     49636     49634     49637     49638
     49641     49639     49642     49643     49646     49644     49647     49648
     49651     49649     49652     49653     49656     49654     49657     49658
     49661     49659     49662     49663     49666     49664     49667     49668
     49671     49669     49672     49673     49676     49674     49677     49678
     49681     49679     49682     49683     49686     49684     49687     49688
     49691     49689     49692     49693     49696     49694     49697     49698
     49701     49699     49702     49703     49706     49704     49707     49708
     49711     49709     49712     49713     49716     49714     49717     49718
     49721     49719     49722     49723     49726     49724     49727     49728
     49731     49729     49732     49733     49736     49734     49737     49738
     49741     49739     49742     49743     49746     49744     49747     49748
     49751     49749     49752     49753     49756     49754     49757     49758
     49761     49759     49762     49763     49766     49764     49767     49768
     49771     49769     49772     49773     49776     49774     49777     49778
     49781     49779     49782     49783     49786     49784     49787     49788
     49791     49789     49792     49793     49796     49794     49797     49798
     49801     49799     49802     49803     49806     49804     49807     49808
     49811     49809     49812     49813     49816     49814     49817     49818
     49821     49819     49822     49823     49826     49824     49827     49828
     49831     49829     49832     49833     49836     49834     49837     49838
     49841     49839     49842     49843     49846     49844     49847     49848
     49851     49849     49852     49853     49856     49854     49857     49858
     49861     49859     49862     49863     49866     49864     49867     49868
     49871     49869     49872     49873     49876     49874     49877     49878
     49881     49879     49882     49883     49886     49884     49887     49888
     49891     49889     49892     49893     49896     49894     49897     49898
     49901     49899     49902     49903     49906     49904     49907     49908
     49911     49909     49912     49913     49916     49914     49917     49918
     49921     49919     49922     49923     49926     49924     49927     49928
     49931     49929     49932     49933     49936     49934     49937     49938
     49941     49939     49942     49943     49946     49944     49947     49948
     49951     49949     49952     49953     49956     49954     49957     49958
     49961     49959     49962     49963     49966     49964     49967     49968
     49971     49969     49972     49973     49976     49974     49977     49978
     49981     49979     49982     49983     49986     49984     49987     49988
     49991     49989     49992     49993     49996     49994     49997     49998
     50001     49999     50002     50003     50006     50004     50007     50008
     50011     50009     50012     50013     50016     50014     50017     50018
     50021     50019     50022     50023     50026     50024     50027     50028
     50031     50029     50032     50033     50036     50034     50037     50038
     50041     50039     50042     50043     50046     50044     50047     50048
     50051     50049     50052     50053     50056     50054     50057     50058
     50061     50059     50062     50063     50066     50064     50067     50068
     50071     50069     50072     50073     50076     50074     50077     50078
     50081     50079     50082     50083     50086     50084     50087     50088
     50091     50089     50092     50093     50096     50094     50097     50098
     50101     50099     50102     50103     50106     50104     50107     50108
     50111     50109     50112     50113     50116     50114     50117     50118
     50121     50119     50122     50123     50126     50124     50127     50128
     50131     50129     50132     50133     50136     50134     50137     50138
     50141     50139     50142     50143     50146     50144     50147     50148
     50151     50149     50152     50153     50156     50154     50157     50158
     50161     50159     50162     50163     50166     50164     50167     50168
     50171     50169     50172     50173     50176     50174     50177     50178
     50181     50179     50182     50183     50186     50184     50187     50188
     50191     50189     50192     50193     50196     50194     50197     50198
     50201     50199     50202     50203     50206     50204     50207     50208
     50211     50209     50212     50213     50216     50214     50217     50218
     50221     50219     50222     50223     50226     50224     50227     50228
     50231     50229     50232     50233     50236     50234     50237     50238
     50241     50239     50242     50243     50246     50244     50247     50248
     50251     50249     50252     50253     50256     50254     50257     50258
     50261     50259     50262     50263     50266     50264     50267     50268
     50271     50269     50272     50273     50276     50274     50277     50278
     50281     50279     50282     50283     50286     50284     50287     50288
     50291     50289     50292     50293     50296     50294     50297     50298
     50301     50299     50302     50303     50306     50304     50307     50308
     50311     50309     50312     50313     50316     50314     50317     50318
     50321     50319     50322     50323     50326     50324     50327     50328
     50331     50329     50332     50333     50336     50334     50337     50338
     50341     50339     50342     50343     50346     50344     50347     50348
     50351     50349     50352     50353     50356     50354     50357     50358
     50361     50359     50362     50363     50366     50364     50367     50368
     50371     50369     50372     50373     50376     50374     50377     50378
     50381     50379     50382     50383     50386     50384     50387     50388
     50391     50389     50392     50393     50396     50394     50397     50398
     50401     50399     50402     50403     50406     50404     50407     50408
     50411     50409     50412     50413     50416     50414     50417     50418
     50421     50419     50422     50423     50426     50424     50427     50428
     50431     50429     50432     50433     50436     50434     50437     50438
     50441     50439     50442     50443     50446     50444     50447     50448
     50451     50449     50452     50453     50456     50454     50457     50458
     50461     50459     50462     50463     50466     50464     50467     50468
     50471     50469     50472     50473     50476     50474     50477     50478
     50481     50479     50482     50483     50486     50484     50487     50488
     50491     50489     50492     50493     50496     50494     50497     50498
     50501     50499     50502     50503     50506     50504     50507     50508
     50511     50509     50512     50513     50516     50514     50517     50518
     50521     50519     50522     50523     50526     50524     50527     50528
     50531     50529     50532     50533     50536     50534     50537     50538
     50541     50539     50542     50543     50546     50544     50547     50548
     50551     50549     50552     50553     50556     50554     50557     50558
     50561     50559     50562     50563     50566     50564     50567     50568
     50571     50569     50572     50573     50576     50574     50577     50578
     50581     50579     50582     50583     50586     50584     50587     50588
     50591     50589     50592     50593     50596     50594     50597     50598
     50601     50599     50602     50603     50606     50604     50607     50608
     50611     50609     50612     50613     50616     50614     50617     50618
     50621     50619     50622     50623     50626     50624     50627     50628
     50631     50629     50632     50633     50636     50634     50637     50638
     50641     50639     50642     50643     50646     50644     50647     50648
     50651     50649     50652     50653     50656     50654     50657     50658
     50661     50659     50662     50663     50666     50664     50667     50668
     50671     50669     50672     50673     50676     50674     50677     50678
     50681     50679     50682     50683     50686     50684     50687     50688
     50691     50689     50692     50693     50696     50694     50697     50698
     50701     50699     50702     50703     50706     50704     50707     50708
     50711     50709     50712     50713     50716     50714     50717     50718
     50721     50719     50722     50723     50726     50724     50727     50728
     50731     50729     50732     50733     50736     50734     50737     50738
     50741     50739     50742     50743     50746     50744     50747     50748
     50751     50749     50752     50753     50756     50754     50757     50758
     50761     50759     50762     50763     50766     50764     50767     50768
     50771     50769     50772     50773     50776     50774     50777     50778
     50781     50779     50782     50783     50786     50784     50787     50788
     50791     50789     50792     50793     50796     50794     50797     50798
     50801     50799     50802     50803     50806     50804     50807     50808
     50811     50809     50812     50813     50816     50814     50817     50818
     50821     50819     50822     50823     50826     50824     50827     50828
     50831     50829     50832     50833     50836     50834     50837     50838
     50841     50839     50842     50843     50846     50844     50847     50848
     50851     50849     50852     50853     50856     50854     50857     50858
     50861     50859     50862     50863     50866     50864     50867     50868
     50871     50869     50872     50873     50876     50874     50877     50878
     50881     50879     50882     50883     50886     50884     50887     50888
     50891     50889     50892     50893     50896     50894     50897     50898
     50901     50899     50902     50903     50906     50904     50907     50908
     50911     50909     50912     50913     50916     50914     50917     50918
     50921     50919     50922     50923     50926     50924     50927     50928
     50931     50929     50932     50933     50936     50934     50937     50938
     50941     50939     50942     50943     50946     50944     50947     50948
     50951     50949     50952     50953     50956     50954     50957     50958
     50961     50959     50962     50963     50966     50964     50967     50968
     50971     50969     50972     50973     50976     50974     50977     50978
     50981     50979     50982     50983     50986     50984     50987     50988
     50991     50989     50992     50993     50996     50994     50997     50998
     51001     50999     51002     51003     51006     51004     51007     51008
     51011     51009     51012     51013     51016     51014     51017     51018
     51021     51019     51022     51023     51026     51024     51027     51028
     51031     51029     51032     51033     51036     51034     51037     51038
     51041     51039     51042     51043     51046     51044     51047     51048
     51051     51049     51052     51053     51056     51054     51057     51058
     51061     51059     51062     51063     51066     51064     51067     51068
     51071     51069     51072     51073     51076     51074     51077     51078
     51081     51079     51082     51083     51086     51084     51087     51088
     51091     51089     51092     51093     51096     51094     51097     51098
     51101     51099     51102     51103     51106     51104     51107     51108
     51111     51109     51112     51113     51116     51114     51117     51118
     51121     51119     51122     51123     51126     51124     51127     51128
     51131     51129     51132     51133     51136     51134     51137     51138
     51141     51139     51142     51143     51146     51144     51147     51148
     51151     51149     51152     51153     51156     51154     51157     51158
     51161     51159     51162     51163     51166     51164     51167     51168
     51171     51169     51172     51173     51176     51174     51177     51178
     51181     51179     51182     51183     51186     51184     51187     51188
     51191     51189     51192     51193     51196     51194     51197     51198
     51201     51199     51202     51203     51206     51204     51207     51208
     51211     51209     51212     51213     51216     51214     51217     51218
     51221     51219     51222     51223     51226     51224     51227     51228
     51231     51229     51232     51233     51236     51234     51237     51238
     51241     51239     51242     51243     51246     51244     51247     51248
     51251     51249     51252     51253     51256     51254     51257     51258
     51261     51259     51262     51263     51266     51264     51267     51268
     51271     51269     51272     51273     51276     51274     51277     51278
     51281     51279     51282     51283     51286     51284     51287     51288
     51291     51289     51292     51293     51296     51294     51297     51298
     51301     51299     51302     51303     51306     51304     51307     51308
     51311     51309     51312     51313     51316     51314     51317     51318
     51321     51319     51322     51323     51326     51324     51327     51328
     51331     51329     51332     51333     51336     51334     51337     51338
     51341     51339     51342     51343     51346     51344     51347     51348
     51351     51349     51352     51353     51356     51354     51357     51358
     51361     51359     51362     51363     51366     51364     51367     51368
     51371     51369     51372     51373     51376     51374     51377     51378
     51381     51379     51382     51383     51386     51384     51387     51388
     51391     51389     51392     51393     51396     51394     51397     51398
     51401     51399     51402     51403     51406     51404     51407     51408

      1152 !NUMANISO
             256.226      -51.3020      -38.6603    
             256.226      -51.3020      -38.6603    
             102.800      -102.758       13.8746    
             102.800      -102.758       13.8746    
             142.857       476.190      -142.857    
             142.857       476.190      -142.857    
             476.190       142.857      -142.857    
             476.190       142.857      -142.857    
             256.226      -51.3020      -38.6603    
             256.226      -51.3020      -38.6603    
             102.800      -102.758       13.8746    
             102.800      -102.758       13.8746    
             142.857       476.190      -142.857    
             142.857       476.190      -142.857    
             476.190       142.857      -142.857    
             476.190       142.857      -142.857    
             256.226      -51.3020      -38.6603    
             256.226      -51.3020      -38.6603    
             102.800      -102.758       13.8746    
             102.800      -102.758       13.8746    
             142.857       476.190      -142.857    
             142.857       476.190      -142.857    
             476.190       142.857      -142.857    
             476.190       142.857      -142.857    
             256.226      -51.3020      -38.6603    
             256.226      -51.3020      -38.6603    
             102.800      -102.758       13.8746    
             102.800      -102.758       13.8746    
             142.857       476.190      -142.857    
             142.857       476.190      -142.857    
             476.190       142.857      -142.857    
             476.190       142.857      -142.857    
             256.226      -51.3020      -38.6603    
             256.226      -51.3020      -38.6603    
             102.800      -102.758       13.8746    
             102.800      -102.758       13.8746    
             142.857       476.190      -142.857    
             142.857       476.190      -142.857    
             476.190       142.857      -142.857    
             476.190       142.857      -142.857    
             256.226      -51.3020      -38.6603    
             256.226      -51.3020      -38.6603    
             102.800      -102.758       13.8746    
             102.800      -102.758       13.8746    
             142.857       476.190      -142.857    
             142.857       476.190      -142.857    
             476.190       142.857      -142.857    
             476.190       142.857      -142.857    
             256.226      -51.3020      -38.6603    
             256.226      -51.3020      -38.6603    
             102.800      -102.758       13.8746    
             102.800      -102.758       13.8746    
             142.857       476.190      -142.857    
             142.857       476.190      -142.857    
             476.190       142.857      -142.857    
             476.190       142.857      -142.857    
             256.226      -51.3020      -38.6603    
             256.226      -51.3020      -38.6603    
             102.800      -102.758       13.8746    
             102.800      -102.758       13.8746    
             142.857       476.190      -142.857    
             142.857       476.190      -142.857    
             476.190       142.857      -142.857    
             476.190       142.857      -142.857    
             256.226      -51.3020      -38.6603    
             256.226      -51.3020      -38.6603    
             102.800      -102.758       13.8746    
             102.800      -102.758       13.8746    
             142.857       476.190      -142.857    
             142.857       476.190      -142.857    
             476.190       142.857      -142.857    
             476.190       142.857      -142.857    
             256.226      -51.3020      -38.6603    
             256.226      -51.3020      -38.6603    
             102.800      -102.758       13.8746    
             102.800      -102.758       13.8746    
             142.857       476.190      -142.857    
             142.857       476.190      -142.857    
             476.190       142.857      -142.857    
             476.190       142.857      -142.857    
             256.226      -51.3020      -38.6603    
             256.226      -51.3020      -38.6603    
             102.800      -102.758       13.8746    
             102.800      -102.758       13.8746    
             142.857       476.190      -142.857    
             142.857       476.190      -142.857    
             476.190       142.857      -142.857    
             476.190       142.857      -142.857    
             256.226      -51.3020      -38.6603    
             256.226      -51.3020      -38.6603    
             102.800      -102.758       13.8746    
             102.800      -102.758       13.8746    
             142.857       476.190      -142.857    
             142.857       476.190      -142.857    
             476.190       142.857      -142.857    
             476.190       142.857      -142.857    
             256.226      -51.3020      -38.6603    
             256.226      -51.3020      -38.6603    
             102.800      -102.758       13.8746    
             102.800      -102.758       13.8746    
             142.857       476.190      -142.857    
             142.857       476.190      -142.857    
             476.190       142.857      -142.857    
             476.190       142.857      -142.857    
             256.226      -51.3020      -38.6603    
             256.226      -51.3020      -38.6603    
             102.800      -102.758       13.8746    
             102.800      -102.758       13.8746    
             142.857       476.190      -142.857    
             142.857       476.190      -142.857    
             476.190       142.857      -142.857    
             476.190       142.857      -142.857    
             256.226      -51.3020      -38.6603    
             256.226      -51.3020      -38.6603    
             102.800      -102.758       13.8746    
             102.800      -102.758       13.8746    
             142.857       476.190      -142.857    
             142.857       476.190      -142.857    
             476.190       142.857      -142.857    
             476.190       142.857      -142.857    
             256.226      -51.3020      -38.6603    
             256.226      -51.3020      -38.6603    
             102.800      -102.758       13.8746    
             102.800      -102.758       13.8746    
             142.857       476.190      -142.857    
             142.857       476.190      -142.857    
             476.190       142.857      -142.857    
             476.190       142.857      -142.857    
             256.226      -51.3020      -38.6603    
             256.226      -51.3020      -38.6603    
             102.800      -102.758       13.8746    
             102.800      -102.758       13.8746    
             142.857       476.190      -142.857    
             142.857       476.190      -142.857    
             476.190       142.857      -142.857    
             476.190       142.857      -142.857    
             256.226      -51.3020      -38.6603    
             256.226      -51.3020      -38.6603    
             102.800      -102.758       13.8746    
             102.800      -102.758       13.8746    
             142.857       476.190      -142.857    
             142.857       476.190      -142.857    
             476.190       142.857      -142.857    
             476.190       142.857      -142.857    
             256.226      -51.3020      -38.6603    
             256.226      -51.3020      -38.6603    
             102.800      -102.758       13.8746    
             102.800      -102.758       13.8746    
             142.857       476.190      -142.857    
             142.857       476.190      -142.857    
             476.190       142.857      -142.857    
             476.190       142.857      -142.857    
             256.226      -51.3020      -38.6603    
             256.226      -51.3020      -38.6603    
             102.800      -102.758       13.8746    
             102.800      -102.758       13.8746    
             142.857       476.190      -142.857    
             142.857       476.190      -142.857    
             476.190       142.857      -142.857    
             476.190       142.857      -142.857    
             256.226      -51.3020      -38.6603    
             256.226      -51.3020      -38.6603    
             102.800      -102.758       13.8746    
             102.800      -102.758       13.8746    
             142.857       476.190      -142.857    
             142.857       476.190      -142.857    
             476.190       142.857      -142.857    
             476.190       142.857      -142.857    
             256.226      -51.3020      -38.6603    
             256.226      -51.3020      -38.6603    
             102.800      -102.758       13.8746    
             102.800      -102.758       13.8746    
             142.857       476.190      -142.857    
             142.857       476.190      -142.857    
             476.190       142.857      -142.857    
             476.190       142.857      -142.857    
             256.226      -51.3020      -38.6603    
             256.226      -51.3020      -38.6603    
             102.800      -102.758       13.8746    
             102.800      -102.758       13.8746    
             142.857       476.190      -142.857    
             142.857       476.190      -142.857    
             476.190       142.857      -142.857    
             476.190       142.857      -142.857    
             256.226      -51.3020      -38.6603    
             256.226      -51.3020      -38.6603    
             102.800      -102.758       13.8746    
             102.800      -102.758       13.8746    
             142.857       476.190      -142.857    
             142.857       476.190      -142.857    
             476.190       142.857      -142.857    
             476.190       142.857      -142.857    
             256.226      -51.3020      -38.6603    
             256.226      -51.3020      -38.6603    
             102.800      -102.758       13.8746    
             102.800      -102.758       13.8746    
             142.857       476.190      -142.857    
             142.857       476.190      -142.857    
             476.190       142.857      -142.857    
             476.190       142.857      -142.857    
             256.226      -51.3020      -38.6603    
             256.226      -51.3020      -38.6603    
             102.800      -102.758       13.8746    
             102.800      -102.758       13.8746    
             142.857       476.190      -142.857    
             142.857       476.190      -142.857    
             476.190       142.857      -142.857    
             476.190       142.857      -142.857    
             256.226      -51.3020      -38.6603    
             256.226      -51.3020      -38.6603    
             102.800      -102.758       13.8746    
             102.800      -102.758       13.8746    
             142.857       476.190      -142.857    
             142.857       476.190      -142.857    
             476.190       142.857      -142.857    
             476.190       142.857      -142.857    
             256.226      -51.3020      -38.6603    
             256.226      -51.3020      -38.6603    
             102.800      -102.758       13.8746    
             102.800      -102.758       13.8746    
             142.857       476.190      -142.857    
             142.857       476.190      -142.857    
             476.190       142.857      -142.857    
             476.190       142.857      -142.857    
             256.226      -51.3020      -38.6603    
             256.226      -51.3020      -38.6603    
             102.800      -102.758       13.8746    
             102.800      -102.758       13.8746    
             142.857       476.190      -142.857    
             142.857       476.190      -142.857    
             476.190       142.857      -142.857    
             476.190       142.857      -142.857    
             256.226      -51.3020      -38.6603    
             256.226      -51.3020      -38.6603    
             102.800      -102.758       13.8746    
             102.800      -102.758       13.8746    
             142.857       476.190      -142.857    
             142.857       476.190      -142.857    
             476.190       142.857      -142.857    
             476.190       142.857      -142.857    
             256.226      -51.3020      -38.6603    
             256.226      -51.3020      -38.6603    
             102.800      -102.758       13.8746    
             102.800      -102.758       13.8746    
             142.857       476.190      -142.857    
             142.857       476.190      -142.857    
             476.190       142.857      -142.857    
             476.190       142.857      -142.857    
             256.226      -51.3020      -38.6603    
             256.226      -51.3020      -38.6603    
             102.800      -102.758       13.8746    
             102.800      -102.758       13.8746    
             142.857       476.190      -142.857    
             142.857       476.190      -142.857    
             476.190       142.857      -142.857    
             476.190       142.857      -142.857    
             256.226      -51.3020      -38.6603    
             256.226      -51.3020      -38.6603    
             102.800      -102.758       13.8746    
             102.800      -102.758       13.8746    
             142.857       476.190      -142.857    
             142.857       476.190      -142.857    
             476.190       142.857      -142.857    
             476.190       142.857      -142.857    
             256.226      -51.3020      -38.6603    
             256.226      -51.3020      -38.6603    
             102.800      -102.758       13.8746    
             102.800      -102.758       13.8746    
             142.857       476.190      -142.857    
             142.857       476.190      -142.857    
             476.190       142.857      -142.857    
             476.190       142.857      -142.857    
             256.226      -51.3020      -38.6603    
             256.226      -51.3020      -38.6603    
             102.800      -102.758       13.8746    
             102.800      -102.758       13.8746    
             142.857       476.190      -142.857    
             142.857       476.190      -142.857    
             476.190       142.857      -142.857    
             476.190       142.857      -142.857    
             256.226      -51.3020      -38.6603    
             256.226      -51.3020      -38.6603    
             102.800      -102.758       13.8746    
             102.800      -102.758       13.8746    
             142.857       476.190      -142.857    
             142.857       476.190      -142.857    
             476.190       142.857      -142.857    
             476.190       142.857      -142.857    
             256.226      -51.3020      -38.6603    
             256.226      -51.3020      -38.6603    
             102.800      -102.758       13.8746    
             102.800      -102.758       13.8746    
             142.857       476.190      -142.857    
             142.857       476.190      -142.857    
             476.190       142.857      -142.857    
             476.190       142.857      -142.857    
             256.226      -51.3020      -38.6603    
             256.226      -51.3020      -38.6603    
             102.800      -102.758       13.8746    
             102.800      -102.758       13.8746    
             142.857       476.190      -142.857    
             142.857       476.190      -142.857    
             476.190       142.857      -142.857    
             476.190       142.857      -142.857    
             256.226      -51.3020      -38.6603    
             256.226      -51.3020      -38.6603    
             102.800      -102.758       13.8746    
             102.800      -102.758       13.8746    
             142.857       476.190      -142.857    
             142.857       476.190      -142.857    
             476.190       142.857      -142.857    
             476.190       142.857      -142.857    
             256.226      -51.3020      -38.6603    
             256.226      -51.3020      -38.6603    
             102.800      -102.758       13.8746    
             102.800      -102.758       13.8746    
             142.857       476.190      -142.857    
             142.857       476.190      -142.857    
             476.190       142.857      -142.857    
             476.190       142.857      -142.857    
             256.226      -51.3020      -38.6603    
             256.226      -51.3020      -38.6603    
             102.800      -102.758       13.8746    
             102.800      -102.758       13.8746    
             142.857       476.190      -142.857    
             142.857       476.190      -142.857    
             476.190       142.857      -142.857    
             476.190       142.857      -142.857    
             256.226      -51.3020      -38.6603    
             256.226      -51.3020      -38.6603    
             102.800      -102.758       13.8746    
             102.800      -102.758       13.8746    
             142.857       476.190      -142.857    
             142.857       476.190      -142.857    
             476.190       142.857      -142.857    
             476.190       142.857      -142.857    
             256.226      -51.3020      -38.6603    
             256.226      -51.3020      -38.6603    
             102.800      -102.758       13.8746    
             102.800      -102.758       13.8746    
             142.857       476.190      -142.857    
             142.857       476.190      -142.857    
             476.190       142.857      -142.857    
             476.190       142.857      -142.857    
             256.226      -51.3020      -38.6603    
             256.226      -51.3020      -38.6603    
             102.800      -102.758       13.8746    
             102.800      -102.758       13.8746    
             142.857       476.190      -142.857    
             142.857       476.190      -142.857    
             476.190       142.857      -142.857    
             476.190       142.857      -142.857    
             256.226      -51.3020      -38.6603    
             256.226      -51.3020      -38.6603    
             102.800      -102.758       13.8746    
             102.800      -102.758       13.8746    
             142.857       476.190      -142.857    
             142.857       476.190      -142.857    
             476.190       142.857      -142.857    
             476.190       142.857      -142.857    
             256.226      -51.3020      -38.6603    
             256.226      -51.3020      -38.6603    
             102.800      -102.758       13.8746    
             102.800      -102.758       13.8746    
             142.857       476.190      -142.857    
             142.857       476.190      -142.857    
             476.190       142.857      -142.857    
             476.190       142.857      -142.857    
             256.226      -51.3020      -38.6603    
             256.226      -51.3020      -38.6603    
             102.800      -102.758       13.8746    
             102.800      -102.758       13.8746    
             142.857       476.190      -142.857    
             142.857       476.190      -142.857    
             476.190       142.857      -142.857    
             476.190       142.857      -142.857    
             256.226      -51.3020      -38.6603    
             256.226      -51.3020      -38.6603    
             102.800      -102.758       13.8746    
             102.800      -102.758       13.8746    
             142.857       476.190      -142.857    
             142.857       476.190      -142.857    
             476.190       142.857      -142.857    
             476.190       142.857      -142.857    
             256.226      -51.3020      -38.6603    
             256.226      -51.3020      -38.6603    
             102.800      -102.758       13.8746    
             102.800      -102.758       13.8746    
             142.857       476.190      -142.857    
             142.857       476.190      -142.857    
             476.190       142.857      -142.857    
             476.190       142.857      -142.857    
             256.226      -51.3020      -38.6603    
             256.226      -51.3020      -38.6603    
             102.800      -102.758       13.8746    
             102.800      -102.758       13.8746    
             142.857       476.190      -142.857    
             142.857       476.190      -142.857    
             476.190       142.857      -142.857    
             476.190       142.857      -142.857    
             256.226      -51.3020      -38.6603    
             256.226      -51.3020      -38.6603    
             102.800      -102.758       13.8746    
             102.800      -102.758       13.8746    
             142.857       476.190      -142.857    
             142.857       476.190      -142.857    
             476.190       142.857      -142.857    
             476.190       142.857      -142.857    
             256.226      -51.3020      -38.6603    
             256.226      -51.3020      -38.6603    
             102.800      -102.758       13.8746    
             102.800      -102.758       13.8746    
             142.857       476.190      -142.857    
             142.857       476.190      -142.857    
             476.190       142.857      -142.857    
             476.190       142.857      -142.857    
             256.226      -51.3020      -38.6603    
             256.226      -51.3020      -38.6603    
             102.800      -102.758       13.8746    
             102.800      -102.758       13.8746    
             142.857       476.190      -142.857    
             142.857       476.190      -142.857    
             476.190       142.857      -142.857    
             476.190       142.857      -142.857    
             256.226      -51.3020      -38.6603    
             256.226      -51.3020      -38.6603    
             102.800      -102.758       13.8746    
             102.800      -102.758       13.8746    
             142.857       476.190      -142.857    
             142.857       476.190      -142.857    
             476.190       142.857      -142.857    
             476.190       142.857      -142.857    
             256.226      -51.3020      -38.6603    
             256.226      -51.3020      -38.6603    
             102.800      -102.758       13.8746    
             102.800      -102.758       13.8746    
             142.857       476.190      -142.857    
             142.857       476.190      -142.857    
             476.190       142.857      -142.857    
             476.190       142.857      -142.857    
             256.226      -51.3020      -38.6603    
             256.226      -51.3020      -38.6603    
             102.800      -102.758       13.8746    
             102.800      -102.758       13.8746    
             142.857       476.190      -142.857    
             142.857       476.190      -142.857    
             476.190       142.857      -142.857    
             476.190       142.857      -142.857    
             256.226      -51.3020      -38.6603    
             256.226      -51.3020      -38.6603    
             102.800      -102.758       13.8746    
             102.800      -102.758       13.8746    
             142.857       476.190      -142.857    
             142.857       476.190      -142.857    
             476.190       142.857      -142.857    
             476.190       142.857      -142.857    
             256.226      -51.3020      -38.6603    
             256.226      -51.3020      -38.6603    
             102.800      -102.758       13.8746    
             102.800      -102.758       13.8746    
             142.857       476.190      -142.857    
             142.857       476.190      -142.857    
             476.190       142.857      -142.857    
             476.190       142.857      -142.857    
             256.226      -51.3020      -38.6603    
             256.226      -51.3020      -38.6603    
             102.800      -102.758       13.8746    
             102.800      -102.758       13.8746    
             142.857       476.190      -142.857    
             142.857       476.190      -142.857    
             476.190       142.857      -142.857    
             476.190       142.857      -142.857    
             256.226      -51.3020      -38.6603    
             256.226      -51.3020      -38.6603    
             102.800      -102.758       13.8746    
             102.800      -102.758       13.8746    
             142.857       476.190      -142.857    
             142.857       476.190      -142.857    
             476.190       142.857      -142.857    
             476.190       142.857      -142.857    
             256.226      -51.3020      -38.6603    
             256.226      -51.3020      -38.6603    
             102.800      -102.758       13.8746    
             102.800      -102.758       13.8746    
             142.857       476.190      -142.857    
             142.857       476.190      -142.857    
             476.190       142.857      -142.857    
             476.190       142.857      -142.857    
             256.226      -51.3020      -38.6603    
             256.226      -51.3020      -38.6603    
             102.800      -102.758       13.8746    
             102.800      -102.758       13.8746    
             142.857       476.190      -142.857    
             142.857       476.190      -142.857    
             476.190       142.857      -142.857    
             476.190       142.857      -142.857    
             256.226      -51.3020      -38.6603    
             256.226      -51.3020      -38.6603    
             102.800      -102.758       13.8746    
             102.800      -102.758       13.8746    
             142.857       476.190      -142.857    
             142.857       476.190      -142.857    
             476.190       142.857      -142.857    
             476.190       142.857      -142.857    
             256.226      -51.3020      -38.6603    
             256.226      -51.3020      -38.6603    
             102.800      -102.758       13.8746    
             102.800      -102.758       13.8746    
             142.857       476.190      -142.857    
             142.857       476.190      -142.857    
             476.190       142.857      -142.857    
             476.190       142.857      -142.857    
             256.226      -51.3020      -38.6603    
             256.226      -51.3020      -38.6603    
             102.800      -102.758       13.8746    
             102.800      -102.758       13.8746    
             142.857       476.190      -142.857    
             142.857       476.190      -142.857    
             476.190       142.857      -142.857    
             476.190       142.857      -142.857    
             256.226      -51.3020      -38.6603    
             256.226      -51.3020      -38.6603    
             102.800      -102.758       13.8746    
             102.800      -102.758       13.8746    
             142.857       476.190      -142.857    
             142.857       476.190      -142.857    
             476.190       142.857      -142.857    
             476.190       142.857      -142.857    
             256.226      -51.3020      -38.6603    
             256.226      -51.3020      -38.6603    
             102.800      -102.758       13.8746    
             102.800      -102.758       13.8746    
             142.857       476.190      -142.857    
             142.857       476.190      -142.857    
             476.190       142.857      -142.857    
             476.190       142.857      -142.857    
             256.226      -51.3020      -38.6603    
             256.226      -51.3020      -38.6603    
             102.800      -102.758       13.8746    
             102.800      -102.758       13.8746    
             142.857       476.190      -142.857    
             142.857       476.190      -142.857    
             476.190       142.857      -142.857    
             476.190       142.857      -142.857    
             256.226      -51.3020      -38.6603    
             256.226      -51.3020      -38.6603    
             102.800      -102.758       13.8746    
             102.800      -102.758       13.8746    
             142.857       476.190      -142.857    
             142.857       476.190      -142.857    
             476.190       142.857      -142.857    
             476.190       142.857      -142.857    
             256.226      -51.3020      -38.6603    
             256.226      -51.3020      -38.6603    
             102.800      -102.758       13.8746    
             102.800      -102.758       13.8746    
             142.857       476.190      -142.857    
             142.857       476.190      -142.857    
             476.190       142.857      -142.857    
             476.190       142.857      -142.857    
             256.226      -51.3020      -38.6603    
             256.226      -51.3020      -38.6603    
             102.800      -102.758       13.8746    
             102.800      -102.758       13.8746    
             142.857       476.190      -142.857    
             142.857       476.190      -142.857    
             476.190       142.857      -142.857    
             476.190       142.857      -142.857    
             256.226      -51.3020      -38.6603    
             256.226      -51.3020      -38.6603    
             102.800      -102.758       13.8746    
             102.800      -102.758       13.8746    
             142.857       476.190      -142.857    
             142.857       476.190      -142.857    
             476.190       142.857      -142.857    
             476.190       142.857      -142.857    
             256.226      -51.3020      -38.6603    
             256.226      -51.3020      -38.6603    
             102.800      -102.758       13.8746    
             102.800      -102.758       13.8746    
             142.857       476.190      -142.857    
             142.857       476.190      -142.857    
             476.190       142.857      -142.857    
             476.190       142.857      -142.857    
             256.226      -51.3020      -38.6603    
             256.226      -51.3020      -38.6603    
             102.800      -102.758       13.8746    
             102.800      -102.758       13.8746    
             142.857       476.190      -142.857    
             142.857       476.190      -142.857    
             476.190       142.857      -142.857    
             476.190       142.857      -142.857    
             256.226      -51.3020      -38.6603    
             256.226      -51.3020      -38.6603    
             102.800      -102.758       13.8746    
             102.800      -102.758       13.8746    
             142.857       476.190      -142.857    
             142.857       476.190      -142.857    
             476.190       142.857      -142.857    
             476.190       142.857      -142.857    
             256.226      -51.3020      -38.6603    
             256.226      -51.3020      -38.6603    
             102.800      -102.758       13.8746    
             102.800      -102.758       13.8746    
             142.857       476.190      -142.857    
             142.857       476.190      -142.857    
             476.190       142.857      -142.857    
             476.190       142.857      -142.857    
             256.226      -51.3020      -38.6603    
             256.226      -51.3020      -38.6603    
             102.800      -102.758       13.8746    
             102.800      -102.758       13.8746    
             142.857       476.190      -142.857    
             142.857       476.190      -142.857    
             476.190       142.857      -142.857    
             476.190       142.857      -142.857    
             256.226      -51.3020      -38.6603    
             256.226      -51.3020      -38.6603    
             102.800      -102.758       13.8746    
             102.800      -102.758       13.8746    
             142.857       476.190      -142.857    
             142.857       476.190      -142.857    
             476.190       142.857      -142.857    
             476.190       142.857      -142.857    
             256.226      -51.3020      -38.6603    
             256.226      -51.3020      -38.6603    
             102.800      -102.758       13.8746    
             102.800      -102.758       13.8746    
             142.857       476.190      -142.857    
             142.857       476.190      -142.857    
             476.190       142.857      -142.857    
             476.190       142.857      -142.857    
             256.226      -51.3020      -38.6603    
             256.226      -51.3020      -38.6603    
             102.800      -102.758       13.8746    
             102.800      -102.758       13.8746    
             142.857       476.190      -142.857    
             142.857       476.190      -142.857    
             476.190       142.857      -142.857    
             476.190       142.857      -142.857    
             256.226      -51.3020      -38.6603    
             256.226      -51.3020      -38.6603    
             102.800      -102.758       13.8746    
             102.800      -102.758       13.8746    
             142.857       476.190      -142.857    
             142.857       476.190      -142.857    
             476.190       142.857      -142.857    
             476.190       142.857      -142.857    
             256.226      -51.3020      -38.6603    
             256.226      -51.3020      -38.6603    
             102.800      -102.758       13.8746    
             102.800      -102.758       13.8746    
             142.857       476.190      -142.857    
             142.857       476.190      -142.857    
             476.190       142.857      -142.857    
             476.190       142.857      -142.857    
             256.226      -51.3020      -38.6603    
             256.226      -51.3020      -38.6603    
             102.800      -102.758       13.8746    
             102.800      -102.758       13.8746    
             142.857       476.190      -142.857    
             142.857       476.190      -142.857    
             476.190       142.857      -142.857    
             476.190       142.857      -142.857    
             256.226      -51.3020      -38.6603    
             256.226      -51.3020      -38.6603    
             102.800      -102.758       13.8746    
             102.800      -102.758       13.8746    
             142.857       476.190      -142.857    
             142.857       476.190      -142.857    
             476.190       142.857      -142.857    
             476.190       142.857      -142.857    
             256.226      -51.3020      -38.6603    
             256.226      -51.3020      -38.6603    
             102.800      -102.758       13.8746    
             102.800      -102.758       13.8746    
             142.857       476.190      -142.857    
             142.857       476.190      -142.857    
             476.190       142.857      -142.857    
             476.190       142.857      -142.857    
             256.226      -51.3020      -38.6603    
             256.226      -51.3020      -38.6603    
             102.800      -102.758       13.8746    
             102.800      -102.758       13.8746    
             142.857       476.190      -142.857    
             142.857       476.190      -142.857    
             476.190       142.857      -142.857    
             476.190       142.857      -142.857    
             256.226      -51.3020      -38.6603    
             256.226      -51.3020      -38.6603    
             102.800      -102.758       13.8746    
             102.800      -102.758       13.8746    
             142.857       476.190      -142.857    
             142.857       476.190      -142.857    
             476.190       142.857      -142.857    
             476.190       142.857      -142.857    
             256.226      -51.3020      -38.6603    
             256.226      -51.3020      -38.6603    
             102.800      -102.758       13.8746    
             102.800      -102.758       13.8746    
             142.857       476.190      -142.857    
             142.857       476.190      -142.857    
             476.190       142.857      -142.857    
             476.190       142.857      -142.857    
             256.226      -51.3020      -38.6603    
             256.226      -51.3020      -38.6603    
             102.800      -102.758       13.8746    
             102.800      -102.758       13.8746    
             142.857       476.190      -142.857    
             142.857       476.190      -142.857    
             476.190       142.857      -142.857    
             476.190       142.857      -142.857    
             256.226      -51.3020      -38.6603    
             256.226      -51.3020      -38.6603    
             102.800      -102.758       13.8746    
             102.800      -102.758       13.8746    
             142.857       476.190      -142.857    
             142.857       476.190      -142.857    
             476.190       142.857      -142.857    
             476.190       142.857      -142.857    
             256.226      -51.3020      -38.6603    
             256.226      -51.3020      -38.6603    
             102.800      -102.758       13.8746    
             102.800      -102.758       13.8746    
             142.857       476.190      -142.857    
             142.857       476.190      -142.857    
             476.190       142.857      -142.857    
             476.190       142.857      -142.857    
             256.226      -51.3020      -38.6603    
             256.226      -51.3020      -38.6603    
             102.800      -102.758       13.8746    
             102.800      -102.758       13.8746    
             142.857       476.190      -142.857    
             142.857       476.190      -142.857    
             476.190       142.857      -142.857    
             476.190       142.857      -142.857    
             256.226      -51.3020      -38.6603    
             256.226      -51.3020      -38.6603    
             102.800      -102.758       13.8746    
             102.800      -102.758       13.8746    
             142.857       476.190      -142.857    
             142.857       476.190      -142.857    
             476.190       142.857      -142.857    
             476.190       142.857      -142.857    
             256.226      -51.3020      -38.6603    
             256.226      -51.3020      -38.6603    
             102.800      -102.758       13.8746    
             102.800      -102.758       13.8746    
             142.857       476.190      -142.857    
             142.857       476.190      -142.857    
             476.190       142.857      -142.857    
             476.190       142.857      -142.857    
             256.226      -51.3020      -38.6603    
             256.226      -51.3020      -38.6603    
             102.800      -102.758       13.8746    
             102.800      -102.758       13.8746    
             142.857       476.190      -142.857    
             142.857       476.190      -142.857    
             476.190       142.857      -142.857    
             476.190       142.857      -142.857    
             256.226      -51.3020      -38.6603    
             256.226      -51.3020      -38.6603    
             102.800      -102.758       13.8746    
             102.800      -102.758       13.8746    
             142.857       476.190      -142.857    
             142.857       476.190      -142.857    
             476.190       142.857      -142.857    
             476.190       142.857      -142.857    
             256.226      -51.3020      -38.6603    
             256.226      -51.3020      -38.6603    
             102.800      -102.758       13.8746    
             102.800      -102.758       13.8746    
             142.857       476.190      -142.857    
             142.857       476.190      -142.857    
             476.190       142.857      -142.857    
             476.190       142.857      -142.857    
             256.226      -51.3020      -38.6603    
             256.226      -51.3020      -38.6603    
             102.800      -102.758       13.8746    
             102.800      -102.758       13.8746    
             142.857       476.190      -142.857    
             142.857       476.190      -142.857    
             476.190       142.857      -142.857    
             476.190       142.857      -142.857    
             256.226      -51.3020      -38.6603    
             256.226      -51.3020      -38.6603    
             102.800      -102.758       13.8746    
             102.800      -102.758       13.8746    
             142.857       476.190      -142.857    
             142.857       476.190      -142.857    
             476.190       142.857      -142.857    
             476.190       142.857      -142.857    
             256.226      -51.3020      -38.6603    
             256.226      -51.3020      -38.6603    
             102.800      -102.758       13.8746    
             102.800      -102.758       13.8746    
             142.857       476.190      -142.857    
             142.857       476.190      -142.857    
             476.190       142.857      -142.857    
             476.190       142.857      -142.857    
             256.226      -51.3020      -38.6603    
             256.226      -51.3020      -38.6603    
             102.800      -102.758       13.8746    
             102.800      -102.758       13.8746    
             142.857       476.190      -142.857    
             142.857       476.190      -142.857    
             476.190       142.857      -142.857    
             476.190       142.857      -142.857    
             256.226      -51.3020      -38.6603    
             256.226      -51.3020      -38.6603    
             102.800      -102.758       13.8746    
             102.800      -102.758       13.8746    
             142.857       476.190      -142.857    
             142.857       476.190      -142.857    
             476.190       142.857      -142.857    
             476.190       142.857      -142.857    
             256.226      -51.3020      -38.6603    
             256.226      -51.3020      -38.6603    
             102.800      -102.758       13.8746    
             102.800      -102.758       13.8746    
             142.857       476.190      -142.857    
             142.857       476.190      -142.857    
             476.190       142.857      -142.857    
             476.190       142.857      -142.857    
             256.226      -51.3020      -38.6603    
             256.226      -51.3020      -38.6603    
             102.800      -102.758       13.8746    
             102.800      -102.758       13.8746    
             142.857       476.190      -142.857    
             142.857       476.190      -142.857    
             476.190       142.857      -142.857    
             476.190       142.857      -142.857    
             256.226      -51.3020      -38.6603    
             256.226      -51.3020      -38.6603    
             102.800      -102.758       13.8746    
             102.800      -102.758       13.8746    
             142.857       476.190      -142.857    
             142.857       476.190      -142.857    
             476.190       142.857      -142.857    
             476.190       142.857      -142.857    
             256.226      -51.3020      -38.6603    
             256.226      -51.3020      -38.6603    
             102.800      -102.758       13.8746    
             102.800      -102.758       13.8746    
             142.857       476.190      -142.857    
             142.857       476.190      -142.857    
             476.190       142.857      -142.857    
             476.190       142.857      -142.857    
             256.226      -51.3020      -38.6603    
             256.226      -51.3020      -38.6603    
             102.800      -102.758       13.8746    
             102.800      -102.758       13.8746    
             142.857       476.190      -142.857    
             142.857       476.190      -142.857    
             476.190       142.857      -142.857    
             476.190       142.857      -142.857    
             256.226      -51.3020      -38.6603    
             256.226      -51.3020      -38.6603    
             102.800      -102.758       13.8746    
             102.800      -102.758       13.8746    
             142.857       476.190      -142.857    
             142.857       476.190      -142.857    
             476.190       142.857      -142.857    
             476.190       142.857      -142.857    
             256.226      -51.3020      -38.6603    
             256.226      -51.3020      -38.6603    
             102.800      -102.758       13.8746    
             102.800      -102.758       13.8746    
             142.857       476.190      -142.857    
             142.857       476.190      -142.857    
             476.190       142.857      -142.857    
             476.190       142.857      -142.857    
             256.226      -51.3020      -38.6603    
             256.226      -51.3020      -38.6603    
             102.800      -102.758       13.8746    
             102.800      -102.758       13.8746    
             142.857       476.190      -142.857    
             142.857       476.190      -142.857    
             476.190       142.857      -142.857    
             476.190       142.857      -142.857    
             256.226      -51.3020      -38.6603    
             256.226      -51.3020      -38.6603    
             102.800      -102.758       13.8746    
             102.800      -102.758       13.8746    
             142.857       476.190      -142.857    
             142.857       476.190      -142.857    
             476.190       142.857      -142.857    
             476.190       142.857      -142.857    
             256.226      -51.3020      -38.6603    
             256.226      -51.3020      -38.6603    
             102.800      -102.758       13.8746    
             102.800      -102.758       13.8746    
             142.857       476.190      -142.857    
             142.857       476.190      -142.857    
             476.190       142.857      -142.857    
             476.190       142.857      -142.857    
             256.226      -51.3020      -38.6603    
             256.226      -51.3020      -38.6603    
             102.800      -102.758       13.8746    
             102.800      -102.758       13.8746    
             142.857       476.190      -142.857    
             142.857       476.190      -142.857    
             476.190       142.857      -142.857    
             476.190       142.857      -142.857    
             256.226      -51.3020      -38.6603    
             256.226      -51.3020      -38.6603    
             102.800      -102.758       13.8746    
             102.800      -102.758       13.8746    
             142.857       476.190      -142.857    
             142.857       476.190      -142.857    
             476.190       142.857      -142.857    
             476.190       142.857      -142.857    
             256.226      -51.3020      -38.6603    
             256.226      -51.3020      -38.6603    
             102.800      -102.758       13.8746    
             102.800      -102.758       13.8746    
             142.857       476.190      -142.857    
             142.857       476.190      -142.857    
             476.190       142.857      -142.857    
             476.190       142.857      -142.857    
             256.226      -51.3020      -38.6603    
             256.226      -51.3020      -38.6603    
             102.800      -102.758       13.8746    
             102.800      -102.758       13.8746    
             142.857       476.190      -142.857    
             142.857       476.190      -142.857    
             476.190       142.857      -142.857    
             476.190       142.857      -142.857    
             256.226      -51.3020      -38.6603    
             256.226      -51.3020      -38.6603    
             102.800      -102.758       13.8746    
             102.800      -102.758       13.8746    
             142.857       476.190      -142.857    
             142.857       476.190      -142.857    
             476.190       142.857      -142.857    
             476.190       142.857      -142.857    
             256.226      -51.3020      -38.6603    
             256.226      -51.3020      -38.6603    
             102.800      -102.758       13.8746    
             102.800      -102.758       13.8746    
             142.857       476.190      -142.857    
             142.857       476.190      -142.857    
             476.190       142.857      -142.857    
             476.190       142.857      -142.857    
             256.226      -51.3020      -38.6603    
             256.226      -51.3020      -38.6603    
             102.800      -102.758       13.8746    
             102.800      -102.758       13.8746    
             142.857       476.190      -142.857    
             142.857       476.190      -142.857    
             476.190       142.857      -142.857    
             476.190       142.857      -142.857    
             256.226      -51.3020      -38.6603    
             256.226      -51.3020      -38.6603    
             102.800      -102.758       13.8746    
             102.800      -102.758       13.8746    
             142.857       476.190      -142.857    
             142.857       476.190      -142.857    
             476.190       142.857      -142.857    
             476.190       142.857      -142.857    
             256.226      -51.3020      -38.6603    
             256.226      -51.3020      -38.6603    
             102.800      -102.758       13.8746    
             102.800      -102.758       13.8746    
             142.857       476.190      -142.857    
             142.857       476.190      -142.857    
             476.190       142.857      -142.857    
             476.190       142.857      -142.857    
             256.226      -51.3020      -38.6603    
             256.226      -51.3020      -38.6603    
             102.800      -102.758       13.8746    
             102.800      -102.758       13.8746    
             142.857       476.190      -142.857    
             142.857       476.190      -142.857    
             476.190       142.857      -142.857    
             476.190       142.857      -142.857    
             256.226      -51.3020      -38.6603    
             256.226      -51.3020      -38.6603    
             102.800      -102.758       13.8746    
             102.800      -102.758       13.8746    
             142.857       476.190      -142.857    
             142.857       476.190      -142.857    
             476.190       142.857      -142.857    
             476.190       142.857      -142.857    
             256.226      -51.3020      -38.6603    
             256.226      -51.3020      -38.6603    
             102.800      -102.758       13.8746    
             102.800      -102.758       13.8746    
             142.857       476.190      -142.857    
             142.857       476.190      -142.857    
             476.190       142.857      -142.857    
             476.190       142.857      -142.857    
             256.226      -51.3020      -38.6603    
             256.226      -51.3020      -38.6603    
             102.800      -102.758       13.8746    
             102.800      -102.758       13.8746    
             142.857       476.190      -142.857    
             142.857       476.190      -142.857    
             476.190       142.857      -142.857    
             476.190       142.857      -142.857    
             256.226      -51.3020      -38.6603    
             256.226      -51.3020      -38.6603    
             102.800      -102.758       13.8746    
             102.800      -102.758       13.8746    
             142.857       476.190      -142.857    
             142.857       476.190      -142.857    
             476.190       142.857      -142.857    
             476.190       142.857      -142.857    
             256.226      -51.3020      -38.6603    
             256.226      -51.3020      -38.6603    
             102.800      -102.758       13.8746    
             102.800      -102.758       13.8746    
             142.857       476.190      -142.857    
             142.857       476.190      -142.857    
             476.190       142.857      -142.857    
             476.190       142.857      -142.857    
             256.226      -51.3020      -38.6603    
             256.226      -51.3020      -38.6603    
             102.800      -102.758       13.8746    
             102.800      -102.758       13.8746    
             142.857       476.190      -142.857    
             142.857       476.190      -142.857    
             476.190       142.857      -142.857    
             476.190       142.857      -142.857    
             256.226      -51.3020      -38.6603    
             256.226      -51.3020      -38.6603    
             102.800      -102.758       13.8746    
             102.800      -102.758       13.8746    
             142.857       476.190      -142.857    
             142.857       476.190      -142.857    
             476.190       142.857      -142.857    
             476.190       142.857      -142.857    
             256.226      -51.3020      -38.6603    
             256.226      -51.3020      -38.6603    
             102.800      -102.758       13.8746    
             102.800      -102.758       13.8746    
             142.857       476.190      -142.857    
             142.857       476.190      -142.857    
             476.190       142.857      -142.857    
             476.190       142.857      -142.857    
             256.226      -51.3020      -38.6603    
             256.226      -51.3020      -38.6603    
             102.800      -102.758       13.8746    
             102.800      -102.758       13.8746    
             142.857       476.190      -142.857    
             142.857       476.190      -142.857    
             476.190       142.857      -142.857    
             476.190       142.857      -142.857    
             256.226      -51.3020      -38.6603    
             256.226      -51.3020      -38.6603    
             102.800      -102.758       13.8746    
             102.800      -102.758       13.8746    
             142.857       476.190      -142.857    
             142.857       476.190      -142.857    
             476.190       142.857      -142.857    
             476.190       142.857      -142.857    
             256.226      -51.3020      -38.6603    
             256.226      -51.3020      -38.6603    
             102.800      -102.758       13.8746    
             102.800      -102.758       13.8746    
             142.857       476.190      -142.857    
             142.857       476.190      -142.857    
             476.190       142.857      -142.857    
             476.190       142.857      -142.857    
             256.226      -51.3020      -38.6603    
             256.226      -51.3020      -38.6603    
             102.800      -102.758       13.8746    
             102.800      -102.758       13.8746    
             142.857       476.190      -142.857    
             142.857       476.190      -142.857    
             476.190       142.857      -142.857    
             476.190       142.857      -142.857    
             256.226      -51.3020      -38.6603    
             256.226      -51.3020      -38.6603    
             102.800      -102.758       13.8746    
             102.800      -102.758       13.8746    
             142.857       476.190      -142.857    
             142.857       476.190      -142.857    
             476.190       142.857      -142.857    
             476.190       142.857      -142.857    
             256.226      -51.3020      -38.6603    
             256.226      -51.3020      -38.6603    
             102.800      -102.758       13.8746    
             102.800      -102.758       13.8746    
             142.857       476.190      -142.857    
             142.857       476.190      -142.857    
             476.190       142.857      -142.857    
             476.190       142.857      -142.857    
             256.226      -51.3020      -38.6603    
             256.226      -51.3020      -38.6603    
             102.800      -102.758       13.8746    
             102.800      -102.758       13.8746    
             142.857       476.190      -142.857    
             142.857       476.190      -142.857    
             476.190       142.857      -142.857    
             476.190       142.857      -142.857    
             256.226      -51.3020      -38.6603    
             256.226      -51.3020      -38.6603    
             102.800      -102.758       13.8746    
             102.800      -102.758       13.8746    
             142.857       476.190      -142.857    
             142.857       476.190      -142.857    
             476.190       142.857      -142.857    
             476.190       142.857      -142.857    
             256.226      -51.3020      -38.6603    
             256.226      -51.3020      -38.6603    
             102.800      -102.758       13.8746    
             102.800      -102.758       13.8746    
             142.857       476.190      -142.857    
             142.857       476.190      -142.857    
             476.190       142.857      -142.857    
             476.190       142.857      -142.857    
             256.226      -51.3020      -38.6603    
             256.226      -51.3020      -38.6603    
             102.800      -102.758       13.8746    
             102.800      -102.758       13.8746    
             142.857       476.190      -142.857    
             142.857       476.190      -142.857    
             476.190       142.857      -142.857    
             476.190       142.857      -142.857    
             256.226      -51.3020      -38.6603    
             256.226      -51.3020      -38.6603    
             102.800      -102.758       13.8746    
             102.800      -102.758       13.8746    
             142.857       476.190      -142.857    
             142.857       476.190      -142.857    
             476.190       142.857      -142.857    
             476.190       142.857      -142.857    
             256.226      -51.3020      -38.6603    
             256.226      -51.3020      -38.6603    
             102.800      -102.758       13.8746    
             102.800      -102.758       13.8746    
             142.857       476.190      -142.857    
             142.857       476.190      -142.857    
             476.190       142.857      -142.857    
             476.190       142.857      -142.857    
             256.226      -51.3020      -38.6603    
             256.226      -51.3020      -38.6603    
             102.800      -102.758       13.8746    
             102.800      -102.758       13.8746    
             142.857       476.190      -142.857    
             142.857       476.190      -142.857    
             476.190       142.857      -142.857    
             476.190       142.857      -142.857    
             256.226      -51.3020      -38.6603    
             256.226      -51.3020      -38.6603    
             102.800      -102.758       13.8746    
             102.800      -102.758       13.8746    
             142.857       476.190      -142.857    
             142.857       476.190      -142.857    
             476.190       142.857      -142.857    
             476.190       142.857      -142.857    
        35        33        41        42        53        51        41        42
        31        33        43        44        49        51        61        62
        22        16        20        18        20        18        22        16
        16        14        22        20        18        14        20        22
       217       215       223       224       235       233       223       224
       213       215       225       226       231       233       243       244
       204       198       202       200       202       200       204       198
       198       196       204       202       200       196       202       204
       399       397       405       406       417       415       405       406
       395       397       407       408       413       415       425       426
       386       380       384       382       384       382       386       380
       380       378       386       384       382       378       384       386
       581       579       587       588       599       597       587       588
       577       579       589       590       595       597       607       608
       568       562       566       564       566       564       568       562
       562       560       568       566       564       560       566       568
       763       761       769       770       781       779       769       770
       759       761       771       772       777       779       789       790
       750       744       748       746       748       746       750       744
       744       742       750       748       746       742       748       750
       945       943       951       952       963       961       951       952
       941       943       953       954       959       961       971       972
       932       926       930       928       930       928       932       926
       926       924       932       930       928       924       930       932
      1127      1125      1133      1134      1145      1143      1133      1134
      1123      1125      1135      1136      1141      1143      1153      1154
      1114      1108      1112      1110      1112      1110      1114      1108
      1108      1106      1114      1112      1110      1106      1112      1114
      1309      1307      1315      1316      1327      1325      1315      1316
      1305      1307      1317      1318      1323      1325      1335      1336
      1296      1290      1294      1292      1294      1292      1296      1290
      1290      1288      1296      1294      1292      1288      1294      1296
      1491      1489      1497      1498      1509      1507      1497      1498
      1487      1489      1499      1500      1505      1507      1517      1518
      1478      1472      1476      1474      1476      1474      1478      1472
      1472      1470      1478      1476      1474      1470      1476      1478
      1673      1671      1679      1680      1691      1689      1679      1680
      1669      1671      1681      1682      1687      1689      1699      1700
      1660      1654      1658      1656      1658      1656      1660      1654
      1654      1652      1660      1658      1656      1652      1658      1660
      1855      1853      1861      1862      1873      1871      1861      1862
      1851      1853      1863      1864      1869      1871      1881      1882
      1842      1836      1840      1838      1840      1838      1842      1836
      1836      1834      1842      1840      1838      1834      1840      1842
      2037      2035      2043      2044      2055      2053      2043      2044
      2033      2035      2045      2046      2051      2053      2063      2064
      2024      2018      2022      2020      2022      2020      2024      2018
      2018      2016      2024      2022      2020      2016      2022      2024
      2219      2217      2225      2226      2237      2235      2225      2226
      2215      2217      2227      2228      2233      2235      2245      2246
      2206      2200      2204      2202      2204      2202      2206      2200
      2200      2198      2206      2204      2202      2198      2204      2206
      2401      2399      2407      2408      2419      2417      2407      2408
      2397      2399      2409      2410      2415      2417      2427      2428
      2388      2382      2386      2384      2386      2384      2388      2382
      2382      2380      2388      2386      2384      2380      2386      2388
      2583      2581      2589      2590      2601      2599      2589      2590
      2579      2581      2591      2592      2597      2599      2609      2610
      2570      2564      2568      2566      2568      2566      2570      2564
      2564      2562      2570      2568      2566      2562      2568      2570
      2765      2763      2771      2772      2783      2781      2771      2772
      2761      2763      2773      2774      2779      2781      2791      2792
      2752      2746      2750      2748      2750      2748      2752      2746
      2746      2744      2752      2750      2748      2744      2750      2752
      2947      2945      2953      2954      2965      2963      2953      2954
      2943      2945      2955      2956      2961      2963      2973      2974
      2934      2928      2932      2930      2932      2930      2934      2928
      2928      2926      2934      2932      2930      2926      2932      2934
      3129      3127      3135      3136      3147      3145      3135      3136
      3125      3127      3137      3138      3143      3145      3155      3156
      3116      3110      3114      3112      3114      3112      3116      3110
      3110      3108      3116      3114      3112      3108      3114      3116
      3311      3309      3317      3318      3329      3327      3317      3318
      3307      3309      3319      3320      3325      3327      3337      3338
      3298      3292      3296      3294      3296      3294      3298      3292
      3292      3290      3298      3296      3294      3290      3296      3298
      3493      3491      3499      3500      3511      3509      3499      3500
      3489      3491      3501      3502      3507      3509      3519      3520
      3480      3474      3478      3476      3478      3476      3480      3474
      3474      3472      3480      3478      3476      3472      3478      3480
      3675      3673      3681      3682      3693      3691      3681      3682
      3671      3673      3683      3684      3689      3691      3701      3702
      3662      3656      3660      3658      3660      3658      3662      3656
      3656      3654      3662      3660      3658      3654      3660      3662
      3857      3855      3863      3864      3875      3873      3863      3864
      3853      3855      3865      3866      3871      3873      3883      3884
      3844      3838      3842      3840      3842      3840      3844      3838
      3838      3836      3844      3842      3840      3836      3842      3844
      4039      4037      4045      4046      4057      4055      4045      4046
      4035      4037      4047      4048      4053      4055      4065      4066
      4026      4020      4024      4022      4024      4022      4026      4020
      4020      4018      4026      4024      4022      4018      4024      4026
      4221      4219      4227      4228      4239      4237      4227      4228
      4217      4219      4229      4230      4235      4237      4247      4248
      4208      4202      4206      4204      4206      4204      4208      4202
      4202      4200      4208      4206      4204      4200      4206      4208
      4403      4401      4409      4410      4421      4419      4409      4410
      4399      4401      4411      4412      4417      4419      4429      4430
      4390      4384      4388      4386      4388      4386      4390      4384
      4384      4382      4390      4388      4386      4382      4388      4390
      4585      4583      4591      4592      4603      4601      4591      4592
      4581      4583      4593      4594      4599      4601      4611      4612
      4572      4566      4570      4568      4570      4568      4572      4566
      4566      4564      4572      4570      4568      4564      4570      4572
      4767      4765      4773      4774      4785      4783      4773      4774
      4763      4765      4775      4776      4781      4783      4793      4794
      4754      4748      4752      4750      4752      4750      4754      4748
      4748      4746      4754      4752      4750      4746      4752      4754
      4949      4947      4955      4956      4967      4965      4955      4956
      4945      4947      4957      4958      4963      4965      4975      4976
      4936      4930      4934      4932      4934      4932      4936      4930
      4930      4928      4936      4934      4932      4928      4934      4936
      5131      5129      5137      5138      5149      5147      5137      5138
      5127      5129      5139      5140      5145      5147      5157      5158
      5118      5112      5116      5114      5116      5114      5118      5112
      5112      5110      5118      5116      5114      5110      5116      5118
      5313      5311      5319      5320      5331      5329      5319      5320
      5309      5311      5321      5322      5327      5329      5339      5340
      5300      5294      5298      5296      5298      5296      5300      5294
      5294      5292      5300      5298      5296      5292      5298      5300
      5495      5493      5501      5502      5513      5511      5501      5502
      5491      5493      5503      5504      5509      5511      5521      5522
      5482      5476      5480      5478      5480      5478      5482      5476
      5476      5474      5482      5480      5478      5474      5480      5482
      5677      5675      5683      5684      5695      5693      5683      5684
      5673      5675      5685      5686      5691      5693      5703      5704
      5664      5658      5662      5660      5662      5660      5664      5658
      5658      5656      5664      5662      5660      5656      5662      5664
      5859      5857      5865      5866      5877      5875      5865      5866
      5855      5857      5867      5868      5873      5875      5885      5886
      5846      5840      5844      5842      5844      5842      5846      5840
      5840      5838      5846      5844      5842      5838      5844      5846
      6041      6039      6047      6048      6059      6057      6047      6048
      6037      6039      6049      6050      6055      6057      6067      6068
      6028      6022      6026      6024      6026      6024      6028      6022
      6022      6020      6028      6026      6024      6020      6026      6028
      6223      6221      6229      6230      6241      6239      6229      6230
      6219      6221      6231      6232      6237      6239      6249      6250
      6210      6204      6208      6206      6208      6206      6210      6204
      6204      6202      6210      6208      6206      6202      6208      6210
      6405      6403      6411      6412      6423      6421      6411      6412
      6401      6403      6413      6414      6419      6421      6431      6432
      6392      6386      6390      6388      6390      6388      6392      6386
      6386      6384      6392      6390      6388      6384      6390      6392
      6587      6585      6593      6594      6605      6603      6593      6594
      6583      6585      6595      6596      6601      6603      6613      6614
      6574      6568      6572      6570      6572      6570      6574      6568
      6568      6566      6574      6572      6570      6566      6572      6574
      6769      6767      6775      6776      6787      6785      6775      6776
      6765      6767      6777      6778      6783      6785      6795      6796
      6756      6750      6754      6752      6754      6752      6756      6750
      6750      6748      6756      6754      6752      6748      6754      6756
      6951      6949      6957      6958      6969      6967      6957      6958
      6947      6949      6959      6960      6965      6967      6977      6978
      6938      6932      6936      6934      6936      6934      6938      6932
      6932      6930      6938      6936      6934      6930      6936      6938
      7133      7131      7139      7140      7151      7149      7139      7140
      7129      7131      7141      7142      7147      7149      7159      7160
      7120      7114      7118      7116      7118      7116      7120      7114
      7114      7112      7120      7118      7116      7112      7118      7120
      7315      7313      7321      7322      7333      7331      7321      7322
      7311      7313      7323      7324      7329      7331      7341      7342
      7302      7296      7300      7298      7300      7298      7302      7296
      7296      7294      7302      7300      7298      7294      7300      7302
      7497      7495      7503      7504      7515      7513      7503      7504
      7493      7495      7505      7506      7511      7513      7523      7524
      7484      7478      7482      7480      7482      7480      7484      7478
      7478      7476      7484      7482      7480      7476      7482      7484
      7679      7677      7685      7686      7697      7695      7685      7686
      7675      7677      7687      7688      7693      7695      7705      7706
      7666      7660      7664      7662      7664      7662      7666      7660
      7660      7658      7666      7664      7662      7658      7664      7666
      7861      7859      7867      7868      7879      7877      7867      7868
      7857      7859      7869      7870      7875      7877      7887      7888
      7848      7842      7846      7844      7846      7844      7848      7842
      7842      7840      7848      7846      7844      7840      7846      7848
      8043      8041      8049      8050      8061      8059      8049      8050
      8039      8041      8051      8052      8057      8059      8069      8070
      8030      8024      8028      8026      8028      8026      8030      8024
      8024      8022      8030      8028      8026      8022      8028      8030
      8225      8223      8231      8232      8243      8241      8231      8232
      8221      8223      8233      8234      8239      8241      8251      8252
      8212      8206      8210      8208      8210      8208      8212      8206
      8206      8204      8212      8210      8208      8204      8210      8212
      8407      8405      8413      8414      8425      8423      8413      8414
      8403      8405      8415      8416      8421      8423      8433      8434
      8394      8388      8392      8390      8392      8390      8394      8388
      8388      8386      8394      8392      8390      8386      8392      8394
      8589      8587      8595      8596      8607      8605      8595      8596
      8585      8587      8597      8598      8603      8605      8615      8616
      8576      8570      8574      8572      8574      8572      8576      8570
      8570      8568      8576      8574      8572      8568      8574      8576
      8771      8769      8777      8778      8789      8787      8777      8778
      8767      8769      8779      8780      8785      8787      8797      8798
      8758      8752      8756      8754      8756      8754      8758      8752
      8752      8750      8758      8756      8754      8750      8756      8758
      8953      8951      8959      8960      8971      8969      8959      8960
      8949      8951      8961      8962      8967      8969      8979      8980
      8940      8934      8938      8936      8938      8936      8940      8934
      8934      8932      8940      8938      8936      8932      8938      8940
      9135      9133      9141      9142      9153      9151      9141      9142
      9131      9133      9143      9144      9149      9151      9161      9162
      9122      9116      9120      9118      9120      9118      9122      9116
      9116      9114      9122      9120      9118      9114      9120      9122
      9317      9315      9323      9324      9335      9333      9323      9324
      9313      9315      9325      9326      9331      9333      9343      9344
      9304      9298      9302      9300      9302      9300      9304      9298
      9298      9296      9304      9302      9300      9296      9302      9304
      9499      9497      9505      9506      9517      9515      9505      9506
      9495      9497      9507      9508      9513      9515      9525      9526
      9486      9480      9484      9482      9484      9482      9486      9480
      9480      9478      9486      9484      9482      9478      9484      9486
      9681      9679      9687      9688      9699      9697      9687      9688
      9677      9679      9689      9690      9695      9697      9707      9708
      9668      9662      9666      9664      9666      9664      9668      9662
      9662      9660      9668      9666      9664      9660      9666      9668
      9863      9861      9869      9870      9881      9879      9869      9870
      9859      9861      9871      9872      9877      9879      9889      9890
      9850      9844      9848      9846      9848      9846      9850      9844
      9844      9842      9850      9848      9846      9842      9848      9850
     10045     10043     10051     10052     10063     10061     10051     10052
     10041     10043     10053     10054     10059     10061     10071     10072
     10032     10026     10030     10028     10030     10028     10032     10026
     10026     10024     10032     10030     10028     10024     10030     10032
     10227     10225     10233     10234     10245     10243     10233     10234
     10223     10225     10235     10236     10241     10243     10253     10254
     10214     10208     10212     10210     10212     10210     10214     10208
     10208     10206     10214     10212     10210     10206     10212     10214
     10409     10407     10415     10416     10427     10425     10415     10416
     10405     10407     10417     10418     10423     10425     10435     10436
     10396     10390     10394     10392     10394     10392     10396     10390
     10390     10388     10396     10394     10392     10388     10394     10396
     10591     10589     10597     10598     10609     10607     10597     10598
     10587     10589     10599     10600     10605     10607     10617     10618
     10578     10572     10576     10574     10576     10574     10578     10572
     10572     10570     10578     10576     10574     10570     10576     10578
     10773     10771     10779     10780     10791     10789     10779     10780
     10769     10771     10781     10782     10787     10789     10799     10800
     10760     10754     10758     10756     10758     10756     10760     10754
     10754     10752     10760     10758     10756     10752     10758     10760
     10955     10953     10961     10962     10973     10971     10961     10962
     10951     10953     10963     10964     10969     10971     10981     10982
     10942     10936     10940     10938     10940     10938     10942     10936
     10936     10934     10942     10940     10938     10934     10940     10942
     11137     11135     11143     11144     11155     11153     11143     11144
     11133     11135     11145     11146     11151     11153     11163     11164
     11124     11118     11122     11120     11122     11120     11124     11118
     11118     11116     11124     11122     11120     11116     11122     11124
     11319     11317     11325     11326     11337     11335     11325     11326
     11315     11317     11327     11328     11333     11335     11345     11346
     11306     11300     11304     11302     11304     11302     11306     11300
     11300     11298     11306     11304     11302     11298     11304     11306
     11501     11499     11507     11508     11519     11517     11507     11508
     11497     11499     11509     11510     11515     11517     11527     11528
     11488     11482     11486     11484     11486     11484     11488     11482
     11482     11480     11488     11486     11484     11480     11486     11488
     11683     11681     11689     11690     11701     11699     11689     11690
     11679     11681     11691     11692     11697     11699     11709     11710
     11670     11664     11668     11666     11668     11666     11670     11664
     11664     11662     11670     11668     11666     11662     11668     11670
     11865     11863     11871     11872     11883     11881     11871     11872
     11861     11863     11873     11874     11879     11881     11891     11892
     11852     11846     11850     11848     11850     11848     11852     11846
     11846     11844     11852     11850     11848     11844     11850     11852
     12047     12045     12053     12054     12065     12063     12053     12054
     12043     12045     12055     12056     12061     12063     12073     12074
     12034     12028     12032     12030     12032     12030     12034     12028
     12028     12026     12034     12032     12030     12026     12032     12034
     12229     12227     12235     12236     12247     12245     12235     12236
     12225     12227     12237     12238     12243     12245     12255     12256
     12216     12210     12214     12212     12214     12212     12216     12210
     12210     12208     12216     12214     12212     12208     12214     12216
     12411     12409     12417     12418     12429     12427     12417     12418
     12407     12409     12419     12420     12425     12427     12437     12438
     12398     12392     12396     12394     12396     12394     12398     12392
     12392     12390     12398     12396     12394     12390     12396     12398
     12593     12591     12599     12600     12611     12609     12599     12600
     12589     12591     12601     12602     12607     12609     12619     12620
     12580     12574     12578     12576     12578     12576     12580     12574
     12574     12572     12580     12578     12576     12572     12578     12580
     12775     12773     12781     12782     12793     12791     12781     12782
     12771     12773     12783     12784     12789     12791     12801     12802
     12762     12756     12760     12758     12760     12758     12762     12756
     12756     12754     12762     12760     12758     12754     12760     12762
     12957     12955     12963     12964     12975     12973     12963     12964
     12953     12955     12965     12966     12971     12973     12983     12984
     12944     12938     12942     12940     12942     12940     12944     12938
     12938     12936     12944     12942     12940     12936     12942     12944
     13139     13137     13145     13146     13157     13155     13145     13146
     13135     13137     13147     13148     13153     13155     13165     13166
     13126     13120     13124     13122     13124     13122     13126     13120
     13120     13118     13126     13124     13122     13118     13124     13126
     13321     13319     13327     13328     13339     13337     13327     13328
     13317     13319     13329     13330     13335     13337     13347     13348
     13308     13302     13306     13304     13306     13304     13308     13302
     13302     13300     13308     13306     13304     13300     13306     13308
     13503     13501     13509     13510     13521     13519     13509     13510
     13499     13501     13511     13512     13517     13519     13529     13530
     13490     13484     13488     13486     13488     13486     13490     13484
     13484     13482     13490     13488     13486     13482     13488     13490
     13685     13683     13691     13692     13703     13701     13691     13692
     13681     13683     13693     13694     13699     13701     13711     13712
     13672     13666     13670     13668     13670     13668     13672     13666
     13666     13664     13672     13670     13668     13664     13670     13672
     13867     13865     13873     13874     13885     13883     13873     13874
     13863     13865     13875     13876     13881     13883     13893     13894
     13854     13848     13852     13850     13852     13850     13854     13848
     13848     13846     13854     13852     13850     13846     13852     13854
     14049     14047     14055     14056     14067     14065     14055     14056
     14045     14047     14057     14058     14063     14065     14075     14076
     14036     14030     14034     14032     14034     14032     14036     14030
     14030     14028     14036     14034     14032     14028     14034     14036
     14231     14229     14237     14238     14249     14247     14237     14238
     14227     14229     14239     14240     14245     14247     14257     14258
     14218     14212     14216     14214     14216     14214     14218     14212
     14212     14210     14218     14216     14214     14210     14216     14218
     14413     14411     14419     14420     14431     14429     14419     14420
     14409     14411     14421     14422     14427     14429     14439     14440
     14400     14394     14398     14396     14398     14396     14400     14394
     14394     14392     14400     14398     14396     14392     14398     14400
     14595     14593     14601     14602     14613     14611     14601     14602
     14591     14593     14603     14604     14609     14611     14621     14622
     14582     14576     14580     14578     14580     14578     14582     14576
     14576     14574     14582     14580     14578     14574     14580     14582
     14777     14775     14783     14784     14795     14793     14783     14784
     14773     14775     14785     14786     14791     14793     14803     14804
     14764     14758     14762     14760     14762     14760     14764     14758
     14758     14756     14764     14762     14760     14756     14762     14764
     14959     14957     14965     14966     14977     14975     14965     14966
     14955     14957     14967     14968     14973     14975     14985     14986
     14946     14940     14944     14942     14944     14942     14946     14940
     14940     14938     14946     14944     14942     14938     14944     14946
     15141     15139     15147     15148     15159     15157     15147     15148
     15137     15139     15149     15150     15155     15157     15167     15168
     15128     15122     15126     15124     15126     15124     15128     15122
     15122     15120     15128     15126     15124     15120     15126     15128
     15323     15321     15329     15330     15341     15339     15329     15330
     15319     15321     15331     15332     15337     15339     15349     15350
     15310     15304     15308     15306     15308     15306     15310     15304
     15304     15302     15310     15308     15306     15302     15308     15310
     15505     15503     15511     15512     15523     15521     15511     15512
     15501     15503     15513     15514     15519     15521     15531     15532
     15492     15486     15490     15488     15490     15488     15492     15486
     15486     15484     15492     15490     15488     15484     15490     15492
     15687     15685     15693     15694     15705     15703     15693     15694
     15683     15685     15695     15696     15701     15703     15713     15714
     15674     15668     15672     15670     15672     15670     15674     15668
     15668     15666     15674     15672     15670     15666     15672     15674
     15869     15867     15875     15876     15887     15885     15875     15876
     15865     15867     15877     15878     15883     15885     15895     15896
     15856     15850     15854     15852     15854     15852     15856     15850
     15850     15848     15856     15854     15852     15848     15854     15856
     16051     16049     16057     16058     16069     16067     16057     16058
     16047     16049     16059     16060     16065     16067     16077     16078
     16038     16032     16036     16034     16036     16034     16038     16032
     16032     16030     16038     16036     16034     16030     16036     16038
     16233     16231     16239     16240     16251     16249     16239     16240
     16229     16231     16241     16242     16247     16249     16259     16260
     16220     16214     16218     16216     16218     16216     16220     16214
     16214     16212     16220     16218     16216     16212     16218     16220
     16415     16413     16421     16422     16433     16431     16421     16422
     16411     16413     16423     16424     16429     16431     16441     16442
     16402     16396     16400     16398     16400     16398     16402     16396
     16396     16394     16402     16400     16398     16394     16400     16402
     16597     16595     16603     16604     16615     16613     16603     16604
     16593     16595     16605     16606     16611     16613     16623     16624
     16584     16578     16582     16580     16582     16580     16584     16578
     16578     16576     16584     16582     16580     16576     16582     16584
     16779     16777     16785     16786     16797     16795     16785     16786
     16775     16777     16787     16788     16793     16795     16805     16806
     16766     16760     16764     16762     16764     16762     16766     16760
     16760     16758     16766     16764     16762     16758     16764     16766
     16961     16959     16967     16968     16979     16977     16967     16968
     16957     16959     16969     16970     16975     16977     16987     16988
     16948     16942     16946     16944     16946     16944     16948     16942
     16942     16940     16948     16946     16944     16940     16946     16948
     17143     17141     17149     17150     17161     17159     17149     17150
     17139     17141     17151     17152     17157     17159     17169     17170
     17130     17124     17128     17126     17128     17126     17130     17124
     17124     17122     17130     17128     17126     17122     17128     17130
     17325     17323     17331     17332     17343     17341     17331     17332
     17321     17323     17333     17334     17339     17341     17351     17352
     17312     17306     17310     17308     17310     17308     17312     17306
     17306     17304     17312     17310     17308     17304     17310     17312
     17507     17505     17513     17514     17525     17523     17513     17514
     17503     17505     17515     17516     17521     17523     17533     17534
     17494     17488     17492     17490     17492     17490     17494     17488
     17488     17486     17494     17492     17490     17486     17492     17494
     17689     17687     17695     17696     17707     17705     17695     17696
     17685     17687     17697     17698     17703     17705     17715     17716
     17676     17670     17674     17672     17674     17672     17676     17670
     17670     17668     17676     17674     17672     17668     17674     17676
     17871     17869     17877     17878     17889     17887     17877     17878
     17867     17869     17879     17880     17885     17887     17897     17898
     17858     17852     17856     17854     17856     17854     17858     17852
     17852     17850     17858     17856     17854     17850     17856     17858
     18053     18051     18059     18060     18071     18069     18059     18060
     18049     18051     18061     18062     18067     18069     18079     18080
     18040     18034     18038     18036     18038     18036     18040     18034
     18034     18032     18040     18038     18036     18032     18038     18040
     18235     18233     18241     18242     18253     18251     18241     18242
     18231     18233     18243     18244     18249     18251     18261     18262
     18222     18216     18220     18218     18220     18218     18222     18216
     18216     18214     18222     18220     18218     18214     18220     18222
     18417     18415     18423     18424     18435     18433     18423     18424
     18413     18415     18425     18426     18431     18433     18443     18444
     18404     18398     18402     18400     18402     18400     18404     18398
     18398     18396     18404     18402     18400     18396     18402     18404
     18599     18597     18605     18606     18617     18615     18605     18606
     18595     18597     18607     18608     18613     18615     18625     18626
     18586     18580     18584     18582     18584     18582     18586     18580
     18580     18578     18586     18584     18582     18578     18584     18586
     18781     18779     18787     18788     18799     18797     18787     18788
     18777     18779     18789     18790     18795     18797     18807     18808
     18768     18762     18766     18764     18766     18764     18768     18762
     18762     18760     18768     18766     18764     18760     18766     18768
     18963     18961     18969     18970     18981     18979     18969     18970
     18959     18961     18971     18972     18977     18979     18989     18990
     18950     18944     18948     18946     18948     18946     18950     18944
     18944     18942     18950     18948     18946     18942     18948     18950
     19145     19143     19151     19152     19163     19161     19151     19152
     19141     19143     19153     19154     19159     19161     19171     19172
     19132     19126     19130     19128     19130     19128     19132     19126
     19126     19124     19132     19130     19128     19124     19130     19132
     19327     19325     19333     19334     19345     19343     19333     19334
     19323     19325     19335     19336     19341     19343     19353     19354
     19314     19308     19312     19310     19312     19310     19314     19308
     19308     19306     19314     19312     19310     19306     19312     19314
     19509     19507     19515     19516     19527     19525     19515     19516
     19505     19507     19517     19518     19523     19525     19535     19536
     19496     19490     19494     19492     19494     19492     19496     19490
     19490     19488     19496     19494     19492     19488     19494     19496
     19691     19689     19697     19698     19709     19707     19697     19698
     19687     19689     19699     19700     19705     19707     19717     19718
     19678     19672     19676     19674     19676     19674     19678     19672
     19672     19670     19678     19676     19674     19670     19676     19678
     19873     19871     19879     19880     19891     19889     19879     19880
     19869     19871     19881     19882     19887     19889     19899     19900
     19860     19854     19858     19856     19858     19856     19860     19854
     19854     19852     19860     19858     19856     19852     19858     19860
     20055     20053     20061     20062     20073     20071     20061     20062
     20051     20053     20063     20064     20069     20071     20081     20082
     20042     20036     20040     20038     20040     20038     20042     20036
     20036     20034     20042     20040     20038     20034     20040     20042
     20237     20235     20243     20244     20255     20253     20243     20244
     20233     20235     20245     20246     20251     20253     20263     20264
     20224     20218     20222     20220     20222     20220     20224     20218
     20218     20216     20224     20222     20220     20216     20222     20224
     20419     20417     20425     20426     20437     20435     20425     20426
     20415     20417     20427     20428     20433     20435     20445     20446
     20406     20400     20404     20402     20404     20402     20406     20400
     20400     20398     20406     20404     20402     20398     20404     20406
     20601     20599     20607     20608     20619     20617     20607     20608
     20597     20599     20609     20610     20615     20617     20627     20628
     20588     20582     20586     20584     20586     20584     20588     20582
     20582     20580     20588     20586     20584     20580     20586     20588
     20783     20781     20789     20790     20801     20799     20789     20790
     20779     20781     20791     20792     20797     20799     20809     20810
     20770     20764     20768     20766     20768     20766     20770     20764
     20764     20762     20770     20768     20766     20762     20768     20770
     20965     20963     20971     20972     20983     20981     20971     20972
     20961     20963     20973     20974     20979     20981     20991     20992
     20952     20946     20950     20948     20950     20948     20952     20946
     20946     20944     20952     20950     20948     20944     20950     20952
     21147     21145     21153     21154     21165     21163     21153     21154
     21143     21145     21155     21156     21161     21163     21173     21174
     21134     21128     21132     21130     21132     21130     21134     21128
     21128     21126     21134     21132     21130     21126     21132     21134
     21329     21327     21335     21336     21347     21345     21335     21336
     21325     21327     21337     21338     21343     21345     21355     21356
     21316     21310     21314     21312     21314     21312     21316     21310
     21310     21308     21316     21314     21312     21308     21314     21316
     21511     21509     21517     21518     21529     21527     21517     21518
     21507     21509     21519     21520     21525     21527     21537     21538
     21498     21492     21496     21494     21496     21494     21498     21492
     21492     21490     21498     21496     21494     21490     21496     21498
     21693     21691     21699     21700     21711     21709     21699     21700
     21689     21691     21701     21702     21707     21709     21719     21720
     21680     21674     21678     21676     21678     21676     21680     21674
     21674     21672     21680     21678     21676     21672     21678     21680
     21875     21873     21881     21882     21893     21891     21881     21882
     21871     21873     21883     21884     21889     21891     21901     21902
     21862     21856     21860     21858     21860     21858     21862     21856
     21856     21854     21862     21860     21858     21854     21860     21862
     22057     22055     22063     22064     22075     22073     22063     22064
     22053     22055     22065     22066     22071     22073     22083     22084
     22044     22038     22042     22040     22042     22040     22044     22038
     22038     22036     22044     22042     22040     22036     22042     22044
     22239     22237     22245     22246     22257     22255     22245     22246
     22235     22237     22247     22248     22253     22255     22265     22266
     22226     22220     22224     22222     22224     22222     22226     22220
     22220     22218     22226     22224     22222     22218     22224     22226
     22421     22419     22427     22428     22439     22437     22427     22428
     22417     22419     22429     22430     22435     22437     22447     22448
     22408     22402     22406     22404     22406     22404     22408     22402
     22402     22400     22408     22406     22404     22400     22406     22408
     22603     22601     22609     22610     22621     22619     22609     22610
     22599     22601     22611     22612     22617     22619     22629     22630
     22590     22584     22588     22586     22588     22586     22590     22584
     22584     22582     22590     22588     22586     22582     22588     22590
     22785     22783     22791     22792     22803     22801     22791     22792
     22781     22783     22793     22794     22799     22801     22811     22812
     22772     22766     22770     22768     22770     22768     22772     22766
     22766     22764     22772     22770     22768     22764     22770     22772
     22967     22965     22973     22974     22985     22983     22973     22974
     22963     22965     22975     22976     22981     22983     22993     22994
     22954     22948     22952     22950     22952     22950     22954     22948
     22948     22946     22954     22952     22950     22946     22952     22954
     23149     23147     23155     23156     23167     23165     23155     23156
     23145     23147     23157     23158     23163     23165     23175     23176
     23136     23130     23134     23132     23134     23132     23136     23130
     23130     23128     23136     23134     23132     23128     23134     23136
     23331     23329     23337     23338     23349     23347     23337     23338
     23327     23329     23339     23340     23345     23347     23357     23358
     23318     23312     23316     23314     23316     23314     23318     23312
     23312     23310     23318     23316     23314     23310     23316     23318
     23513     23511     23519     23520     23531     23529     23519     23520
     23509     23511     23521     23522     23527     23529     23539     23540
     23500     23494     23498     23496     23498     23496     23500     23494
     23494     23492     23500     23498     23496     23492     23498     23500
     23695     23693     23701     23702     23713     23711     23701     23702
     23691     23693     23703     23704     23709     23711     23721     23722
     23682     23676     23680     23678     23680     23678     23682     23676
     23676     23674     23682     23680     23678     23674     23680     23682
     23877     23875     23883     23884     23895     23893     23883     23884
     23873     23875     23885     23886     23891     23893     23903     23904
     23864     23858     23862     23860     23862     23860     23864     23858
     23858     23856     23864     23862     23860     23856     23862     23864
     24059     24057     24065     24066     24077     24075     24065     24066
     24055     24057     24067     24068     24073     24075     24085     24086
     24046     24040     24044     24042     24044     24042     24046     24040
     24040     24038     24046     24044     24042     24038     24044     24046
     24241     24239     24247     24248     24259     24257     24247     24248
     24237     24239     24249     24250     24255     24257     24267     24268
     24228     24222     24226     24224     24226     24224     24228     24222
     24222     24220     24228     24226     24224     24220     24226     24228
     24423     24421     24429     24430     24441     24439     24429     24430
     24419     24421     24431     24432     24437     24439     24449     24450
     24410     24404     24408     24406     24408     24406     24410     24404
     24404     24402     24410     24408     24406     24402     24408     24410
     24605     24603     24611     24612     24623     24621     24611     24612
     24601     24603     24613     24614     24619     24621     24631     24632
     24592     24586     24590     24588     24590     24588     24592     24586
     24586     24584     24592     24590     24588     24584     24590     24592
     24787     24785     24793     24794     24805     24803     24793     24794
     24783     24785     24795     24796     24801     24803     24813     24814
     24774     24768     24772     24770     24772     24770     24774     24768
     24768     24766     24774     24772     24770     24766     24772     24774
     24969     24967     24975     24976     24987     24985     24975     24976
     24965     24967     24977     24978     24983     24985     24995     24996
     24956     24950     24954     24952     24954     24952     24956     24950
     24950     24948     24956     24954     24952     24948     24954     24956
     25151     25149     25157     25158     25169     25167     25157     25158
     25147     25149     25159     25160     25165     25167     25177     25178
     25138     25132     25136     25134     25136     25134     25138     25132
     25132     25130     25138     25136     25134     25130     25136     25138
     25333     25331     25339     25340     25351     25349     25339     25340
     25329     25331     25341     25342     25347     25349     25359     25360
     25320     25314     25318     25316     25318     25316     25320     25314
     25314     25312     25320     25318     25316     25312     25318     25320
     25515     25513     25521     25522     25533     25531     25521     25522
     25511     25513     25523     25524     25529     25531     25541     25542
     25502     25496     25500     25498     25500     25498     25502     25496
     25496     25494     25502     25500     25498     25494     25500     25502
     25697     25695     25703     25704     25715     25713     25703     25704
     25693     25695     25705     25706     25711     25713     25723     25724
     25684     25678     25682     25680     25682     25680     25684     25678
     25678     25676     25684     25682     25680     25676     25682     25684
     25879     25877     25885     25886     25897     25895     25885     25886
     25875     25877     25887     25888     25893     25895     25905     25906
     25866     25860     25864     25862     25864     25862     25866     25860
     25860     25858     25866     25864     25862     25858     25864     25866
     26061     26059     26067     26068     26079     26077     26067     26068
     26057     26059     26069     26070     26075     26077     26087     26088
     26048     26042     26046     26044     26046     26044     26048     26042
     26042     26040     26048     26046     26044     26040     26046     26048

       288 !NCRTERM: cross-terms
        90        87        83        79        87        83        79        75
        87        90        93        97        90        93        97       101
       272       269       265       261       269       265       261       257
       269       272       275       279       272       275       279       283
       454       451       447       443       451       447       443       439
       451       454       457       461       454       457       461       465
       636       633       629       625       633       629       625       621
       633       636       639       643       636       639       643       647
       818       815       811       807       815       811       807       803
       815       818       821       825       818       821       825       829
      1000       997       993       989       997       993       989       985
       997      1000      1003      1007      1000      1003      1007      1011
      1182      1179      1175      1171      1179      1175      1171      1167
      1179      1182      1185      1189      1182      1185      1189      1193
      1364      1361      1357      1353      1361      1357      1353      1349
      1361      1364      1367      1371      1364      1367      1371      1375
      1546      1543      1539      1535      1543      1539      1535      1531
      1543      1546      1549      1553      1546      1549      1553      1557
      1728      1725      1721      1717      1725      1721      1717      1713
      1725      1728      1731      1735      1728      1731      1735      1739
      1910      1907      1903      1899      1907      1903      1899      1895
      1907      1910      1913      1917      1910      1913      1917      1921
      2092      2089      2085      2081      2089      2085      2081      2077
      2089      2092      2095      2099      2092      2095      2099      2103
      2274      2271      2267      2263      2271      2267      2263      2259
      2271      2274      2277      2281      2274      2277      2281      2285
      2456      2453      2449      2445      2453      2449      2445      2441
      2453      2456      2459      2463      2456      2459      2463      2467
      2638      2635      2631      2627      2635      2631      2627      2623
      2635      2638      2641      2645      2638      2641      2645      2649
      2820      2817      2813      2809      2817      2813      2809      2805
      2817      2820      2823      2827      2820      2823      2827      2831
      3002      2999      2995      2991      2999      2995      2991      2987
      2999      3002      3005      3009      3002      3005      3009      3013
      3184      3181      3177      3173      3181      3177      3173      3169
      3181      3184      3187      3191      3184      3187      3191      3195
      3366      3363      3359      3355      3363      3359      3355      3351
      3363      3366      3369      3373      3366      3369      3373      3377
      3548      3545      3541      3537      3545      3541      3537      3533
      3545      3548      3551      3555      3548      3551      3555      3559
      3730      3727      3723      3719      3727      3723      3719      3715
      3727      3730      3733      3737      3730      3733      3737      3741
      3912      3909      3905      3901      3909      3905      3901      3897
      3909      3912      3915      3919      3912      3915      3919      3923
      4094      4091      4087      4083      4091      4087      4083      4079
      4091      4094      4097      4101      4094      4097      4101      4105
      4276      4273      4269      4265      4273      4269      4265      4261
      4273      4276      4279      4283      4276      4279      4283      4287
      4458      4455      4451      4447      4455      4451      4447      4443
      4455      4458      4461      4465      4458      4461      4465      4469
      4640      4637      4633      4629      4637      4633      4629      4625
      4637      4640      4643      4647      4640      4643      4647      4651
      4822      4819      4815      4811      4819      4815      4811      4807
      4819      4822      4825      4829      4822      4825      4829      4833
      5004      5001      4997      4993      5001      4997      4993      4989
      5001      5004      5007      5011      5004      5007      5011      5015
      5186      5183      5179      5175      5183      5179      5175      5171
      5183      5186      5189      5193      5186      5189      5193      5197
      5368      5365      5361      5357      5365      5361      5357      5353
      5365      5368      5371      5375      5368      5371      5375      5379
      5550      5547      5543      5539      5547      5543      5539      5535
      5547      5550      5553      5557      5550      5553      5557      5561
      5732      5729      5725      5721      5729      5725      5721      5717
      5729      5732      5735      5739      5732      5735      5739      5743
      5914      5911      5907      5903      5911      5907      5903      5899
      5911      5914      5917      5921      5914      5917      5921      5925
      6096      6093      6089      6085      6093      6089      6085      6081
      6093      6096      6099      6103      6096      6099      6103      6107
      6278      6275      6271      6267      6275      6271      6267      6263
      6275      6278      6281      6285      6278      6281      6285      6289
      6460      6457      6453      6449      6457      6453      6449      6445
      6457      6460      6463      6467      6460      6463      6467      6471
      6642      6639      6635      6631      6639      6635      6631      6627
      6639      6642      6645      6649      6642      6645      6649      6653
      6824      6821      6817      6813      6821      6817      6813      6809
      6821      6824      6827      6831      6824      6827      6831      6835
      7006      7003      6999      6995      7003      6999      6995      6991
      7003      7006      7009      7013      7006      7009      7013      7017
      7188      7185      7181      7177      7185      7181      7177      7173
      7185      7188      7191      7195      7188      7191      7195      7199
      7370      7367      7363      7359      7367      7363      7359      7355
      7367      7370      7373      7377      7370      7373      7377      7381
      7552      7549      7545      7541      7549      7545      7541      7537
      7549      7552      7555      7559      7552      7555      7559      7563
      7734      7731      7727      7723      7731      7727      7723      7719
      7731      7734      7737      7741      7734      7737      7741      7745
      7916      7913      7909      7905      7913      7909      7905      7901
      7913      7916      7919      7923      7916      7919      7923      7927
      8098      8095      8091      8087      8095      8091      8087      8083
      8095      8098      8101      8105      8098      8101      8105      8109
      8280      8277      8273      8269      8277      8273      8269      8265
      8277      8280      8283      8287      8280      8283      8287      8291
      8462      8459      8455      8451      8459      8455      8451      8447
      8459      8462      8465      8469      8462      8465      8469      8473
      8644      8641      8637      8633      8641      8637      8633      8629
      8641      8644      8647      8651      8644      8647      8651      8655
      8826      8823      8819      8815      8823      8819      8815      8811
      8823      8826      8829      8833      8826      8829      8833      8837
      9008      9005      9001      8997      9005      9001      8997      8993
      9005      9008      9011      9015      9008      9011      9015      9019
      9190      9187      9183      9179      9187      9183      9179      9175
      9187      9190      9193      9197      9190      9193      9197      9201
      9372      9369      9365      9361      9369      9365      9361      9357
      9369      9372      9375      9379      9372      9375      9379      9383
      9554      9551      9547      9543      9551      9547      9543      9539
      9551      9554      9557      9561      9554      9557      9561      9565
      9736      9733      9729      9725      9733      9729      9725      9721
      9733      9736      9739      9743      9736      9739      9743      9747
      9918      9915      9911      9907      9915      9911      9907      9903
      9915      9918      9921      9925      9918      9921      9925      9929
     10100     10097     10093     10089     10097     10093     10089     10085
     10097     10100     10103     10107     10100     10103     10107     10111
     10282     10279     10275     10271     10279     10275     10271     10267
     10279     10282     10285     10289     10282     10285     10289     10293
     10464     10461     10457     10453     10461     10457     10453     10449
     10461     10464     10467     10471     10464     10467     10471     10475
     10646     10643     10639     10635     10643     10639     10635     10631
     10643     10646     10649     10653     10646     10649     10653     10657
     10828     10825     10821     10817     10825     10821     10817     10813
     10825     10828     10831     10835     10828     10831     10835     10839
     11010     11007     11003     10999     11007     11003     10999     10995
     11007     11010     11013     11017     11010     11013     11017     11021
     11192     11189     11185     11181     11189     11185     11181     11177
     11189     11192     11195     11199     11192     11195     11199     11203
     11374     11371     11367     11363     11371     11367     11363     11359
     11371     11374     11377     11381     11374     11377     11381     11385
     11556     11553     11549     11545     11553     11549     11545     11541
     11553     11556     11559     11563     11556     11559     11563     11567
     11738     11735     11731     11727     11735     11731     11727     11723
     11735     11738     11741     11745     11738     11741     11745     11749
     11920     11917     11913     11909     11917     11913     11909     11905
     11917     11920     11923     11927     11920     11923     11927     11931
     12102     12099     12095     12091     12099     12095     12091     12087
     12099     12102     12105     12109     12102     12105     12109     12113
     12284     12281     12277     12273     12281     12277     12273     12269
     12281     12284     12287     12291     12284     12287     12291     12295
     12466     12463     12459     12455     12463     12459     12455     12451
     12463     12466     12469     12473     12466     12469     12473     12477
     12648     12645     12641     12637     12645     12641     12637     12633
     12645     12648     12651     12655     12648     12651     12655     12659
     12830     12827     12823     12819     12827     12823     12819     12815
     12827     12830     12833     12837     12830     12833     12837     12841
     13012     13009     13005     13001     13009     13005     13001     12997
     13009     13012     13015     13019     13012     13015     13019     13023
     13194     13191     13187     13183     13191     13187     13183     13179
     13191     13194     13197     13201     13194     13197     13201     13205
     13376     13373     13369     13365     13373     13369     13365     13361
     13373     13376     13379     13383     13376     13379     13383     13387
     13558     13555     13551     13547     13555     13551     13547     13543
     13555     13558     13561     13565     13558     13561     13565     13569
     13740     13737     13733     13729     13737     13733     13729     13725
     13737     13740     13743     13747     13740     13743     13747     13751
     13922     13919     13915     13911     13919     13915     13911     13907
     13919     13922     13925     13929     13922     13925     13929     13933
     14104     14101     14097     14093     14101     14097     14093     14089
     14101     14104     14107     14111     14104     14107     14111     14115
     14286     14283     14279     14275     14283     14279     14275     14271
     14283     14286     14289     14293     14286     14289     14293     14297
     14468     14465     14461     14457     14465     14461     14457     14453
     14465     14468     14471     14475     14468     14471     14475     14479
     14650     14647     14643     14639     14647     14643     14639     14635
     14647     14650     14653     14657     14650     14653     14657     14661
     14832     14829     14825     14821     14829     14825     14821     14817
     14829     14832     14835     14839     14832     14835     14839     14843
     15014     15011     15007     15003     15011     15007     15003     14999
     15011     15014     15017     15021     15014     15017     15021     15025
     15196     15193     15189     15185     15193     15189     15185     15181
     15193     15196     15199     15203     15196     15199     15203     15207
     15378     15375     15371     15367     15375     15371     15367     15363
     15375     15378     15381     15385     15378     15381     15385     15389
     15560     15557     15553     15549     15557     15553     15549     15545
     15557     15560     15563     15567     15560     15563     15567     15571
     15742     15739     15735     15731     15739     15735     15731     15727
     15739     15742     15745     15749     15742     15745     15749     15753
     15924     15921     15917     15913     15921     15917     15913     15909
     15921     15924     15927     15931     15924     15927     15931     15935
     16106     16103     16099     16095     16103     16099     16095     16091
     16103     16106     16109     16113     16106     16109     16113     16117
     16288     16285     16281     16277     16285     16281     16277     16273
     16285     16288     16291     16295     16288     16291     16295     16299
     16470     16467     16463     16459     16467     16463     16459     16455
     16467     16470     16473     16477     16470     16473     16477     16481
     16652     16649     16645     16641     16649     16645     16641     16637
     16649     16652     16655     16659     16652     16655     16659     16663
     16834     16831     16827     16823     16831     16827     16823     16819
     16831     16834     16837     16841     16834     16837     16841     16845
     17016     17013     17009     17005     17013     17009     17005     17001
     17013     17016     17019     17023     17016     17019     17023     17027
     17198     17195     17191     17187     17195     17191     17187     17183
     17195     17198     17201     17205     17198     17201     17205     17209
     17380     17377     17373     17369     17377     17373     17369     17365
     17377     17380     17383     17387     17380     17383     17387     17391
     17562     17559     17555     17551     17559     17555     17551     17547
     17559     17562     17565     17569     17562     17565     17569     17573
     17744     17741     17737     17733     17741     17737     17733     17729
     17741     17744     17747     17751     17744     17747     17751     17755
     17926     17923     17919     17915     17923     17919     17915     17911
     17923     17926     17929     17933     17926     17929     17933     17937
     18108     18105     18101     18097     18105     18101     18097     18093
     18105     18108     18111     18115     18108     18111     18115     18119
     18290     18287     18283     18279     18287     18283     18279     18275
     18287     18290     18293     18297     18290     18293     18297     18301
     18472     18469     18465     18461     18469     18465     18461     18457
     18469     18472     18475     18479     18472     18475     18479     18483
     18654     18651     18647     18643     18651     18647     18643     18639
     18651     18654     18657     18661     18654     18657     18661     18665
     18836     18833     18829     18825     18833     18829     18825     18821
     18833     18836     18839     18843     18836     18839     18843     18847
     19018     19015     19011     19007     19015     19011     19007     19003
     19015     19018     19021     19025     19018     19021     19025     19029
     19200     19197     19193     19189     19197     19193     19189     19185
     19197     19200     19203     19207     19200     19203     19207     19211
     19382     19379     19375     19371     19379     19375     19371     19367
     19379     19382     19385     19389     19382     19385     19389     19393
     19564     19561     19557     19553     19561     19557     19553     19549
     19561     19564     19567     19571     19564     19567     19571     19575
     19746     19743     19739     19735     19743     19739     19735     19731
     19743     19746     19749     19753     19746     19749     19753     19757
     19928     19925     19921     19917     19925     19921     19917     19913
     19925     19928     19931     19935     19928     19931     19935     19939
     20110     20107     20103     20099     20107     20103     20099     20095
     20107     20110     20113     20117     20110     20113     20117     20121
     20292     20289     20285     20281     20289     20285     20281     20277
     20289     20292     20295     20299     20292     20295     20299     20303
     20474     20471     20467     20463     20471     20467     20463     20459
     20471     20474     20477     20481     20474     20477     20481     20485
     20656     20653     20649     20645     20653     20649     20645     20641
     20653     20656     20659     20663     20656     20659     20663     20667
     20838     20835     20831     20827     20835     20831     20827     20823
     20835     20838     20841     20845     20838     20841     20845     20849
     21020     21017     21013     21009     21017     21013     21009     21005
     21017     21020     21023     21027     21020     21023     21027     21031
     21202     21199     21195     21191     21199     21195     21191     21187
     21199     21202     21205     21209     21202     21205     21209     21213
     21384     21381     21377     21373     21381     21377     21373     21369
     21381     21384     21387     21391     21384     21387     21391     21395
     21566     21563     21559     21555     21563     21559     21555     21551
     21563     21566     21569     21573     21566     21569     21573     21577
     21748     21745     21741     21737     21745     21741     21737     21733
     21745     21748     21751     21755     21748     21751     21755     21759
     21930     21927     21923     21919     21927     21923     21919     21915
     21927     21930     21933     21937     21930     21933     21937     21941
     22112     22109     22105     22101     22109     22105     22101     22097
     22109     22112     22115     22119     22112     22115     22119     22123
     22294     22291     22287     22283     22291     22287     22283     22279
     22291     22294     22297     22301     22294     22297     22301     22305
     22476     22473     22469     22465     22473     22469     22465     22461
     22473     22476     22479     22483     22476     22479     22483     22487
     22658     22655     22651     22647     22655     22651     22647     22643
     22655     22658     22661     22665     22658     22661     22665     22669
     22840     22837     22833     22829     22837     22833     22829     22825
     22837     22840     22843     22847     22840     22843     22847     22851
     23022     23019     23015     23011     23019     23015     23011     23007
     23019     23022     23025     23029     23022     23025     23029     23033
     23204     23201     23197     23193     23201     23197     23193     23189
     23201     23204     23207     23211     23204     23207     23211     23215
     23386     23383     23379     23375     23383     23379     23375     23371
     23383     23386     23389     23393     23386     23389     23393     23397
     23568     23565     23561     23557     23565     23561     23557     23553
     23565     23568     23571     23575     23568     23571     23575     23579
     23750     23747     23743     23739     23747     23743     23739     23735
     23747     23750     23753     23757     23750     23753     23757     23761
     23932     23929     23925     23921     23929     23925     23921     23917
     23929     23932     23935     23939     23932     23935     23939     23943
     24114     24111     24107     24103     24111     24107     24103     24099
     24111     24114     24117     24121     24114     24117     24121     24125
     24296     24293     24289     24285     24293     24289     24285     24281
     24293     24296     24299     24303     24296     24299     24303     24307
     24478     24475     24471     24467     24475     24471     24467     24463
     24475     24478     24481     24485     24478     24481     24485     24489
     24660     24657     24653     24649     24657     24653     24649     24645
     24657     24660     24663     24667     24660     24663     24667     24671
     24842     24839     24835     24831     24839     24835     24831     24827
     24839     24842     24845     24849     24842     24845     24849     24853
     25024     25021     25017     25013     25021     25017     25013     25009
     25021     25024     25027     25031     25024     25027     25031     25035
     25206     25203     25199     25195     25203     25199     25195     25191
     25203     25206     25209     25213     25206     25209     25213     25217
     25388     25385     25381     25377     25385     25381     25377     25373
     25385     25388     25391     25395     25388     25391     25395     25399
     25570     25567     25563     25559     25567     25563     25559     25555
     25567     25570     25573     25577     25570     25573     25577     25581
     25752     25749     25745     25741     25749     25745     25741     25737
     25749     25752     25755     25759     25752     25755     25759     25763
     25934     25931     25927     25923     25931     25927     25923     25919
     25931     25934     25937     25941     25934     25937     25941     25945
     26116     26113     26109     26105     26113     26109     26105     26101
     26113     26116     26119     26123     26116     26119     26123     26127

      5040 !AUTOGEN
         0        15         0         0         0         0        15         0
         0         0        15         0         0         0        15         0
        15         0        15         0        15         0        15         0
        15         0         0         0        15         0         0        15
         0        15         0        15         0        15         0         0
        15        15        15        15         0        15         0         0
         0        15         0        15         0        15         0        15
         0         0        15        15        15        15         0        15
         0         0         0        15         0         0         0        15
         0         0         0        15         0         0         0        15
         0         0         0        15         0         0         0        15
         0         0        15         0         0        15         0         0
         0        15         0         0         0        15         0         0
         0        15         0         0         0        15         0         0
         0        15         0         0         0        15         0         0
         0        15         0         0         0         0        15         0
         0         0        15         0         0         0        15         0
         0         0        15         0         0         0        15         0
         0         0        15         0         0         0        15         0
         0         0        15         0         0         0        15         0
         0         0        15         0         0         0        15         0
         0         0        15         0         0         0        15         0
         0         0        15         0         0         0         0        15
         0         0         0         0        15         0         0         0
        15         0         0         0        15         0        15         0
        15         0        15         0        15         0        15         0
         0         0        15         0         0        15         0        15
         0        15         0        15         0         0        15        15
        15        15         0        15         0         0         0        15
         0        15         0        15         0        15         0         0
        15        15        15        15         0        15         0         0
         0        15         0         0         0        15         0         0
         0        15         0         0         0        15         0         0
         0        15         0         0         0        15         0         0
        15         0         0        15         0         0         0        15
         0         0         0        15         0         0         0        15
         0         0         0        15         0         0         0        15
         0         0         0        15         0         0         0        15
         0         0         0         0        15         0         0         0
        15         0         0         0        15         0         0         0
        15         0         0         0        15         0         0         0
        15         0         0         0        15         0         0         0
        15         0         0         0        15         0         0         0
        15         0         0         0        15         0         0         0
        15         0         0         0        15         0         0         0
        15         0         0         0         0        15         0         0
         0         0        15         0         0         0        15         0
         0         0        15         0        15         0        15         0
        15         0        15         0        15         0         0         0
        15         0         0        15         0        15         0        15
         0        15         0         0        15        15        15        15
         0        15         0         0         0        15         0        15
         0        15         0        15         0         0        15        15
        15        15         0        15         0         0         0        15
         0         0         0        15         0         0         0        15
         0         0         0        15         0         0         0        15
         0         0         0        15         0         0        15         0
         0        15         0         0         0        15         0         0
         0        15         0         0         0        15         0         0
         0        15         0         0         0        15         0         0
         0        15         0         0         0        15         0         0
         0         0        15         0         0         0        15         0
         0         0        15         0         0         0        15         0
         0         0        15         0         0         0        15         0
         0         0        15         0         0         0        15         0
         0         0        15         0         0         0        15         0
         0         0        15         0         0         0        15         0
         0         0        15         0         0         0        15         0
         0         0         0        15         0         0         0         0
        15         0         0         0        15         0         0         0
        15         0        15         0        15         0        15         0
        15         0        15         0         0         0        15         0
         0        15         0        15         0        15         0        15
         0         0        15        15        15        15         0        15
         0         0         0        15         0        15         0        15
         0        15         0         0        15        15        15        15
         0        15         0         0         0        15         0         0
         0        15         0         0         0        15         0         0
         0        15         0         0         0        15         0         0
         0        15         0         0        15         0         0        15
         0         0         0        15         0         0         0        15
         0         0         0        15         0         0         0        15
         0         0         0        15         0         0         0        15
         0         0         0        15         0         0         0         0
        15         0         0         0        15         0         0         0
        15         0         0         0        15         0         0         0
        15         0         0         0        15         0         0         0
        15         0         0         0        15         0         0         0
        15         0         0         0        15         0         0         0
        15         0         0         0        15         0         0         0
        15         0         0         0        15         0         0         0
         0        15         0         0         0         0        15         0
         0         0        15         0         0         0        15         0
        15         0        15         0        15         0        15         0
        15         0         0         0        15         0         0        15
         0        15         0        15         0        15         0         0
        15        15        15        15         0        15         0         0
         0        15         0        15         0        15         0        15
         0         0        15        15        15        15         0        15
         0         0         0        15         0         0         0        15
         0         0         0        15         0         0         0        15
         0         0         0        15         0         0         0        15
         0         0        15         0         0        15         0         0
         0        15         0         0         0        15         0         0
         0        15         0         0         0        15         0         0
         0        15         0         0         0        15         0         0
         0        15         0         0         0         0        15         0
         0         0        15         0         0         0        15         0
         0         0        15         0         0         0        15         0
         0         0        15         0         0         0        15         0
         0         0        15         0         0         0        15         0
         0         0        15         0         0         0        15         0
         0         0        15         0         0         0        15         0
         0         0        15         0         0         0         0        15
         0         0         0         0        15         0         0         0
        15         0         0         0        15         0        15         0
        15         0        15         0        15         0        15         0
         0         0        15         0         0        15         0        15
         0        15         0        15         0         0        15        15
        15        15         0        15         0         0         0        15
         0        15         0        15         0        15         0         0
        15        15        15        15         0        15         0         0
         0        15         0         0         0        15         0         0
         0        15         0         0         0        15         0         0
         0        15         0         0         0        15         0         0
        15         0         0        15         0         0         0        15
         0         0         0        15         0         0         0        15
         0         0         0        15         0         0         0        15
         0         0         0        15         0         0         0        15
         0         0         0         0        15         0         0         0
        15         0         0         0        15         0         0         0
        15         0         0         0        15         0         0         0
        15         0         0         0        15         0         0         0
        15         0         0         0        15         0         0         0
        15         0         0         0        15         0         0         0
        15         0         0         0        15         0         0         0
        15         0         0         0         0        15         0         0
         0         0        15         0         0         0        15         0
         0         0        15         0        15         0        15         0
        15         0        15         0        15         0         0         0
        15         0         0        15         0        15         0        15
         0        15         0         0        15        15        15        15
         0        15         0         0         0        15         0        15
         0        15         0        15         0         0        15        15
        15        15         0        15         0         0         0        15
         0         0         0        15         0         0         0        15
         0         0         0        15         0         0         0        15
         0         0         0        15         0         0        15         0
         0        15         0         0         0        15         0         0
         0        15         0         0         0        15         0         0
         0        15         0         0         0        15         0         0
         0        15         0         0         0        15         0         0
         0         0        15         0         0         0        15         0
         0         0        15         0         0         0        15         0
         0         0        15         0         0         0        15         0
         0         0        15         0         0         0        15         0
         0         0        15         0         0         0        15         0
         0         0        15         0         0         0        15         0
         0         0        15         0         0         0        15         0
         0         0         0        15         0         0         0         0
        15         0         0         0        15         0         0         0
        15         0        15         0        15         0        15         0
        15         0        15         0         0         0        15         0
         0        15         0        15         0        15         0        15
         0         0        15        15        15        15         0        15
         0         0         0        15         0        15         0        15
         0        15         0         0        15        15        15        15
         0        15         0         0         0        15         0         0
         0        15         0         0         0        15         0         0
         0        15         0         0         0        15         0         0
         0        15         0         0        15         0         0        15
         0         0         0        15         0         0         0        15
         0         0         0        15         0         0         0        15
         0         0         0        15         0         0         0        15
         0         0         0        15         0         0         0         0
        15         0         0         0        15         0         0         0
        15         0         0         0        15         0         0         0
        15         0         0         0        15         0         0         0
        15         0         0         0        15         0         0         0
        15         0         0         0        15         0         0         0
        15         0         0         0        15         0         0         0
        15         0         0         0        15         0         0         0
         0        15         0         0         0         0        15         0
         0         0        15         0         0         0        15         0
        15         0        15         0        15         0        15         0
        15         0         0         0        15         0         0        15
         0        15         0        15         0        15         0         0
        15        15        15        15         0        15         0         0
         0        15         0        15         0        15         0        15
         0         0        15        15        15        15         0        15
         0         0         0        15         0         0         0        15
         0         0         0        15         0         0         0        15
         0         0         0        15         0         0         0        15
         0         0        15         0         0        15         0         0
         0        15         0         0         0        15         0         0
         0        15         0         0         0        15         0         0
         0        15         0         0         0        15         0         0
         0        15         0         0         0         0        15         0
         0         0        15         0         0         0        15         0
         0         0        15         0         0         0        15         0
         0         0        15         0         0         0        15         0
         0         0        15         0         0         0        15         0
         0         0        15         0         0         0        15         0
         0         0        15         0         0         0        15         0
         0         0        15         0         0         0         0        15
         0         0         0         0        15         0         0         0
        15         0         0         0        15         0        15         0
        15         0        15         0        15         0        15         0
         0         0        15         0         0        15         0        15
         0        15         0        15         0         0        15        15
        15        15         0        15         0         0         0        15
         0        15         0        15         0        15         0         0
        15        15        15        15         0        15         0         0
         0        15         0         0         0        15         0         0
         0        15         0         0         0        15         0         0
         0        15         0         0         0        15         0         0
        15         0         0        15         0         0         0        15
         0         0         0        15         0         0         0        15
         0         0         0        15         0         0         0        15
         0         0         0        15         0         0         0        15
         0         0         0         0        15         0         0         0
        15         0         0         0        15         0         0         0
        15         0         0         0        15         0         0         0
        15         0         0         0        15         0         0         0
        15         0         0         0        15         0         0         0
        15         0         0         0        15         0         0         0
        15         0         0         0        15         0         0         0
        15         0         0         0         0        15         0         0
         0         0        15         0         0         0        15         0
         0         0        15         0        15         0        15         0
        15         0        15         0        15         0         0         0
        15         0         0        15         0        15         0        15
         0        15         0         0        15        15        15        15
         0        15         0         0         0        15         0        15
         0        15         0        15         0         0        15        15
        15        15         0        15         0         0         0        15
         0         0         0        15         0         0         0        15
         0         0         0        15         0         0         0        15
         0         0         0        15         0         0        15         0
         0        15         0         0         0        15         0         0
         0        15         0         0         0        15         0         0
         0        15         0         0         0        15         0         0
         0        15         0         0         0        15         0         0
         0         0        15         0         0         0        15         0
         0         0        15         0         0         0        15         0
         0         0        15         0         0         0        15         0
         0         0        15         0         0         0        15         0
         0         0        15         0         0         0        15         0
         0         0        15         0         0         0        15         0
         0         0        15         0         0         0        15         0
         0         0         0        15         0         0         0         0
        15         0         0         0        15         0         0         0
        15         0        15         0        15         0        15         0
        15         0        15         0         0         0        15         0
         0        15         0        15         0        15         0        15
         0         0        15        15        15        15         0        15
         0         0         0        15         0        15         0        15
         0        15         0         0        15        15        15        15
         0        15         0         0         0        15         0         0
         0        15         0         0         0        15         0         0
         0        15         0         0         0        15         0         0
         0        15         0         0        15         0         0        15
         0         0         0        15         0         0         0        15
         0         0         0        15         0         0         0        15
         0         0         0        15         0         0         0        15
         0         0         0        15         0         0         0         0
        15         0         0         0        15         0         0         0
        15         0         0         0        15         0         0         0
        15         0         0         0        15         0         0         0
        15         0         0         0        15         0         0         0
        15         0         0         0        15         0         0         0
        15         0         0         0        15         0         0         0
        15         0         0         0        15         0         0         0
         0        15         0         0         0         0        15         0
         0         0        15         0         0         0        15         0
        15         0        15         0        15         0        15         0
        15         0         0         0        15         0         0        15
         0        15         0        15         0        15         0         0
        15        15        15        15         0        15         0         0
         0        15         0        15         0        15         0        15
         0         0        15        15        15        15         0        15
         0         0         0        15         0         0         0        15
         0         0         0        15         0         0         0        15
         0         0         0        15         0         0         0        15
         0         0        15         0         0        15         0         0
         0        15         0         0         0        15         0         0
         0        15         0         0         0        15         0         0
         0        15         0         0         0        15         0         0
         0        15         0         0         0         0        15         0
         0         0        15         0         0         0        15         0
         0         0        15         0         0         0        15         0
         0         0        15         0         0         0        15         0
         0         0        15         0         0         0        15         0
         0         0        15         0         0         0        15         0
         0         0        15         0         0         0        15         0
         0         0        15         0         0         0         0        15
         0         0         0         0        15         0         0         0
        15         0         0         0        15         0        15         0
        15         0        15         0        15         0        15         0
         0         0        15         0         0        15         0        15
         0        15         0        15         0         0        15        15
        15        15         0        15         0         0         0        15
         0        15         0        15         0        15         0         0
        15        15        15        15         0        15         0         0
         0        15         0         0         0        15         0         0
         0        15         0         0         0        15         0         0
         0        15         0         0         0        15         0         0
        15         0         0        15         0         0         0        15
         0         0         0        15         0         0         0        15
         0         0         0        15         0         0         0        15
         0         0         0        15         0         0         0        15
         0         0         0         0        15         0         0         0
        15         0         0         0        15         0         0         0
        15         0         0         0        15         0         0         0
        15         0         0         0        15         0         0         0
        15         0         0         0        15         0         0         0
        15         0         0         0        15         0         0         0
        15         0         0         0        15         0         0         0
        15         0         0         0         0        15         0         0
         0         0        15         0         0         0        15         0
         0         0        15         0        15         0        15         0
        15         0        15         0        15         0         0         0
        15         0         0        15         0        15         0        15
         0        15         0         0        15        15        15        15
         0        15         0         0         0        15         0        15
         0        15         0        15         0         0        15        15
        15        15         0        15         0         0         0        15
         0         0         0        15         0         0         0        15
         0         0         0        15         0         0         0        15
         0         0         0        15         0         0        15         0
         0        15         0         0         0        15         0         0
         0        15         0         0         0        15         0         0
         0        15         0         0         0        15         0         0
         0        15         0         0         0        15         0         0
         0         0        15         0         0         0        15         0
         0         0        15         0         0         0        15         0
         0         0        15         0         0         0        15         0
         0         0        15         0         0         0        15         0
         0         0        15         0         0         0        15         0
         0         0        15         0         0         0        15         0
         0         0        15         0         0         0        15         0
         0         0         0        15         0         0         0         0
        15         0         0         0        15         0         0         0
        15         0        15         0        15         0        15         0
        15         0        15         0         0         0        15         0
         0        15         0        15         0        15         0        15
         0         0        15        15        15        15         0        15
         0         0         0        15         0        15         0        15
         0        15         0         0        15        15        15        15
         0        15         0         0         0        15         0         0
         0        15         0         0         0        15         0         0
         0        15         0         0         0        15         0         0
         0        15         0         0        15         0         0        15
         0         0         0        15         0         0         0        15
         0         0         0        15         0         0         0        15
         0         0         0        15         0         0         0        15
         0         0         0        15         0         0         0         0
        15         0         0         0        15         0         0         0
        15         0         0         0        15         0         0         0
        15         0         0         0        15         0         0         0
        15         0         0         0        15         0         0         0
        15         0         0         0        15         0         0         0
        15         0         0         0        15         0         0         0
        15         0         0         0        15         0         0         0
         0        15         0         0         0         0        15         0
         0         0        15         0         0         0        15         0
        15         0        15         0        15         0        15         0
        15         0         0         0        15         0         0        15
         0        15         0        15         0        15         0         0
        15        15        15        15         0        15         0         0
         0        15         0        15         0        15         0        15
         0         0        15        15        15        15         0        15
         0         0         0        15         0         0         0        15
         0         0         0        15         0         0         0        15
         0         0         0        15         0         0         0        15
         0         0        15         0         0        15         0         0
         0        15         0         0         0        15         0         0
         0        15         0         0         0        15         0         0
         0        15         0         0         0        15         0         0
         0        15         0         0         0         0        15         0
         0         0        15         0         0         0        15         0
         0         0        15         0         0         0        15         0
         0         0        15         0         0         0        15         0
         0         0        15         0         0         0        15         0
         0         0        15         0         0         0        15         0
         0         0        15         0         0         0        15         0
         0         0        15         0         0         0         0        15
         0         0         0         0        15         0         0         0
        15         0         0         0        15         0        15         0
        15         0        15         0        15         0        15         0
         0         0        15         0         0        15         0        15
         0        15         0        15         0         0        15        15
        15        15         0        15         0         0         0        15
         0        15         0        15         0        15         0         0
        15        15        15        15         0        15         0         0
         0        15         0         0         0        15         0         0
         0        15         0         0         0        15         0         0
         0        15         0         0         0        15         0         0
        15         0         0        15         0         0         0        15
         0         0         0        15         0         0         0        15
         0         0         0        15         0         0         0        15
         0         0         0        15         0         0         0        15
         0         0         0         0        15         0         0         0
        15         0         0         0        15         0         0         0
        15         0         0         0        15         0         0         0
        15         0         0         0        15         0         0         0
        15         0         0         0        15         0         0         0
        15         0         0         0        15         0         0         0
        15         0         0         0        15         0         0         0
        15         0         0         0         0        15         0         0
         0         0        15         0         0         0        15         0
         0         0        15         0        15         0        15         0
        15         0        15         0        15         0         0         0
        15         0         0        15         0        15         0        15
         0        15         0         0        15        15        15        15
         0        15         0         0         0        15         0        15
         0        15         0        15         0         0        15        15
        15        15         0        15         0         0         0        15
         0         0         0        15         0         0         0        15
         0         0         0        15         0         0         0        15
         0         0         0        15         0         0        15         0
         0        15         0         0         0        15         0         0
         0        15         0         0         0        15         0         0
         0        15         0         0         0        15         0         0
         0        15         0         0         0        15         0         0
         0         0        15         0         0         0        15         0
         0         0        15         0         0         0        15         0
         0         0        15         0         0         0        15         0
         0         0        15         0         0         0        15         0
         0         0        15         0         0         0        15         0
         0         0        15         0         0         0        15         0
         0         0        15         0         0         0        15         0
         0         0         0        15         0         0         0         0
        15         0         0         0        15         0         0         0
        15         0        15         0        15         0        15         0
        15         0        15         0         0         0        15         0
         0        15         0        15         0        15         0        15
         0         0        15        15        15        15         0        15
         0         0         0        15         0        15         0        15
         0        15         0         0        15        15        15        15
         0        15         0         0         0        15         0         0
         0        15         0         0         0        15         0         0
         0        15         0         0         0        15         0         0
         0        15         0         0        15         0         0        15
         0         0         0        15         0         0         0        15
         0         0         0        15         0         0         0        15
         0         0         0        15         0         0         0        15
         0         0         0        15         0         0         0         0
        15         0         0         0        15         0         0         0
        15         0         0         0        15         0         0         0
        15         0         0         0        15         0         0         0
        15         0         0         0        15         0         0         0
        15         0         0         0        15         0         0         0
        15         0         0         0        15         0         0         0
        15         0         0         0        15         0         0         0
         0        15         0         0         0         0        15         0
         0         0        15         0         0         0        15         0
        15         0        15         0        15         0        15         0
        15         0         0         0        15         0         0        15
         0        15         0        15         0        15         0         0
        15        15        15        15         0        15         0         0
         0        15         0        15         0        15         0        15
         0         0        15        15        15        15         0        15
         0         0         0        15         0         0         0        15
         0         0         0        15         0         0         0        15
         0         0         0        15         0         0         0        15
         0         0        15         0         0        15         0         0
         0        15         0         0         0        15         0         0
         0        15         0         0         0        15         0         0
         0        15         0         0         0        15         0         0
         0        15         0         0         0         0        15         0
         0         0        15         0         0         0        15         0
         0         0        15         0         0         0        15         0
         0         0        15         0         0         0        15         0
         0         0        15         0         0         0        15         0
         0         0        15         0         0         0        15         0
         0         0        15         0         0         0        15         0
         0         0        15         0         0         0         0        15
         0         0         0         0        15         0         0         0
        15         0         0         0        15         0        15         0
        15         0        15         0        15         0        15         0
         0         0        15         0         0        15         0        15
         0        15         0        15         0         0        15        15
        15        15         0        15         0         0         0        15
         0        15         0        15         0        15         0         0
        15        15        15        15         0        15         0         0
         0        15         0         0         0        15         0         0
         0        15         0         0         0        15         0         0
         0        15         0         0         0        15         0         0
        15         0         0        15         0         0         0        15
         0         0         0        15         0         0         0        15
         0         0         0        15         0         0         0        15
         0         0         0        15         0         0         0        15
         0         0         0         0        15         0         0         0
        15         0         0         0        15         0         0         0
        15         0         0         0        15         0         0         0
        15         0         0         0        15         0         0         0
        15         0         0         0        15         0         0         0
        15         0         0         0        15         0         0         0
        15         0         0         0        15         0         0         0
        15         0         0         0         0        15         0         0
         0         0        15         0         0         0        15         0
         0         0        15         0        15         0        15         0
        15         0        15         0        15         0         0         0
        15         0         0        15         0        15         0        15
         0        15         0         0        15        15        15        15
         0        15         0         0         0        15         0        15
         0        15         0        15         0         0        15        15
        15        15         0        15         0         0         0        15
         0         0         0        15         0         0         0        15
         0         0         0        15         0         0         0        15
         0         0         0        15         0         0        15         0
         0        15         0         0         0        15         0         0
         0        15         0         0         0        15         0         0
         0        15         0         0         0        15         0         0
         0        15         0         0         0        15         0         0
         0         0        15         0         0         0        15         0
         0         0        15         0         0         0        15         0
         0         0        15         0         0         0        15         0
         0         0        15         0         0         0        15         0
         0         0        15         0         0         0        15         0
         0         0        15         0         0         0        15         0
         0         0        15         0         0         0        15         0
         0         0         0        15         0         0         0         0
        15         0         0         0        15         0         0         0
        15         0        15         0        15         0        15         0
        15         0        15         0         0         0        15         0
         0        15         0        15         0        15         0        15
         0         0        15        15        15        15         0        15
         0         0         0        15         0        15         0        15
         0        15         0         0        15        15        15        15
         0        15         0         0         0        15         0         0
         0        15         0         0         0        15         0         0
         0        15         0         0         0        15         0         0
         0        15         0         0        15         0         0        15
         0         0         0        15         0         0         0        15
         0         0         0        15         0         0         0        15
         0         0         0        15         0         0         0        15
         0         0         0        15         0         0         0         0
        15         0         0         0        15         0         0         0
        15         0         0         0        15         0         0         0
        15         0         0         0        15         0         0         0
        15         0         0         0        15         0         0         0
        15         0         0         0        15         0         0         0
        15         0         0         0        15         0         0         0
        15         0         0         0        15         0         0         0
         0        15         0         0         0         0        15         0
         0         0        15         0         0         0        15         0
        15         0        15         0        15         0        15         0
        15         0         0         0        15         0         0        15
         0        15         0        15         0        15         0         0
        15        15        15        15         0        15         0         0
         0        15         0        15         0        15         0        15
         0         0        15        15        15        15         0        15
         0         0         0        15         0         0         0        15
         0         0         0        15         0         0         0        15
         0         0         0        15         0         0         0        15
         0         0        15         0         0        15         0         0
         0        15         0         0         0        15         0         0
         0        15         0         0         0        15         0         0
         0        15         0         0         0        15         0         0
         0        15         0         0         0         0        15         0
         0         0        15         0         0         0        15         0
         0         0        15         0         0         0        15         0
         0         0        15         0         0         0        15         0
         0         0        15         0         0         0        15         0
         0         0        15         0         0         0        15         0
         0         0        15         0         0         0        15         0
         0         0        15         0         0         0         0        15
         0         0         0         0        15         0         0         0
        15         0         0         0        15         0        15         0
        15         0        15         0        15         0        15         0
         0         0        15         0         0        15         0        15
         0        15         0        15         0         0        15        15
        15        15         0        15         0         0         0        15
         0        15         0        15         0        15         0         0
        15        15        15        15         0        15         0         0
         0        15         0         0         0        15         0         0
         0        15         0         0         0        15         0         0
         0        15         0         0         0        15         0         0
        15         0         0        15         0         0         0        15
         0         0         0        15         0         0         0        15
         0         0         0        15         0         0         0        15
         0         0         0        15         0         0         0        15
         0         0         0         0        15         0         0         0
        15         0         0         0        15         0         0         0
        15         0         0         0        15         0         0         0
        15         0         0         0        15         0         0         0
        15         0         0         0        15         0         0         0
        15         0         0         0        15         0         0         0
        15         0         0         0        15         0         0         0
        15         0         0         0         0        15         0         0
         0         0        15         0         0         0        15         0
         0         0        15         0        15         0        15         0
        15         0        15         0        15         0         0         0
        15         0         0        15         0        15         0        15
         0        15         0         0        15        15        15        15
         0        15         0         0         0        15         0        15
         0        15         0        15         0         0        15        15
        15        15         0        15         0         0         0        15
         0         0         0        15         0         0         0        15
         0         0         0        15         0         0         0        15
         0         0         0        15         0         0        15         0
         0        15         0         0         0        15         0         0
         0        15         0         0         0        15         0         0
         0        15         0         0         0        15         0         0
         0        15         0         0         0        15         0         0
         0         0        15         0         0         0        15         0
         0         0        15         0         0         0        15         0
         0         0        15         0         0         0        15         0
         0         0        15         0         0         0        15         0
         0         0        15         0         0         0        15         0
         0         0        15         0         0         0        15         0
         0         0        15         0         0         0        15         0
         0         0         0        15         0         0         0         0
        15         0         0         0        15         0         0         0
        15         0        15         0        15         0        15         0
        15         0        15         0         0         0        15         0
         0        15         0        15         0        15         0        15
         0         0        15        15        15        15         0        15
         0         0         0        15         0        15         0        15
         0        15         0         0        15        15        15        15
         0        15         0         0         0        15         0         0
         0        15         0         0         0        15         0         0
         0        15         0         0         0        15         0         0
         0        15         0         0        15         0         0        15
         0         0         0        15         0         0         0        15
         0         0         0        15         0         0         0        15
         0         0         0        15         0         0         0        15
         0         0         0        15         0         0         0         0
        15         0         0         0        15         0         0         0
        15         0         0         0        15         0         0         0
        15         0         0         0        15         0         0         0
        15         0         0         0        15         0         0         0
        15         0         0         0        15         0         0         0
        15         0         0         0        15         0         0         0
        15         0         0         0        15         0         0         0
         0        15         0         0         0         0        15         0
         0         0        15         0         0         0        15         0
        15         0        15         0        15         0        15         0
        15         0         0         0        15         0         0        15
         0        15         0        15         0        15         0         0
        15        15        15        15         0        15         0         0
         0        15         0        15         0        15         0        15
         0         0        15        15        15        15         0        15
         0         0         0        15         0         0         0        15
         0         0         0        15         0         0         0        15
         0         0         0        15         0         0         0        15
         0         0        15         0         0        15         0         0
         0        15         0         0         0        15         0         0
         0        15         0         0         0        15         0         0
         0        15         0         0         0        15         0         0
         0        15         0         0         0         0        15         0
         0         0        15         0         0         0        15         0
         0         0        15         0         0         0        15         0
         0         0        15         0         0         0        15         0
         0         0        15         0         0         0        15         0
         0         0        15         0         0         0        15         0
         0         0        15         0         0         0        15         0
         0         0        15         0         0         0         0        15
         0         0         0         0        15         0         0         0
        15         0         0         0        15         0        15         0
        15         0        15         0        15         0        15         0
         0         0        15         0         0        15         0        15
         0        15         0        15         0         0        15        15
        15        15         0        15         0         0         0        15
         0        15         0        15         0        15         0         0
        15        15        15        15         0        15         0         0
         0        15         0         0         0        15         0         0
         0        15         0         0         0        15         0         0
         0        15         0         0         0        15         0         0
        15         0         0        15         0         0         0        15
         0         0         0        15         0         0         0        15
         0         0         0        15         0         0         0        15
         0         0         0        15         0         0         0        15
         0         0         0         0        15         0         0         0
        15         0         0         0        15         0         0         0
        15         0         0         0        15         0         0         0
        15         0         0         0        15         0         0         0
        15         0         0         0        15         0         0         0
        15         0         0         0        15         0         0         0
        15         0         0         0        15         0         0         0
        15         0         0         0         0        15         0         0
         0         0        15         0         0         0        15         0
         0         0        15         0        15         0        15         0
        15         0        15         0        15         0         0         0
        15         0         0        15         0        15         0        15
         0        15         0         0        15        15        15        15
         0        15         0         0         0        15         0        15
         0        15         0        15         0         0        15        15
        15        15         0        15         0         0         0        15
         0         0         0        15         0         0         0        15
         0         0         0        15         0         0         0        15
         0         0         0        15         0         0        15         0
         0        15         0         0         0        15         0         0
         0        15         0         0         0        15         0         0
         0        15         0         0         0        15         0         0
         0        15         0         0         0        15         0         0
         0         0        15         0         0         0        15         0
         0         0        15         0         0         0        15         0
         0         0        15         0         0         0        15         0
         0         0        15         0         0         0        15         0
         0         0        15         0         0         0        15         0
         0         0        15         0         0         0        15         0
         0         0        15         0         0         0        15         0
         0         0         0        15         0         0         0         0
        15         0         0         0        15         0         0         0
        15         0        15         0        15         0        15         0
        15         0        15         0         0         0        15         0
         0        15         0        15         0        15         0        15
         0         0        15        15        15        15         0        15
         0         0         0        15         0        15         0        15
         0        15         0         0        15        15        15        15
         0        15         0         0         0        15         0         0
         0        15         0         0         0        15         0         0
         0        15         0         0         0        15         0         0
         0        15         0         0        15         0         0        15
         0         0         0        15         0         0         0        15
         0         0         0        15         0         0         0        15
         0         0         0        15         0         0         0        15
         0         0         0        15         0         0         0         0
        15         0         0         0        15         0         0         0
        15         0         0         0        15         0         0         0
        15         0         0         0        15         0         0         0
        15         0         0         0        15         0         0         0
        15         0         0         0        15         0         0         0
        15         0         0         0        15         0         0         0
        15         0         0         0        15         0         0         0
         0        15         0         0         0         0        15         0
         0         0        15         0         0         0        15         0
        15         0        15         0        15         0        15         0
        15         0         0         0        15         0         0        15
         0        15         0        15         0        15         0         0
        15        15        15        15         0        15         0         0
         0        15         0        15         0        15         0        15
         0         0        15        15        15        15         0        15
         0         0         0        15         0         0         0        15
         0         0         0        15         0         0         0        15
         0         0         0        15         0         0         0        15
         0         0        15         0         0        15         0         0
         0        15         0         0         0        15         0         0
         0        15         0         0         0        15         0         0
         0        15         0         0         0        15         0         0
         0        15         0         0         0         0        15         0
         0         0        15         0         0         0        15         0
         0         0        15         0         0         0        15         0
         0         0        15         0         0         0        15         0
         0         0        15         0         0         0        15         0
         0         0        15         0         0         0        15         0
         0         0        15         0         0         0        15         0
         0         0        15         0         0         0         0        15
         0         0         0         0        15         0         0         0
        15         0         0         0        15         0        15         0
        15         0        15         0        15         0        15         0
         0         0        15         0         0        15         0        15
         0        15         0        15         0         0        15        15
        15        15         0        15         0         0         0        15
         0        15         0        15         0        15         0         0
        15        15        15        15         0        15         0         0
         0        15         0         0         0        15         0         0
         0        15         0         0         0        15         0         0
         0        15         0         0         0        15         0         0
        15         0         0        15         0         0         0        15
         0         0         0        15         0         0         0        15
         0         0         0        15         0         0         0        15
         0         0         0        15         0         0         0        15
         0         0         0         0        15         0         0         0
        15         0         0         0        15         0         0         0
        15         0         0         0        15         0         0         0
        15         0         0         0        15         0         0         0
        15         0         0         0        15         0         0         0
        15         0         0         0        15         0         0         0
        15         0         0         0        15         0         0         0
        15         0         0         0         0        15         0         0
         0         0        15         0         0         0        15         0
         0         0        15         0        15         0        15         0
        15         0        15         0        15         0         0         0
        15         0         0        15         0        15         0        15
         0        15         0         0        15        15        15        15
         0        15         0         0         0        15         0        15
         0        15         0        15         0         0        15        15
        15        15         0        15         0         0         0        15
         0         0         0        15         0         0         0        15
         0         0         0        15         0         0         0        15
         0         0         0        15         0         0        15         0
         0        15         0         0         0        15         0         0
         0        15         0         0         0        15         0         0
         0        15         0         0         0        15         0         0
         0        15         0         0         0        15         0         0
         0         0        15         0         0         0        15         0
         0         0        15         0         0         0        15         0
         0         0        15         0         0         0        15         0
         0         0        15         0         0         0        15         0
         0         0        15         0         0         0        15         0
         0         0        15         0         0         0        15         0
         0         0        15         0         0         0        15         0
         0         0         0        15         0         0         0         0
        15         0         0         0        15         0         0         0
        15         0        15         0        15         0        15         0
        15         0        15         0         0         0        15         0
         0        15         0        15         0        15         0        15
         0         0        15        15        15        15         0        15
         0         0         0        15         0        15         0        15
         0        15         0         0        15        15        15        15
         0        15         0         0         0        15         0         0
         0        15         0         0         0        15         0         0
         0        15         0         0         0        15         0         0
         0        15         0         0        15         0         0        15
         0         0         0        15         0         0         0        15
         0         0         0        15         0         0         0        15
         0         0         0        15         0         0         0        15
         0         0         0        15         0         0         0         0
        15         0         0         0        15         0         0         0
        15         0         0         0        15         0         0         0
        15         0         0         0        15         0         0         0
        15         0         0         0        15         0         0         0
        15         0         0         0        15         0         0         0
        15         0         0         0        15         0         0         0
        15         0         0         0        15         0         0         0
         0        15         0         0         0         0        15         0
         0         0        15         0         0         0        15         0
        15         0        15         0        15         0        15         0
        15         0         0         0        15         0         0        15
         0        15         0        15         0        15         0         0
        15        15        15        15         0        15         0         0
         0        15         0        15         0        15         0        15
         0         0        15        15        15        15         0        15
         0         0         0        15         0         0         0        15
         0         0         0        15         0         0         0        15
         0         0         0        15         0         0         0        15
         0         0        15         0         0        15         0         0
         0        15         0         0         0        15         0         0
         0        15         0         0         0        15         0         0
         0        15         0         0         0        15         0         0
         0        15         0         0         0         0        15         0
         0         0        15         0         0         0        15         0
         0         0        15         0         0         0        15         0
         0         0        15         0         0         0        15         0
         0         0        15         0         0         0        15         0
         0         0        15         0         0         0        15         0
         0         0        15         0         0         0        15         0
         0         0        15         0         0         0         0        15
         0         0         0         0        15         0         0         0
        15         0         0         0        15         0        15         0
        15         0        15         0        15         0        15         0
         0         0        15         0         0        15         0        15
         0        15         0        15         0         0        15        15
        15        15         0        15         0         0         0        15
         0        15         0        15         0        15         0         0
        15        15        15        15         0        15         0         0
         0        15         0         0         0        15         0         0
         0        15         0         0         0        15         0         0
         0        15         0         0         0        15         0         0
        15         0         0        15         0         0         0        15
         0         0         0        15         0         0         0        15
         0         0         0        15         0         0         0        15
         0         0         0        15         0         0         0        15
         0         0         0         0        15         0         0         0
        15         0         0         0        15         0         0         0
        15         0         0         0        15         0         0         0
        15         0         0         0        15         0         0         0
        15         0         0         0        15         0         0         0
        15         0         0         0        15         0         0         0
        15         0         0         0        15         0         0         0
        15         0         0         0         0        15         0         0
         0         0        15         0         0         0        15         0
         0         0        15         0        15         0        15         0
        15         0        15         0        15         0         0         0
        15         0         0        15         0        15         0        15
         0        15         0         0        15        15        15        15
         0        15         0         0         0        15         0        15
         0        15         0        15         0         0        15        15
        15        15         0        15         0         0         0        15
         0         0         0        15         0         0         0        15
         0         0         0        15         0         0         0        15
         0         0         0        15         0         0        15         0
         0        15         0         0         0        15         0         0
         0        15         0         0         0        15         0         0
         0        15         0         0         0        15         0         0
         0        15         0         0         0        15         0         0
         0         0        15         0         0         0        15         0
         0         0        15         0         0         0        15         0
         0         0        15         0         0         0        15         0
         0         0        15         0         0         0        15         0
         0         0        15         0         0         0        15         0
         0         0        15         0         0         0        15         0
         0         0        15         0         0         0        15         0
         0         0         0        15         0         0         0         0
        15         0         0         0        15         0         0         0
        15         0        15         0        15         0        15         0
        15         0        15         0         0         0        15         0
         0        15         0        15         0        15         0        15
         0         0        15        15        15        15         0        15
         0         0         0        15         0        15         0        15
         0        15         0         0        15        15        15        15
         0        15         0         0         0        15         0         0
         0        15         0         0         0        15         0         0
         0        15         0         0         0        15         0         0
         0        15         0         0        15         0         0        15
         0         0         0        15         0         0         0        15
         0         0         0        15         0         0         0        15
         0         0         0        15         0         0         0        15
         0         0         0        15         0         0         0         0
        15         0         0         0        15         0         0         0
        15         0         0         0        15         0         0         0
        15         0         0         0        15         0         0         0
        15         0         0         0        15         0         0         0
        15         0         0         0        15         0         0         0
        15         0         0         0        15         0         0         0
        15         0         0         0        15         0         0         0
         0        15         0         0         0         0        15         0
         0         0        15         0         0         0        15         0
        15         0        15         0        15         0        15         0
        15         0         0         0        15         0         0        15
         0        15         0        15         0        15         0         0
        15        15        15        15         0        15         0         0
         0        15         0        15         0        15         0        15
         0         0        15        15        15        15         0        15
         0         0         0        15         0         0         0        15
         0         0         0        15         0         0         0        15
         0         0         0        15         0         0         0        15
         0         0        15         0         0        15         0         0
         0        15         0         0         0        15         0         0
         0        15         0         0         0        15         0         0
         0        15         0         0         0        15         0         0
         0        15         0         0         0         0        15         0
         0         0        15         0         0         0        15         0
         0         0        15         0         0         0        15         0
         0         0        15         0         0         0        15         0
         0         0        15         0         0         0        15         0
         0         0        15         0         0         0        15         0
         0         0        15         0         0         0        15         0
         0         0        15         0         0         0         0        15
         0         0         0         0        15         0         0         0
        15         0         0         0        15         0        15         0
        15         0        15         0        15         0        15         0
         0         0        15         0         0        15         0        15
         0        15         0        15         0         0        15        15
        15        15         0        15         0         0         0        15
         0        15         0        15         0        15         0         0
        15        15        15        15         0        15         0         0
         0        15         0         0         0        15         0         0
         0        15         0         0         0        15         0         0
         0        15         0         0         0        15         0         0
        15         0         0        15         0         0         0        15
         0         0         0        15         0         0         0        15
         0         0         0        15         0         0         0        15
         0         0         0        15         0         0         0        15
         0         0         0         0        15         0         0         0
        15         0         0         0        15         0         0         0
        15         0         0         0        15         0         0         0
        15         0         0         0        15         0         0         0
        15         0         0         0        15         0         0         0
        15         0         0         0        15         0         0         0
        15         0         0         0        15         0         0         0
        15         0         0         0         0        15         0         0
         0         0        15         0         0         0        15         0
         0         0        15         0        15         0        15         0
        15         0        15         0        15         0         0         0
        15         0         0        15         0        15         0        15
         0        15         0         0        15        15        15        15
         0        15         0         0         0        15         0        15
         0        15         0        15         0         0        15        15
        15        15         0        15         0         0         0        15
         0         0         0        15         0         0         0        15
         0         0         0        15         0         0         0        15
         0         0         0        15         0         0        15         0
         0        15         0         0         0        15         0         0
         0        15         0         0         0        15         0         0
         0        15         0         0         0        15         0         0
         0        15         0         0         0        15         0         0
         0         0        15         0         0         0        15         0
         0         0        15         0         0         0        15         0
         0         0        15         0         0         0        15         0
         0         0        15         0         0         0        15         0
         0         0        15         0         0         0        15         0
         0         0        15         0         0         0        15         0
         0         0        15         0         0         0        15         0
         0         0         0        15         0         0         0         0
        15         0         0         0        15         0         0         0
        15         0        15         0        15         0        15         0
        15         0        15         0         0         0        15         0
         0        15         0        15         0        15         0        15
         0         0        15        15        15        15         0        15
         0         0         0        15         0        15         0        15
         0        15         0         0        15        15        15        15
         0        15         0         0         0        15         0         0
         0        15         0         0         0        15         0         0
         0        15         0         0         0        15         0         0
         0        15         0         0        15         0         0        15
         0         0         0        15         0         0         0        15
         0         0         0        15         0         0         0        15
         0         0         0        15         0         0         0        15
         0         0         0        15         0         0         0         0
        15         0         0         0        15         0         0         0
        15         0         0         0        15         0         0         0
        15         0         0         0        15         0         0         0
        15         0         0         0        15         0         0         0
        15         0         0         0        15         0         0         0
        15         0         0         0        15         0         0         0
        15         0         0         0        15         0         0         0
         0        15         0         0         0         0        15         0
         0         0        15         0         0         0        15         0
        15         0        15         0        15         0        15         0
        15         0         0         0        15         0         0        15
         0        15         0        15         0        15         0         0
        15        15        15        15         0        15         0         0
         0        15         0        15         0        15         0        15
         0         0        15        15        15        15         0        15
         0         0         0        15         0         0         0        15
         0         0         0        15         0         0         0        15
         0         0         0        15         0         0         0        15
         0         0        15         0         0        15         0         0
         0        15         0         0         0        15         0         0
         0        15         0         0         0        15         0         0
         0        15         0         0         0        15         0         0
         0        15         0         0         0         0        15         0
         0         0        15         0         0         0        15         0
         0         0        15         0         0         0        15         0
         0         0        15         0         0         0        15         0
         0         0        15         0         0         0        15         0
         0         0        15         0         0         0        15         0
         0         0        15         0         0         0        15         0
         0         0        15         0         0         0         0        15
         0         0         0         0        15         0         0         0
        15         0         0         0        15         0        15         0
        15         0        15         0        15         0        15         0
         0         0        15         0         0        15         0        15
         0        15         0        15         0         0        15        15
        15        15         0        15         0         0         0        15
         0        15         0        15         0        15         0         0
        15        15        15        15         0        15         0         0
         0        15         0         0         0        15         0         0
         0        15         0         0         0        15         0         0
         0        15         0         0         0        15         0         0
        15         0         0        15         0         0         0        15
         0         0         0        15         0         0         0        15
         0         0         0        15         0         0         0        15
         0         0         0        15         0         0         0        15
         0         0         0         0        15         0         0         0
        15         0         0         0        15         0         0         0
        15         0         0         0        15         0         0         0
        15         0         0         0        15         0         0         0
        15         0         0         0        15         0         0         0
        15         0         0         0        15         0         0         0
        15         0         0         0        15         0         0         0
        15         0         0         0         0        15         0         0
         0         0        15         0         0         0        15         0
         0         0        15         0        15         0        15         0
        15         0        15         0        15         0         0         0
        15         0         0        15         0        15         0        15
         0        15         0         0        15        15        15        15
         0        15         0         0         0        15         0        15
         0        15         0        15         0         0        15        15
        15        15         0        15         0         0         0        15
         0         0         0        15         0         0         0        15
         0         0         0        15         0         0         0        15
         0         0         0        15         0         0        15         0
         0        15         0         0         0        15         0         0
         0        15         0         0         0        15         0         0
         0        15         0         0         0        15         0         0
         0        15         0         0         0        15         0         0
         0         0        15         0         0         0        15         0
         0         0        15         0         0         0        15         0
         0         0        15         0         0         0        15         0
         0         0        15         0         0         0        15         0
         0         0        15         0         0         0        15         0
         0         0        15         0         0         0        15         0
         0         0        15         0         0         0        15         0
         0         0         0        15         0         0         0         0
        15         0         0         0        15         0         0         0
        15         0        15         0        15         0        15         0
        15         0        15         0         0         0        15         0
         0        15         0        15         0        15         0        15
         0         0        15        15        15        15         0        15
         0         0         0        15         0        15         0        15
         0        15         0         0        15        15        15        15
         0        15         0         0         0        15         0         0
         0        15         0         0         0        15         0         0
         0        15         0         0         0        15         0         0
         0        15         0         0        15         0         0        15
         0         0         0        15         0         0         0        15
         0         0         0        15         0         0         0        15
         0         0         0        15         0         0         0        15
         0         0         0        15         0         0         0         0
        15         0         0         0        15         0         0         0
        15         0         0         0        15         0         0         0
        15         0         0         0        15         0         0         0
        15         0         0         0        15         0         0         0
        15         0         0         0        15         0         0         0
        15         0         0         0        15         0         0         0
        15         0         0         0        15         0         0         0
         0        15         0         0         0         0        15         0
         0         0        15         0         0         0        15         0
        15         0        15         0        15         0        15         0
        15         0         0         0        15         0         0        15
         0        15         0        15         0        15         0         0
        15        15        15        15         0        15         0         0
         0        15         0        15         0        15         0        15
         0         0        15        15        15        15         0        15
         0         0         0        15         0         0         0        15
         0         0         0        15         0         0         0        15
         0         0         0        15         0         0         0        15
         0         0        15         0         0        15         0         0
         0        15         0         0         0        15         0         0
         0        15         0         0         0        15         0         0
         0        15         0         0         0        15         0         0
         0        15         0         0         0         0        15         0
         0         0        15         0         0         0        15         0
         0         0        15         0         0         0        15         0
         0         0        15         0         0         0        15         0
         0         0        15         0         0         0        15         0
         0         0        15         0         0         0        15         0
         0         0        15         0         0         0        15         0
         0         0        15         0         0         0         0        15
         0         0         0         0        15         0         0         0
        15         0         0         0        15         0        15         0
        15         0        15         0        15         0        15         0
         0         0        15         0         0        15         0        15
         0        15         0        15         0         0        15        15
        15        15         0        15         0         0         0        15
         0        15         0        15         0        15         0         0
        15        15        15        15         0        15         0         0
         0        15         0         0         0        15         0         0
         0        15         0         0         0        15         0         0
         0        15         0         0         0        15         0         0
        15         0         0        15         0         0         0        15
         0         0         0        15         0         0         0        15
         0         0         0        15         0         0         0        15
         0         0         0        15         0         0         0        15
         0         0         0         0        15         0         0         0
        15         0         0         0        15         0         0         0
        15         0         0         0        15         0         0         0
        15         0         0         0        15         0         0         0
        15         0         0         0        15         0         0         0
        15         0         0         0        15         0         0         0
        15         0         0         0        15         0         0         0
        15         0         0         0         0        15         0         0
         0         0        15         0         0         0        15         0
         0         0        15         0        15         0        15         0
        15         0        15         0        15         0         0         0
        15         0         0        15         0        15         0        15
         0        15         0         0        15        15        15        15
         0        15         0         0         0        15         0        15
         0        15         0        15         0         0        15        15
        15        15         0        15         0         0         0        15
         0         0         0        15         0         0         0        15
         0         0         0        15         0         0         0        15
         0         0         0        15         0         0        15         0
         0        15         0         0         0        15         0         0
         0        15         0         0         0        15         0         0
         0        15         0         0         0        15         0         0
         0        15         0         0         0        15         0         0
         0         0        15         0         0         0        15         0
         0         0        15         0         0         0        15         0
         0         0        15         0         0         0        15         0
         0         0        15         0         0         0        15         0
         0         0        15         0         0         0        15         0
         0         0        15         0         0         0        15         0
         0         0        15         0         0         0        15         0
         0         0         0        15         0         0         0         0
        15         0         0         0        15         0         0         0
        15         0        15         0        15         0        15         0
        15         0        15         0         0         0        15         0
         0        15         0        15         0        15         0        15
         0         0        15        15        15        15         0        15
         0         0         0        15         0        15         0        15
         0        15         0         0        15        15        15        15
         0        15         0         0         0        15         0         0
         0        15         0         0         0        15         0         0
         0        15         0         0         0        15         0         0
         0        15         0         0        15         0         0        15
         0         0         0        15         0         0         0        15
         0         0         0        15         0         0         0        15
         0         0         0        15         0         0         0        15
         0         0         0        15         0         0         0         0
        15         0         0         0        15         0         0         0
        15         0         0         0        15         0         0         0
        15         0         0         0        15         0         0         0
        15         0         0         0        15         0         0         0
        15         0         0         0        15         0         0         0
        15         0         0         0        15         0         0         0
        15         0         0         0        15         0         0         0
         0        15         0         0         0         0        15         0
         0         0        15         0         0         0        15         0
        15         0        15         0        15         0        15         0
        15         0         0         0        15         0         0        15
         0        15         0        15         0        15         0         0
        15        15        15        15         0        15         0         0
         0        15         0        15         0        15         0        15
         0         0        15        15        15        15         0        15
         0         0         0        15         0         0         0        15
         0         0         0        15         0         0         0        15
         0         0         0        15         0         0         0        15
         0         0        15         0         0        15         0         0
         0        15         0         0         0        15         0         0
         0        15         0         0         0        15         0         0
         0        15         0         0         0        15         0         0
         0        15         0         0         0         0        15         0
         0         0        15         0         0         0        15         0
         0         0        15         0         0         0        15         0
         0         0        15         0         0         0        15         0
         0         0        15         0         0         0        15         0
         0         0        15         0         0         0        15         0
         0         0        15         0         0         0        15         0
         0         0        15         0         0         0         0        15
         0         0         0         0        15         0         0         0
        15         0         0         0        15         0        15         0
        15         0        15         0        15         0        15         0
         0         0        15         0         0        15         0        15
         0        15         0        15         0         0        15        15
        15        15         0        15         0         0         0        15
         0        15         0        15         0        15         0         0
        15        15        15        15         0        15         0         0
         0        15         0         0         0        15         0         0
         0        15         0         0         0        15         0         0
         0        15         0         0         0        15         0         0
        15         0         0        15         0         0         0        15
         0         0         0        15         0         0         0        15
         0         0         0        15         0         0         0        15
         0         0         0        15         0         0         0        15
         0         0         0         0        15         0         0         0
        15         0         0         0        15         0         0         0
        15         0         0         0        15         0         0         0
        15         0         0         0        15         0         0         0
        15         0         0         0        15         0         0         0
        15         0         0         0        15         0         0         0
        15         0         0         0        15         0         0         0
        15         0         0         0         0        15         0         0
         0         0        15         0         0         0        15         0
         0         0        15         0        15         0        15         0
        15         0        15         0        15         0         0         0
        15         0         0        15         0        15         0        15
         0        15         0         0        15        15        15        15
         0        15         0         0         0        15         0        15
         0        15         0        15         0         0        15        15
        15        15         0        15         0         0         0        15
         0         0         0        15         0         0         0        15
         0         0         0        15         0         0         0        15
         0         0         0        15         0         0        15         0
         0        15         0         0         0        15         0         0
         0        15         0         0         0        15         0         0
         0        15         0         0         0        15         0         0
         0        15         0         0         0        15         0         0
         0         0        15         0         0         0        15         0
         0         0        15         0         0         0        15         0
         0         0        15         0         0         0        15         0
         0         0        15         0         0         0        15         0
         0         0        15         0         0         0        15         0
         0         0        15         0         0         0        15         0
         0         0        15         0         0         0        15         0
         0         0         0        15         0         0         0         0
        15         0         0         0        15         0         0         0
        15         0        15         0        15         0        15         0
        15         0        15         0         0         0        15         0
         0        15         0        15         0        15         0        15
         0         0        15        15        15        15         0        15
         0         0         0        15         0        15         0        15
         0        15         0         0        15        15        15        15
         0        15         0         0         0        15         0         0
         0        15         0         0         0        15         0         0
         0        15         0         0         0        15         0         0
         0        15         0         0        15         0         0        15
         0         0         0        15         0         0         0        15
         0         0         0        15         0         0         0        15
         0         0         0        15         0         0         0        15
         0         0         0        15         0         0         0         0
        15         0         0         0        15         0         0         0
        15         0         0         0        15         0         0         0
        15         0         0         0        15         0         0         0
        15         0         0         0        15         0         0         0
        15         0         0         0        15         0         0         0
        15         0         0         0        15         0         0         0
        15         0         0         0        15         0         0         0
         0        15         0         0         0         0        15         0
         0         0        15         0         0         0        15         0
        15         0        15         0        15         0        15         0
        15         0         0         0        15         0         0        15
         0        15         0        15         0        15         0         0
        15        15        15        15         0        15         0         0
         0        15         0        15         0        15         0        15
         0         0        15        15        15        15         0        15
         0         0         0        15         0         0         0        15
         0         0         0        15         0         0         0        15
         0         0         0        15         0         0         0        15
         0         0        15         0         0        15         0         0
         0        15         0         0         0        15         0         0
         0        15         0         0         0        15         0         0
         0        15         0         0         0        15         0         0
         0        15         0         0         0         0        15         0
         0         0        15         0         0         0        15         0
         0         0        15         0         0         0        15         0
         0         0        15         0         0         0        15         0
         0         0        15         0         0         0        15         0
         0         0        15         0         0         0        15         0
         0         0        15         0         0         0        15         0
         0         0        15         0         0         0         0        15
         0         0         0         0        15         0         0         0
        15         0         0         0        15         0        15         0
        15         0        15         0        15         0        15         0
         0         0        15         0         0        15         0        15
         0        15         0        15         0         0        15        15
        15        15         0        15         0         0         0        15
         0        15         0        15         0        15         0         0
        15        15        15        15         0        15         0         0
         0        15         0         0         0        15         0         0
         0        15         0         0         0        15         0         0
         0        15         0         0         0        15         0         0
        15         0         0        15         0         0         0        15
         0         0         0        15         0         0         0        15
         0         0         0        15         0         0         0        15
         0         0         0        15         0         0         0        15
         0         0         0         0        15         0         0         0
        15         0         0         0        15         0         0         0
        15         0         0         0        15         0         0         0
        15         0         0         0        15         0         0         0
        15         0         0         0        15         0         0         0
        15         0         0         0        15         0         0         0
        15         0         0         0        15         0         0         0
        15         0         0         0         0        15         0         0
         0         0        15         0         0         0        15         0
         0         0        15         0        15         0        15         0
        15         0        15         0        15         0         0         0
        15         0         0        15         0        15         0        15
         0        15         0         0        15        15        15        15
         0        15         0         0         0        15         0        15
         0        15         0        15         0         0        15        15
        15        15         0        15         0         0         0        15
         0         0         0        15         0         0         0        15
         0         0         0        15         0         0         0        15
         0         0         0        15         0         0        15         0
         0        15         0         0         0        15         0         0
         0        15         0         0         0        15         0         0
         0        15         0         0         0        15         0         0
         0        15         0         0         0        15         0         0
         0         0        15         0         0         0        15         0
         0         0        15         0         0         0        15         0
         0         0        15         0         0         0        15         0
         0         0        15         0         0         0        15         0
         0         0        15         0         0         0        15         0
         0         0        15         0         0         0        15         0
         0         0        15         0         0         0        15         0
         0         0         0        15         0         0         0         0
        15         0         0         0        15         0         0         0
        15         0        15         0        15         0        15         0
        15         0        15         0         0         0        15         0
         0        15         0        15         0        15         0        15
         0         0        15        15        15        15         0        15
         0         0         0        15         0        15         0        15
         0        15         0         0        15        15        15        15
         0        15         0         0         0        15         0         0
         0        15         0         0         0        15         0         0
         0        15         0         0         0        15         0         0
         0        15         0         0        15         0         0        15
         0         0         0        15         0         0         0        15
         0         0         0        15         0         0         0        15
         0         0         0        15         0         0         0        15
         0         0         0        15         0         0         0         0
        15         0         0         0        15         0         0         0
        15         0         0         0        15         0         0         0
        15         0         0         0        15         0         0         0
        15         0         0         0        15         0         0         0
        15         0         0         0        15         0         0         0
        15         0         0         0        15         0         0         0
        15         0         0         0        15         0         0         0
         0        15         0         0         0         0        15         0
         0         0        15         0         0         0        15         0
        15         0        15         0        15         0        15         0
        15         0         0         0        15         0         0        15
         0        15         0        15         0        15         0         0
        15        15        15        15         0        15         0         0
         0        15         0        15         0        15         0        15
         0         0        15        15        15        15         0        15
         0         0         0        15         0         0         0        15
         0         0         0        15         0         0         0        15
         0         0         0        15         0         0         0        15
         0         0        15         0         0        15         0         0
         0        15         0         0         0        15         0         0
         0        15         0         0         0        15         0         0
         0        15         0         0         0        15         0         0
         0        15         0         0         0         0        15         0
         0         0        15         0         0         0        15         0
         0         0        15         0         0         0        15         0
         0         0        15         0         0         0        15         0
         0         0        15         0         0         0        15         0
         0         0        15         0         0         0        15         0
         0         0        15         0         0         0        15         0
         0         0        15         0         0         0         0        15
         0         0         0         0        15         0         0         0
        15         0         0         0        15         0        15         0
        15         0        15         0        15         0        15         0
         0         0        15         0         0        15         0        15
         0        15         0        15         0         0        15        15
        15        15         0        15         0         0         0        15
         0        15         0        15         0        15         0         0
        15        15        15        15         0        15         0         0
         0        15         0         0         0        15         0         0
         0        15         0         0         0        15         0         0
         0        15         0         0         0        15         0         0
        15         0         0        15         0         0         0        15
         0         0         0        15         0         0         0        15
         0         0         0        15         0         0         0        15
         0         0         0        15         0         0         0        15
         0         0         0         0        15         0         0         0
        15         0         0         0        15         0         0         0
        15         0         0         0        15         0         0         0
        15         0         0         0        15         0         0         0
        15         0         0         0        15         0         0         0
        15         0         0         0        15         0         0         0
        15         0         0         0        15         0         0         0
        15         0         0         0         0        15         0         0
         0         0        15         0         0         0        15         0
         0         0        15         0        15         0        15         0
        15         0        15         0        15         0         0         0
        15         0         0        15         0        15         0        15
         0        15         0         0        15        15        15        15
         0        15         0         0         0        15         0        15
         0        15         0        15         0         0        15        15
        15        15         0        15         0         0         0        15
         0         0         0        15         0         0         0        15
         0         0         0        15         0         0         0        15
         0         0         0        15         0         0        15         0
         0        15         0         0         0        15         0         0
         0        15         0         0         0        15         0         0
         0        15         0         0         0        15         0         0
         0        15         0         0         0        15         0         0
         0         0        15         0         0         0        15         0
         0         0        15         0         0         0        15         0
         0         0        15         0         0         0        15         0
         0         0        15         0         0         0        15         0
         0         0        15         0         0         0        15         0
         0         0        15         0         0         0        15         0
         0         0        15         0         0         0        15         0
         0         0         0        15         0         0         0         0
        15         0         0         0        15         0         0         0
        15         0        15         0        15         0        15         0
        15         0        15         0         0         0        15         0
         0        15         0        15         0        15         0        15
         0         0        15        15        15        15         0        15
         0         0         0        15         0        15         0        15
         0        15         0         0        15        15        15        15
         0        15         0         0         0        15         0         0
         0        15         0         0         0        15         0         0
         0        15         0         0         0        15         0         0
         0        15         0         0        15         0         0        15
         0         0         0        15         0         0         0        15
         0         0         0        15         0         0         0        15
         0         0         0        15         0         0         0        15
         0         0         0        15         0         0         0         0
        15         0         0         0        15         0         0         0
        15         0         0         0        15         0         0         0
        15         0         0         0        15         0         0         0
        15         0         0         0        15         0         0         0
        15         0         0         0        15         0         0         0
        15         0         0         0        15         0         0         0
        15         0         0         0        15         0         0         0
         0        15         0         0         0         0        15         0
         0         0        15         0         0         0        15         0
        15         0        15         0        15         0        15         0
        15         0         0         0        15         0         0        15
         0        15         0        15         0        15         0         0
        15        15        15        15         0        15         0         0
         0        15         0        15         0        15         0        15
         0         0        15        15        15        15         0        15
         0         0         0        15         0         0         0        15
         0         0         0        15         0         0         0        15
         0         0         0        15         0         0         0        15
         0         0        15         0         0        15         0         0
         0        15         0         0         0        15         0         0
         0        15         0         0         0        15         0         0
         0        15         0         0         0        15         0         0
         0        15         0         0         0         0        15         0
         0         0        15         0         0         0        15         0
         0         0        15         0         0         0        15         0
         0         0        15         0         0         0        15         0
         0         0        15         0         0         0        15         0
         0         0        15         0         0         0        15         0
         0         0        15         0         0         0        15         0
         0         0        15         0         0         0         0        15
         0         0         0         0        15         0         0         0
        15         0         0         0        15         0        15         0
        15         0        15         0        15         0        15         0
         0         0        15         0         0        15         0        15
         0        15         0        15         0         0        15        15
        15        15         0        15         0         0         0        15
         0        15         0        15         0        15         0         0
        15        15        15        15         0        15         0         0
         0        15         0         0         0        15         0         0
         0        15         0         0         0        15         0         0
         0        15         0         0         0        15         0         0
        15         0         0        15         0         0         0        15
         0         0         0        15         0         0         0        15
         0         0         0        15         0         0         0        15
         0         0         0        15         0         0         0        15
         0         0         0         0        15         0         0         0
        15         0         0         0        15         0         0         0
        15         0         0         0        15         0         0         0
        15         0         0         0        15         0         0         0
        15         0         0         0        15         0         0         0
        15         0         0         0        15         0         0         0
        15         0         0         0        15         0         0         0
        15         0         0         0         0        15         0         0
         0         0        15         0         0         0        15         0
         0         0        15         0        15         0        15         0
        15         0        15         0        15         0         0         0
        15         0         0        15         0        15         0        15
         0        15         0         0        15        15        15        15
         0        15         0         0         0        15         0        15
         0        15         0        15         0         0        15        15
        15        15         0        15         0         0         0        15
         0         0         0        15         0         0         0        15
         0         0         0        15         0         0         0        15
         0         0         0        15         0         0        15         0
         0        15         0         0         0        15         0         0
         0        15         0         0         0        15         0         0
         0        15         0         0         0        15         0         0
         0        15         0         0         0        15         0         0
         0         0        15         0         0         0        15         0
         0         0        15         0         0         0        15         0
         0         0        15         0         0         0        15         0
         0         0        15         0         0         0        15         0
         0         0        15         0         0         0        15         0
         0         0        15         0         0         0        15         0
         0         0        15         0         0         0        15         0
         0         0         0        15         0         0         0         0
        15         0         0         0        15         0         0         0
        15         0        15         0        15         0        15         0
        15         0        15         0         0         0        15         0
         0        15         0        15         0        15         0        15
         0         0        15        15        15        15         0        15
         0         0         0        15         0        15         0        15
         0        15         0         0        15        15        15        15
         0        15         0         0         0        15         0         0
         0        15         0         0         0        15         0         0
         0        15         0         0         0        15         0         0
         0        15         0         0        15         0         0        15
         0         0         0        15         0         0         0        15
         0         0         0        15         0         0         0        15
         0         0         0        15         0         0         0        15
         0         0         0        15         0         0         0         0
        15         0         0         0        15         0         0         0
        15         0         0         0        15         0         0         0
        15         0         0         0        15         0         0         0
        15         0         0         0        15         0         0         0
        15         0         0         0        15         0         0         0
        15         0         0         0        15         0         0         0
        15         0         0         0        15         0         0         0
         0        15         0         0         0         0        15         0
         0         0        15         0         0         0        15         0
        15         0        15         0        15         0        15         0
        15         0         0         0        15         0         0        15
         0        15         0        15         0        15         0         0
        15        15        15        15         0        15         0         0
         0        15         0        15         0        15         0        15
         0         0        15        15        15        15         0        15
         0         0         0        15         0         0         0        15
         0         0         0        15         0         0         0        15
         0         0         0        15         0         0         0        15
         0         0        15         0         0        15         0         0
         0        15         0         0         0        15         0         0
         0        15         0         0         0        15         0         0
         0        15         0         0         0        15         0         0
         0        15         0         0         0         0        15         0
         0         0        15         0         0         0        15         0
         0         0        15         0         0         0        15         0
         0         0        15         0         0         0        15         0
         0         0        15         0         0         0        15         0
         0         0        15         0         0         0        15         0
         0         0        15         0         0         0        15         0
         0         0        15         0         0         0         0        15
         0         0         0         0        15         0         0         0
        15         0         0         0        15         0        15         0
        15         0        15         0        15         0        15         0
         0         0        15         0         0        15         0        15
         0        15         0        15         0         0        15        15
        15        15         0        15         0         0         0        15
         0        15         0        15         0        15         0         0
        15        15        15        15         0        15         0         0
         0        15         0         0         0        15         0         0
         0        15         0         0         0        15         0         0
         0        15         0         0         0        15         0         0
        15         0         0        15         0         0         0        15
         0         0         0        15         0         0         0        15
         0         0         0        15         0         0         0        15
         0         0         0        15         0         0         0        15
         0         0         0         0        15         0         0         0
        15         0         0         0        15         0         0         0
        15         0         0         0        15         0         0         0
        15         0         0         0        15         0         0         0
        15         0         0         0        15         0         0         0
        15         0         0         0        15         0         0         0
        15         0         0         0        15         0         0         0
        15         0         0         0         0        15         0         0
         0         0        15         0         0         0        15         0
         0         0        15         0        15         0        15         0
        15         0        15         0        15         0         0         0
        15         0         0        15         0        15         0        15
         0        15         0         0        15        15        15        15
         0        15         0         0         0        15         0        15
         0        15         0        15         0         0        15        15
        15        15         0        15         0         0         0        15
         0         0         0        15         0         0         0        15
         0         0         0        15         0         0         0        15
         0         0         0        15         0         0        15         0
         0        15         0         0         0        15         0         0
         0        15         0         0         0        15         0         0
         0        15         0         0         0        15         0         0
         0        15         0         0         0        15         0         0
         0         0        15         0         0         0        15         0
         0         0        15         0         0         0        15         0
         0         0        15         0         0         0        15         0
         0         0        15         0         0         0        15         0
         0         0        15         0         0         0        15         0
         0         0        15         0         0         0        15         0
         0         0        15         0         0         0        15         0
         0         0         0        15         0         0         0         0
        15         0         0         0        15         0         0         0
        15         0        15         0        15         0        15         0
        15         0        15         0         0         0        15         0
         0        15         0        15         0        15         0        15
         0         0        15        15        15        15         0        15
         0         0         0        15         0        15         0        15
         0        15         0         0        15        15        15        15
         0        15         0         0         0        15         0         0
         0        15         0         0         0        15         0         0
         0        15         0         0         0        15         0         0
         0        15         0         0        15         0         0        15
         0         0         0        15         0         0         0        15
         0         0         0        15         0         0         0        15
         0         0         0        15         0         0         0        15
         0         0         0        15         0         0         0         0
        15         0         0         0        15         0         0         0
        15         0         0         0        15         0         0         0
        15         0         0         0        15         0         0         0
        15         0         0         0        15         0         0         0
        15         0         0         0        15         0         0         0
        15         0         0         0        15         0         0         0
        15         0         0         0        15         0         0         0
         0        15         0         0         0         0        15         0
         0         0        15         0         0         0        15         0
        15         0        15         0        15         0        15         0
        15         0         0         0        15         0         0        15
         0        15         0        15         0        15         0         0
        15        15        15        15         0        15         0         0
         0        15         0        15         0        15         0        15
         0         0        15        15        15        15         0        15
         0         0         0        15         0         0         0        15
         0         0         0        15         0         0         0        15
         0         0         0        15         0         0         0        15
         0         0        15         0         0        15         0         0
         0        15         0         0         0        15         0         0
         0        15         0         0         0        15         0         0
         0        15         0         0         0        15         0         0
         0        15         0         0         0         0        15         0
         0         0        15         0         0         0        15         0
         0         0        15         0         0         0        15         0
         0         0        15         0         0         0        15         0
         0         0        15         0         0         0        15         0
         0         0        15         0         0         0        15         0
         0         0        15         0         0         0        15         0
         0         0        15         0         0         0         0        15
         0         0         0         0        15         0         0         0
        15         0         0         0        15         0        15         0
        15         0        15         0        15         0        15         0
         0         0        15         0         0        15         0        15
         0        15         0        15         0         0        15        15
        15        15         0        15         0         0         0        15
         0        15         0        15         0        15         0         0
        15        15        15        15         0        15         0         0
         0        15         0         0         0        15         0         0
         0        15         0         0         0        15         0         0
         0        15         0         0         0        15         0         0
        15         0         0        15         0         0         0        15
         0         0         0        15         0         0         0        15
         0         0         0        15         0         0         0        15
         0         0         0        15         0         0         0        15
         0         0         0         0        15         0         0         0
        15         0         0         0        15         0         0         0
        15         0         0         0        15         0         0         0
        15         0         0         0        15         0         0         0
        15         0         0         0        15         0         0         0
        15         0         0         0        15         0         0         0
        15         0         0         0        15         0         0         0
        15         0         0         0         0        15         0         0
         0         0        15         0         0         0        15         0
         0         0        15         0        15         0        15         0
        15         0        15         0        15         0         0         0
        15         0         0        15         0        15         0        15
         0        15         0         0        15        15        15        15
         0        15         0         0         0        15         0        15
         0        15         0        15         0         0        15        15
        15        15         0        15         0         0         0        15
         0         0         0        15         0         0         0        15
         0         0         0        15         0         0         0        15
         0         0         0        15         0         0        15         0
         0        15         0         0         0        15         0         0
         0        15         0         0         0        15         0         0
         0        15         0         0         0        15         0         0
         0        15         0         0         0        15         0         0
         0         0        15         0         0         0        15         0
         0         0        15         0         0         0        15         0
         0         0        15         0         0         0        15         0
         0         0        15         0         0         0        15         0
         0         0        15         0         0         0        15         0
         0         0        15         0         0         0        15         0
         0         0        15         0         0         0        15         0
         0         0         0        15         0         0         0         0
        15         0         0         0        15         0         0         0
        15         0        15         0        15         0        15         0
        15         0        15         0         0         0        15         0
         0        15         0        15         0        15         0        15
         0         0        15        15        15        15         0        15
         0         0         0        15         0        15         0        15
         0        15         0         0        15        15        15        15
         0        15         0         0         0        15         0         0
         0        15         0         0         0        15         0         0
         0        15         0         0         0        15         0         0
         0        15         0         0        15         0         0        15
         0         0         0        15         0         0         0        15
         0         0         0        15         0         0         0        15
         0         0         0        15         0         0         0        15
         0         0         0        15         0         0         0         0
        15         0         0         0        15         0         0         0
        15         0         0         0        15         0         0         0
        15         0         0         0        15         0         0         0
        15         0         0         0        15         0         0         0
        15         0         0         0        15         0         0         0
        15         0         0         0        15         0         0         0
        15         0         0         0        15         0         0         0
         0        15         0         0         0         0        15         0
         0         0        15         0         0         0        15         0
        15         0        15         0        15         0        15         0
        15         0         0         0        15         0         0        15
         0        15         0        15         0        15         0         0
        15        15        15        15         0        15         0         0
         0        15         0        15         0        15         0        15
         0         0        15        15        15        15         0        15
         0         0         0        15         0         0         0        15
         0         0         0        15         0         0         0        15
         0         0         0        15         0         0         0        15
         0         0        15         0         0        15         0         0
         0        15         0         0         0        15         0         0
         0        15         0         0         0        15         0         0
         0        15         0         0         0        15         0         0
         0        15         0         0         0         0        15         0
         0         0        15         0         0         0        15         0
         0         0        15         0         0         0        15         0
         0         0        15         0         0         0        15         0
         0         0        15         0         0         0        15         0
         0         0        15         0         0         0        15         0
         0         0        15         0         0         0        15         0
         0         0        15         0         0         0         0        15
         0         0         0         0        15         0         0         0
        15         0         0         0        15         0        15         0
        15         0        15         0        15         0        15         0
         0         0        15         0         0        15         0        15
         0        15         0        15         0         0        15        15
        15        15         0        15         0         0         0        15
         0        15         0        15         0        15         0         0
        15        15        15        15         0        15         0         0
         0        15         0         0         0        15         0         0
         0        15         0         0         0        15         0         0
         0        15         0         0         0        15         0         0
        15         0         0        15         0         0         0        15
         0         0         0        15         0         0         0        15
         0         0         0        15         0         0         0        15
         0         0         0        15         0         0         0        15
         0         0         0         0        15         0         0         0
        15         0         0         0        15         0         0         0
        15         0         0         0        15         0         0         0
        15         0         0         0        15         0         0         0
        15         0         0         0        15         0         0         0
        15         0         0         0        15         0         0         0
        15         0         0         0        15         0         0         0
        15         0         0         0         0        15         0         0
         0         0        15         0         0         0        15         0
         0         0        15         0        15         0        15         0
        15         0        15         0        15         0         0         0
        15         0         0        15         0        15         0        15
         0        15         0         0        15        15        15        15
         0        15         0         0         0        15         0        15
         0        15         0        15         0         0        15        15
        15        15         0        15         0         0         0        15
         0         0         0        15         0         0         0        15
         0         0         0        15         0         0         0        15
         0         0         0        15         0         0        15         0
         0        15         0         0         0        15         0         0
         0        15         0         0         0        15         0         0
         0        15         0         0         0        15         0         0
         0        15         0         0         0        15         0         0
         0         0        15         0         0         0        15         0
         0         0        15         0         0         0        15         0
         0         0        15         0         0         0        15         0
         0         0        15         0         0         0        15         0
         0         0        15         0         0         0        15         0
         0         0        15         0         0         0        15         0
         0         0        15         0         0         0        15         0
         0         0         0        15         0         0         0         0
        15         0         0         0        15         0         0         0
        15         0        15         0        15         0        15         0
        15         0        15         0         0         0        15         0
         0        15         0        15         0        15         0        15
         0         0        15        15        15        15         0        15
         0         0         0        15         0        15         0        15
         0        15         0         0        15        15        15        15
         0        15         0         0         0        15         0         0
         0        15         0         0         0        15         0         0
         0        15         0         0         0        15         0         0
         0        15         0         0        15         0         0        15
         0         0         0        15         0         0         0        15
         0         0         0        15         0         0         0        15
         0         0         0        15         0         0         0        15
         0         0         0        15         0         0         0         0
        15         0         0         0        15         0         0         0
        15         0         0         0        15         0         0         0
        15         0         0         0        15         0         0         0
        15         0         0         0        15         0         0         0
        15         0         0         0        15         0         0         0
        15         0         0         0        15         0         0         0
        15         0         0         0        15         0         0         0
         0        15         0         0         0         0        15         0
         0         0        15         0         0         0        15         0
        15         0        15         0        15         0        15         0
        15         0         0         0        15         0         0        15
         0        15         0        15         0        15         0         0
        15        15        15        15         0        15         0         0
         0        15         0        15         0        15         0        15
         0         0        15        15        15        15         0        15
         0         0         0        15         0         0         0        15
         0         0         0        15         0         0         0        15
         0         0         0        15         0         0         0        15
         0         0        15         0         0        15         0         0
         0        15         0         0         0        15         0         0
         0        15         0         0         0        15         0         0
         0        15         0         0         0        15         0         0
         0        15         0         0         0         0        15         0
         0         0        15         0         0         0        15         0
         0         0        15         0         0         0        15         0
         0         0        15         0         0         0        15         0
         0         0        15         0         0         0        15         0
         0         0        15         0         0         0        15         0
         0         0        15         0         0         0        15         0
         0         0        15         0         0         0         0        15
         0         0         0         0        15         0         0         0
        15         0         0         0        15         0        15         0
        15         0        15         0        15         0        15         0
         0         0        15         0         0        15         0        15
         0        15         0        15         0         0        15        15
        15        15         0        15         0         0         0        15
         0        15         0        15         0        15         0         0
        15        15        15        15         0        15         0         0
         0        15         0         0         0        15         0         0
         0        15         0         0         0        15         0         0
         0        15         0         0         0        15         0         0
        15         0         0        15         0         0         0        15
         0         0         0        15         0         0         0        15
         0         0         0        15         0         0         0        15
         0         0         0        15         0         0         0        15
         0         0         0         0        15         0         0         0
        15         0         0         0        15         0         0         0
        15         0         0         0        15         0         0         0
        15         0         0         0        15         0         0         0
        15         0         0         0        15         0         0         0
        15         0         0         0        15         0         0         0
        15         0         0         0        15         0         0         0
        15         0         0         0         0        15         0         0
         0         0        15         0         0         0        15         0
         0         0        15         0        15         0        15         0
        15         0        15         0        15         0         0         0
        15         0         0        15         0        15         0        15
         0        15         0         0        15        15        15        15
         0        15         0         0         0        15         0        15
         0        15         0        15         0         0        15        15
        15        15         0        15         0         0         0        15
         0         0         0        15         0         0         0        15
         0         0         0        15         0         0         0        15
         0         0         0        15         0         0        15         0
         0        15         0         0         0        15         0         0
         0        15         0         0         0        15         0         0
         0        15         0         0         0        15         0         0
         0        15         0         0         0        15         0         0
         0         0        15         0         0         0        15         0
         0         0        15         0         0         0        15         0
         0         0        15         0         0         0        15         0
         0         0        15         0         0         0        15         0
         0         0        15         0         0         0        15         0
         0         0        15         0         0         0        15         0
         0         0        15         0         0         0        15         0
         0         0         0        15         0         0         0         0
        15         0         0         0        15         0         0         0
        15         0        15         0        15         0        15         0
        15         0        15         0         0         0        15         0
         0        15         0        15         0        15         0        15
         0         0        15        15        15        15         0        15
         0         0         0        15         0        15         0        15
         0        15         0         0        15        15        15        15
         0        15         0         0         0        15         0         0
         0        15         0         0         0        15         0         0
         0        15         0         0         0        15         0         0
         0        15         0         0        15         0         0        15
         0         0         0        15         0         0         0        15
         0         0         0        15         0         0         0        15
         0         0         0        15         0         0         0        15
         0         0         0        15         0         0         0         0
        15         0         0         0        15         0         0         0
        15         0         0         0        15         0         0         0
        15         0         0         0        15         0         0         0
        15         0         0         0        15         0         0         0
        15         0         0         0        15         0         0         0
        15         0         0         0        15         0         0         0
        15         0         0         0        15         0         0         0
         0        15         0         0         0         0        15         0
         0         0        15         0         0         0        15         0
        15         0        15         0        15         0        15         0
        15         0         0         0        15         0         0        15
         0        15         0        15         0        15         0         0
        15        15        15        15         0        15         0         0
         0        15         0        15         0        15         0        15
         0         0        15        15        15        15         0        15
         0         0         0        15         0         0         0        15
         0         0         0        15         0         0         0        15
         0         0         0        15         0         0         0        15
         0         0        15         0         0        15         0         0
         0        15         0         0         0        15         0         0
         0        15         0         0         0        15         0         0
         0        15         0         0         0        15         0         0
         0        15         0         0         0         0        15         0
         0         0        15         0         0         0        15         0
         0         0        15         0         0         0        15         0
         0         0        15         0         0         0        15         0
         0         0        15         0         0         0        15         0
         0         0        15         0         0         0        15         0
         0         0        15         0         0         0        15         0
         0         0        15         0         0         0         0        15
         0         0         0         0        15         0         0         0
        15         0         0         0        15         0        15         0
        15         0        15         0        15         0        15         0
         0         0        15         0         0        15         0        15
         0        15         0        15         0         0        15        15
        15        15         0        15         0         0         0        15
         0        15         0        15         0        15         0         0
        15        15        15        15         0        15         0         0
         0        15         0         0         0        15         0         0
         0        15         0         0         0        15         0         0
         0        15         0         0         0        15         0         0
        15         0         0        15         0         0         0        15
         0         0         0        15         0         0         0        15
         0         0         0        15         0         0         0        15
         0         0         0        15         0         0         0        15
         0         0         0         0        15         0         0         0
        15         0         0         0        15         0         0         0
        15         0         0         0        15         0         0         0
        15         0         0         0        15         0         0         0
        15         0         0         0        15         0         0         0
        15         0         0         0        15         0         0         0
        15         0         0         0        15         0         0         0
        15         0         0         0         0        15         0         0
         0         0        15         0         0         0        15         0
         0         0        15         0        15         0        15         0
        15         0        15         0        15         0         0         0
        15         0         0        15         0        15         0        15
         0        15         0         0        15        15        15        15
         0        15         0         0         0        15         0        15
         0        15         0        15         0         0        15        15
        15        15         0        15         0         0         0        15
         0         0         0        15         0         0         0        15
         0         0         0        15         0         0         0        15
         0         0         0        15         0         0        15         0
         0        15         0         0         0        15         0         0
         0        15         0         0         0        15         0         0
         0        15         0         0         0        15         0         0
         0        15         0         0         0        15         0         0
         0         0        15         0         0         0        15         0
         0         0        15         0         0         0        15         0
         0         0        15         0         0         0        15         0
         0         0        15         0         0         0        15         0
         0         0        15         0         0         0        15         0
         0         0        15         0         0         0        15         0
         0         0        15         0         0         0        15         0
         0         0         0        15         0         0         0         0
        15         0         0         0        15         0         0         0
        15         0        15         0        15         0        15         0
        15         0        15         0         0         0        15         0
         0        15         0        15         0        15         0        15
         0         0        15        15        15        15         0        15
         0         0         0        15         0        15         0        15
         0        15         0         0        15        15        15        15
         0        15         0         0         0        15         0         0
         0        15         0         0         0        15         0         0
         0        15         0         0         0        15         0         0
         0        15         0         0        15         0         0        15
         0         0         0        15         0         0         0        15
         0         0         0        15         0         0         0        15
         0         0         0        15         0         0         0        15
         0         0         0        15         0         0         0         0
        15         0         0         0        15         0         0         0
        15         0         0         0        15         0         0         0
        15         0         0         0        15         0         0         0
        15         0         0         0        15         0         0         0
        15         0         0         0        15         0         0         0
        15         0         0         0        15         0         0         0
        15         0         0         0        15         0         0         0
         0        15         0         0         0         0        15         0
         0         0        15         0         0         0        15         0
        15         0        15         0        15         0        15         0
        15         0         0         0        15         0         0        15
         0        15         0        15         0        15         0         0
        15        15        15        15         0        15         0         0
         0        15         0        15         0        15         0        15
         0         0        15        15        15        15         0        15
         0         0         0        15         0         0         0        15
         0         0         0        15         0         0         0        15
         0         0         0        15         0         0         0        15
         0         0        15         0         0        15         0         0
         0        15         0         0         0        15         0         0
         0        15         0         0         0        15         0         0
         0        15         0         0         0        15         0         0
         0        15         0         0         0         0        15         0
         0         0        15         0         0         0        15         0
         0         0        15         0         0         0        15         0
         0         0        15         0         0         0        15         0
         0         0        15         0         0         0        15         0
         0         0        15         0         0         0        15         0
         0         0        15         0         0         0        15         0
         0         0        15         0         0         0         0        15
         0         0         0         0        15         0         0         0
        15         0         0         0        15         0        15         0
        15         0        15         0        15         0        15         0
         0         0        15         0         0        15         0        15
         0        15         0        15         0         0        15        15
        15        15         0        15         0         0         0        15
         0        15         0        15         0        15         0         0
        15        15        15        15         0        15         0         0
         0        15         0         0         0        15         0         0
         0        15         0         0         0        15         0         0
         0        15         0         0         0        15         0         0
        15         0         0        15         0         0         0        15
         0         0         0        15         0         0         0        15
         0         0         0        15         0         0         0        15
         0         0         0        15         0         0         0        15
         0         0         0         0        15         0         0         0
        15         0         0         0        15         0         0         0
        15         0         0         0        15         0         0         0
        15         0         0         0        15         0         0         0
        15         0         0         0        15         0         0         0
        15         0         0         0        15         0         0         0
        15         0         0         0        15         0         0         0
        15         0         0         0         0        15         0         0
         0         0        15         0         0         0        15         0
         0         0        15         0        15         0        15         0
        15         0        15         0        15         0         0         0
        15         0         0        15         0        15         0        15
         0        15         0         0        15        15        15        15
         0        15         0         0         0        15         0        15
         0        15         0        15         0         0        15        15
        15        15         0        15         0         0         0        15
         0         0         0        15         0         0         0        15
         0         0         0        15         0         0         0        15
         0         0         0        15         0         0        15         0
         0        15         0         0         0        15         0         0
         0        15         0         0         0        15         0         0
         0        15         0         0         0        15         0         0
         0        15         0         0         0        15         0         0
         0         0        15         0         0         0        15         0
         0         0        15         0         0         0        15         0
         0         0        15         0         0         0        15         0
         0         0        15         0         0         0        15         0
         0         0        15         0         0         0        15         0
         0         0        15         0         0         0        15         0
         0         0        15         0         0         0        15         0
         0         0         0        15         0         0         0         0
        15         0         0         0        15         0         0         0
        15         0        15         0        15         0        15         0
        15         0        15         0         0         0        15         0
         0        15         0        15         0        15         0        15
         0         0        15        15        15        15         0        15
         0         0         0        15         0        15         0        15
         0        15         0         0        15        15        15        15
         0        15         0         0         0        15         0         0
         0        15         0         0         0        15         0         0
         0        15         0         0         0        15         0         0
         0        15         0         0        15         0         0        15
         0         0         0        15         0         0         0        15
         0         0         0        15         0         0         0        15
         0         0         0        15         0         0         0        15
         0         0         0        15         0         0         0         0
        15         0         0         0        15         0         0         0
        15         0         0         0        15         0         0         0
        15         0         0         0        15         0         0         0
        15         0         0         0        15         0         0         0
        15         0         0         0        15         0         0         0
        15         0         0         0        15         0         0         0
        15         0         0         0        15         0         0         0
         0        15         0         0         0         0        15         0
         0         0        15         0         0         0        15         0
        15         0        15         0        15         0        15         0
        15         0         0         0        15         0         0        15
         0        15         0        15         0        15         0         0
        15        15        15        15         0        15         0         0
         0        15         0        15         0        15         0        15
         0         0        15        15        15        15         0        15
         0         0         0        15         0         0         0        15
         0         0         0        15         0         0         0        15
         0         0         0        15         0         0         0        15
         0         0        15         0         0        15         0         0
         0        15         0         0         0        15         0         0
         0        15         0         0         0        15         0         0
         0        15         0         0         0        15         0         0
         0        15         0         0         0         0        15         0
         0         0        15         0         0         0        15         0
         0         0        15         0         0         0        15         0
         0         0        15         0         0         0        15         0
         0         0        15         0         0         0        15         0
         0         0        15         0         0         0        15         0
         0         0        15         0         0         0        15         0
         0         0        15         0         0         0         0        15
         0         0         0         0        15         0         0         0
        15         0         0         0        15         0        15         0
        15         0        15         0        15         0        15         0
         0         0        15         0         0        15         0        15
         0        15         0        15         0         0        15        15
        15        15         0        15         0         0         0        15
         0        15         0        15         0        15         0         0
        15        15        15        15         0        15         0         0
         0        15         0         0         0        15         0         0
         0        15         0         0         0        15         0         0
         0        15         0         0         0        15         0         0
        15         0         0        15         0         0         0        15
         0         0         0        15         0         0         0        15
         0         0         0        15         0         0         0        15
         0         0         0        15         0         0         0        15
         0         0         0         0        15         0         0         0
        15         0         0         0        15         0         0         0
        15         0         0         0        15         0         0         0
        15         0         0         0        15         0         0         0
        15         0         0         0        15         0         0         0
        15         0         0         0        15         0         0         0
        15         0         0         0        15         0         0         0
        15         0         0         0         0        15         0         0
         0         0        15         0         0         0        15         0
         0         0        15         0        15         0        15         0
        15         0        15         0        15         0         0         0
        15         0         0        15         0        15         0        15
         0        15         0         0        15        15        15        15
         0        15         0         0         0        15         0        15
         0        15         0        15         0         0        15        15
        15        15         0        15         0         0         0        15
         0         0         0        15         0         0         0        15
         0         0         0        15         0         0         0        15
         0         0         0        15         0         0        15         0
         0        15         0         0         0        15         0         0
         0        15         0         0         0        15         0         0
         0        15         0         0         0        15         0         0
         0        15         0         0         0        15         0         0
         0         0        15         0         0         0        15         0
         0         0        15         0         0         0        15         0
         0         0        15         0         0         0        15         0
         0         0        15         0         0         0        15         0
         0         0        15         0         0         0        15         0
         0         0        15         0         0         0        15         0
         0         0        15         0         0         0        15         0
         0         0         0        15         0         0         0         0
        15         0         0         0        15         0         0         0
        15         0        15         0        15         0        15         0
        15         0        15         0         0         0        15         0
         0        15         0        15         0        15         0        15
         0         0        15        15        15        15         0        15
         0         0         0        15         0        15         0        15
         0        15         0         0        15        15        15        15
         0        15         0         0         0        15         0         0
         0        15         0         0         0        15         0         0
         0        15         0         0         0        15         0         0
         0        15         0         0        15         0         0        15
         0         0         0        15         0         0         0        15
         0         0         0        15         0         0         0        15
         0         0         0        15         0         0         0        15
         0         0         0        15         0         0         0         0
        15         0         0         0        15         0         0         0
        15         0         0         0        15         0         0         0
        15         0         0         0        15         0         0         0
        15         0         0         0        15         0         0         0
        15         0         0         0        15         0         0         0
        15         0         0         0        15         0         0         0
        15         0         0         0        15         0         0         0
         0        15         0         0         0         0        15         0
         0         0        15         0         0         0        15         0
        15         0        15         0        15         0        15         0
        15         0         0         0        15         0         0        15
         0        15         0        15         0        15         0         0
        15        15        15        15         0        15         0         0
         0        15         0        15         0        15         0        15
         0         0        15        15        15        15         0        15
         0         0         0        15         0         0         0        15
         0         0         0        15         0         0         0        15
         0         0         0        15         0         0         0        15
         0         0        15         0         0        15         0         0
         0        15         0         0         0        15         0         0
         0        15         0         0         0        15         0         0
         0        15         0         0         0        15         0         0
         0        15         0         0         0         0        15         0
         0         0        15         0         0         0        15         0
         0         0        15         0         0         0        15         0
         0         0        15         0         0         0        15         0
         0         0        15         0         0         0        15         0
         0         0        15         0         0         0        15         0
         0         0        15         0         0         0        15         0
         0         0        15         0         0         0         0        15
         0         0         0         0        15         0         0         0
        15         0         0         0        15         0        15         0
        15         0        15         0        15         0        15         0
         0         0        15         0         0        15         0        15
         0        15         0        15         0         0        15        15
        15        15         0        15         0         0         0        15
         0        15         0        15         0        15         0         0
        15        15        15        15         0        15         0         0
         0        15         0         0         0        15         0         0
         0        15         0         0         0        15         0         0
         0        15         0         0         0        15         0         0
        15         0         0        15         0         0         0        15
         0         0         0        15         0         0         0        15
         0         0         0        15         0         0         0        15
         0         0         0        15         0         0         0        15
         0         0         0         0        15         0         0         0
        15         0         0         0        15         0         0         0
        15         0         0         0        15         0         0         0
        15         0         0         0        15         0         0         0
        15         0         0         0        15         0         0         0
        15         0         0         0        15         0         0         0
        15         0         0         0        15         0         0         0
        15         0         0         0         0        15         0         0
         0         0        15         0         0         0        15         0
         0         0        15         0        15         0        15         0
        15         0        15         0        15         0         0         0
        15         0         0        15         0        15         0        15
         0        15         0         0        15        15        15        15
         0        15         0         0         0        15         0        15
         0        15         0        15         0         0        15        15
        15        15         0        15         0         0         0        15
         0         0         0        15         0         0         0        15
         0         0         0        15         0         0         0        15
         0         0         0        15         0         0        15         0
         0        15         0         0         0        15         0         0
         0        15         0         0         0        15         0         0
         0        15         0         0         0        15         0         0
         0        15         0         0         0        15         0         0
         0         0        15         0         0         0        15         0
         0         0        15         0         0         0        15         0
         0         0        15         0         0         0        15         0
         0         0        15         0         0         0        15         0
         0         0        15         0         0         0        15         0
         0         0        15         0         0         0        15         0
         0         0        15         0         0         0        15         0
         0         0         0        15         0         0         0         0
        15         0         0         0        15         0         0         0
        15         0        15         0        15         0        15         0
        15         0        15         0         0         0        15         0
         0        15         0        15         0        15         0        15
         0         0        15        15        15        15         0        15
         0         0         0        15         0        15         0        15
         0        15         0         0        15        15        15        15
         0        15         0         0         0        15         0         0
         0        15         0         0         0        15         0         0
         0        15         0         0         0        15         0         0
         0        15         0         0        15         0         0        15
         0         0         0        15         0         0         0        15
         0         0         0        15         0         0         0        15
         0         0         0        15         0         0         0        15
         0         0         0        15         0         0         0         0
        15         0         0         0        15         0         0         0
        15         0         0         0        15         0         0         0
        15         0         0         0        15         0         0         0
        15         0         0         0        15         0         0         0
        15         0         0         0        15         0         0         0
        15         0         0         0        15         0         0         0
        15         0         0         0        15         0         0         0
         0        15         0         0         0         0        15         0
         0         0        15         0         0         0        15         0
        15         0        15         0        15         0        15         0
        15         0         0         0        15         0         0        15
         0        15         0        15         0        15         0         0
        15        15        15        15         0        15         0         0
         0        15         0        15         0        15         0        15
         0         0        15        15        15        15         0        15
         0         0         0        15         0         0         0        15
         0         0         0        15         0         0         0        15
         0         0         0        15         0         0         0        15
         0         0        15         0         0        15         0         0
         0        15         0         0         0        15         0         0
         0        15         0         0         0        15         0         0
         0        15         0         0         0        15         0         0
         0        15         0         0         0         0        15         0
         0         0        15         0         0         0        15         0
         0         0        15         0         0         0        15         0
         0         0        15         0         0         0        15         0
         0         0        15         0         0         0        15         0
         0         0        15         0         0         0        15         0
         0         0        15         0         0         0        15         0
         0         0        15         0         0         0         0        15
         0         0         0         0        15         0         0         0
        15         0         0         0        15         0        15         0
        15         0        15         0        15         0        15         0
         0         0        15         0         0        15         0        15
         0        15         0        15         0         0        15        15
        15        15         0        15         0         0         0        15
         0        15         0        15         0        15         0         0
        15        15        15        15         0        15         0         0
         0        15         0         0         0        15         0         0
         0        15         0         0         0        15         0         0
         0        15         0         0         0        15         0         0
        15         0         0        15         0         0         0        15
         0         0         0        15         0         0         0        15
         0         0         0        15         0         0         0        15
         0         0         0        15         0         0         0        15
         0         0         0         0        15         0         0         0
        15         0         0         0        15         0         0         0
        15         0         0         0        15         0         0         0
        15         0         0         0        15         0         0         0
        15         0         0         0        15         0         0         0
        15         0         0         0        15         0         0         0
        15         0         0         0        15         0         0         0
        15         0         0         0         0        15         0         0
         0         0        15         0         0         0        15         0
         0         0        15         0        15         0        15         0
        15         0        15         0        15         0         0         0
        15         0         0        15         0        15         0        15
         0        15         0         0        15        15        15        15
         0        15         0         0         0        15         0        15
         0        15         0        15         0         0        15        15
        15        15         0        15         0         0         0        15
         0         0         0        15         0         0         0        15
         0         0         0        15         0         0         0        15
         0         0         0        15         0         0        15         0
         0        15         0         0         0        15         0         0
         0        15         0         0         0        15         0         0
         0        15         0         0         0        15         0         0
         0        15         0         0         0        15         0         0
         0         0        15         0         0         0        15         0
         0         0        15         0         0         0        15         0
         0         0        15         0         0         0        15         0
         0         0        15         0         0         0        15         0
         0         0        15         0         0         0        15         0
         0         0        15         0         0         0        15         0
         0         0        15         0         0         0        15         0
         0         0         0        15         0         0         0         0
        15         0         0         0        15         0         0         0
        15         0        15         0        15         0        15         0
        15         0        15         0         0         0        15         0
         0        15         0        15         0        15         0        15
         0         0        15        15        15        15         0        15
         0         0         0        15         0        15         0        15
         0        15         0         0        15        15        15        15
         0        15         0         0         0        15         0         0
         0        15         0         0         0        15         0         0
         0        15         0         0         0        15         0         0
         0        15         0         0        15         0         0        15
         0         0         0        15         0         0         0        15
         0         0         0        15         0         0         0        15
         0         0         0        15         0         0         0        15
         0         0         0        15         0         0         0         0
        15         0         0         0        15         0         0         0
        15         0         0         0        15         0         0         0
        15         0         0         0        15         0         0         0
        15         0         0         0        15         0         0         0
        15         0         0         0        15         0         0         0
        15         0         0         0        15         0         0         0
        15         0         0         0        15         0         0         0
         0        15         0         0         0         0        15         0
         0         0        15         0         0         0        15         0
        15         0        15         0        15         0        15         0
        15         0         0         0        15         0         0        15
         0        15         0        15         0        15         0         0
        15        15        15        15         0        15         0         0
         0        15         0        15         0        15         0        15
         0         0        15        15        15        15         0        15
         0         0         0        15         0         0         0        15
         0         0         0        15         0         0         0        15
         0         0         0        15         0         0         0        15
         0         0        15         0         0        15         0         0
         0        15         0         0         0        15         0         0
         0        15         0         0         0        15         0         0
         0        15         0         0         0        15         0         0
         0        15         0         0         0         0        15         0
         0         0        15         0         0         0        15         0
         0         0        15         0         0         0        15         0
         0         0        15         0         0         0        15         0
         0         0        15         0         0         0        15         0
         0         0        15         0         0         0        15         0
         0         0        15         0         0         0        15         0
         0         0        15         0         0         0         0        15
         0         0         0         0        15         0         0         0
        15         0         0         0        15         0        15         0
        15         0        15         0        15         0        15         0
         0         0        15         0         0        15         0        15
         0        15         0        15         0         0        15        15
        15        15         0        15         0         0         0        15
         0        15         0        15         0        15         0         0
        15        15        15        15         0        15         0         0
         0        15         0         0         0        15         0         0
         0        15         0         0         0        15         0         0
         0        15         0         0         0        15         0         0
        15         0         0        15         0         0         0        15
         0         0         0        15         0         0         0        15
         0         0         0        15         0         0         0        15
         0         0         0        15         0         0         0        15
         0         0         0         0        15         0         0         0
        15         0         0         0        15         0         0         0
        15         0         0         0        15         0         0         0
        15         0         0         0        15         0         0         0
        15         0         0         0        15         0         0         0
        15         0         0         0        15         0         0         0
        15         0         0         0        15         0         0         0
        15         0         0         0         0        15         0         0
         0         0        15         0         0         0        15         0
         0         0        15         0        15         0        15         0
        15         0        15         0        15         0         0         0
        15         0         0        15         0        15         0        15
         0        15         0         0        15        15        15        15
         0        15         0         0         0        15         0        15
         0        15         0        15         0         0        15        15
        15        15         0        15         0         0         0        15
         0         0         0        15         0         0         0        15
         0         0         0        15         0         0         0        15
         0         0         0        15         0         0        15         0
         0        15         0         0         0        15         0         0
         0        15         0         0         0        15         0         0
         0        15         0         0         0        15         0         0
         0        15         0         0         0        15         0         0
         0         0        15         0         0         0        15         0
         0         0        15         0         0         0        15         0
         0         0        15         0         0         0        15         0
         0         0        15         0         0         0        15         0
         0         0        15         0         0         0        15         0
         0         0        15         0         0         0        15         0
         0         0        15         0         0         0        15         0
         0         0         0        15         0         0         0         0
        15         0         0         0        15         0         0         0
        15         0        15         0        15         0        15         0
        15         0        15         0         0         0        15         0
         0        15         0        15         0        15         0        15
         0         0        15        15        15        15         0        15
         0         0         0        15         0        15         0        15
         0        15         0         0        15        15        15        15
         0        15         0         0         0        15         0         0
         0        15         0         0         0        15         0         0
         0        15         0         0         0        15         0         0
         0        15         0         0        15         0         0        15
         0         0         0        15         0         0         0        15
         0         0         0        15         0         0         0        15
         0         0         0        15         0         0         0        15
         0         0         0        15         0         0         0         0
        15         0         0         0        15         0         0         0
        15         0         0         0        15         0         0         0
        15         0         0         0        15         0         0         0
        15         0         0         0        15         0         0         0
        15         0         0         0        15         0         0         0
        15         0         0         0        15         0         0         0
        15         0         0         0        15         0         0         0
         0        15         0         0         0         0        15         0
         0         0        15         0         0         0        15         0
        15         0        15         0        15         0        15         0
        15         0         0         0        15         0         0        15
         0        15         0        15         0        15         0         0
        15        15        15        15         0        15         0         0
         0        15         0        15         0        15         0        15
         0         0        15        15        15        15         0        15
         0         0         0        15         0         0         0        15
         0         0         0        15         0         0         0        15
         0         0         0        15         0         0         0        15
         0         0        15         0         0        15         0         0
         0        15         0         0         0        15         0         0
         0        15         0         0         0        15         0         0
         0        15         0         0         0        15         0         0
         0        15         0         0         0         0        15         0
         0         0        15         0         0         0        15         0
         0         0        15         0         0         0        15         0
         0         0        15         0         0         0        15         0
         0         0        15         0         0         0        15         0
         0         0        15         0         0         0        15         0
         0         0        15         0         0         0        15         0
         0         0        15         0         0         0         0        15
         0         0         0         0        15         0         0         0
        15         0         0         0        15         0        15         0
        15         0        15         0        15         0        15         0
         0         0        15         0         0        15         0        15
         0        15         0        15         0         0        15        15
        15        15         0        15         0         0         0        15
         0        15         0        15         0        15         0         0
        15        15        15        15         0        15         0         0
         0        15         0         0         0        15         0         0
         0        15         0         0         0        15         0         0
         0        15         0         0         0        15         0         0
        15         0         0        15         0         0         0        15
         0         0         0        15         0         0         0        15
         0         0         0        15         0         0         0        15
         0         0         0        15         0         0         0        15
         0         0         0         0        15         0         0         0
        15         0         0         0        15         0         0         0
        15         0         0         0        15         0         0         0
        15         0         0         0        15         0         0         0
        15         0         0         0        15         0         0         0
        15         0         0         0        15         0         0         0
        15         0         0         0        15         0         0         0
        15         0         0         0         0        15         0         0
         0         0        15         0         0         0        15         0
         0         0        15         0        15         0        15         0
        15         0        15         0        15         0         0         0
        15         0         0        15         0        15         0        15
         0        15         0         0        15        15        15        15
         0        15         0         0         0        15         0        15
         0        15         0        15         0         0        15        15
        15        15         0        15         0         0         0        15
         0         0         0        15         0         0         0        15
         0         0         0        15         0         0         0        15
         0         0         0        15         0         0        15         0
         0        15         0         0         0        15         0         0
         0        15         0         0         0        15         0         0
         0        15         0         0         0        15         0         0
         0        15         0         0         0        15         0         0
         0         0        15         0         0         0        15         0
         0         0        15         0         0         0        15         0
         0         0        15         0         0         0        15         0
         0         0        15         0         0         0        15         0
         0         0        15         0         0         0        15         0
         0         0        15         0         0         0        15         0
         0         0        15         0         0         0        15         0
         0         0         0        15         0         0         0         0
        15         0         0         0        15         0         0         0
        15         0        15         0        15         0        15         0
        15         0        15         0         0         0        15         0
         0        15         0        15         0        15         0        15
         0         0        15        15        15        15         0        15
         0         0         0        15         0        15         0        15
         0        15         0         0        15        15        15        15
         0        15         0         0         0        15         0         0
         0        15         0         0         0        15         0         0
         0        15         0         0         0        15         0         0
         0        15         0         0        15         0         0        15
         0         0         0        15         0         0         0        15
         0         0         0        15         0         0         0        15
         0         0         0        15         0         0         0        15
         0         0         0        15         0         0         0         0
        15         0         0         0        15         0         0         0
        15         0         0         0        15         0         0         0
        15         0         0         0        15         0         0         0
        15         0         0         0        15         0         0         0
        15         0         0         0        15         0         0         0
        15         0         0         0        15         0         0         0
        15         0         0         0        15         0         0         0
         0        15         0         0         0         0        15         0
         0         0        15         0         0         0        15         0
        15         0        15         0        15         0        15         0
        15         0         0         0        15         0         0        15
         0        15         0        15         0        15         0         0
        15        15        15        15         0        15         0         0
         0        15         0        15         0        15         0        15
         0         0        15        15        15        15         0        15
         0         0         0        15         0         0         0        15
         0         0         0        15         0         0         0        15
         0         0         0        15         0         0         0        15
         0         0        15         0         0        15         0         0
         0        15         0         0         0        15         0         0
         0        15         0         0         0        15         0         0
         0        15         0         0         0        15         0         0
         0        15         0         0         0         0        15         0
         0         0        15         0         0         0        15         0
         0         0        15         0         0         0        15         0
         0         0        15         0         0         0        15         0
         0         0        15         0         0         0        15         0
         0         0        15         0         0         0        15         0
         0         0        15         0         0         0        15         0
         0         0        15         0         0         0         0        15
         0         0         0         0        15         0         0         0
        15         0         0         0        15         0        15         0
        15         0        15         0        15         0        15         0
         0         0        15         0         0        15         0        15
         0        15         0        15         0         0        15        15
        15        15         0        15         0         0         0        15
         0        15         0        15         0        15         0         0
        15        15        15        15         0        15         0         0
         0        15         0         0         0        15         0         0
         0        15         0         0         0        15         0         0
         0        15         0         0         0        15         0         0
        15         0         0        15         0         0         0        15
         0         0         0        15         0         0         0        15
         0         0         0        15         0         0         0        15
         0         0         0        15         0         0         0        15
         0         0         0         0        15         0         0         0
        15         0         0         0        15         0         0         0
        15         0         0         0        15         0         0         0
        15         0         0         0        15         0         0         0
        15         0         0         0        15         0         0         0
        15         0         0         0        15         0         0         0
        15         0         0         0        15         0         0         0
        15         0         0         0         0        15         0         0
         0         0        15         0         0         0        15         0
         0         0        15         0        15         0        15         0
        15         0        15         0        15         0         0         0
        15         0         0        15         0        15         0        15
         0        15         0         0        15        15        15        15
         0        15         0         0         0        15         0        15
         0        15         0        15         0         0        15        15
        15        15         0        15         0         0         0        15
         0         0         0        15         0         0         0        15
         0         0         0        15         0         0         0        15
         0         0         0        15         0         0        15         0
         0        15         0         0         0        15         0         0
         0        15         0         0         0        15         0         0
         0        15         0         0         0        15         0         0
         0        15         0         0         0        15         0         0
         0         0        15         0         0         0        15         0
         0         0        15         0         0         0        15         0
         0         0        15         0         0         0        15         0
         0         0        15         0         0         0        15         0
         0         0        15         0         0         0        15         0
         0         0        15         0         0         0        15         0
         0         0        15         0         0         0        15         0
         0         0         0        15         0         0         0         0
        15         0         0         0        15         0         0         0
        15         0        15         0        15         0        15         0
        15         0        15         0         0         0        15         0
         0        15         0        15         0        15         0        15
         0         0        15        15        15        15         0        15
         0         0         0        15         0        15         0        15
         0        15         0         0        15        15        15        15
         0        15         0         0         0        15         0         0
         0        15         0         0         0        15         0         0
         0        15         0         0         0        15         0         0
         0        15         0         0        15         0         0        15
         0         0         0        15         0         0         0        15
         0         0         0        15         0         0         0        15
         0         0         0        15         0         0         0        15
         0         0         0        15         0         0         0         0
        15         0         0         0        15         0         0         0
        15         0         0         0        15         0         0         0
        15         0         0         0        15         0         0         0
        15         0         0         0        15         0         0         0
        15         0         0         0        15         0         0         0
        15         0         0         0        15         0         0         0
        15         0         0         0        15         0         0         0
         0        15         0         0         0         0        15         0
         0         0        15         0         0         0        15         0
        15         0        15         0        15         0        15         0
        15         0         0         0        15         0         0        15
         0        15         0        15         0        15         0         0
        15        15        15        15         0        15         0         0
         0        15         0        15         0        15         0        15
         0         0        15        15        15        15         0        15
         0         0         0        15         0         0         0        15
         0         0         0        15         0         0         0        15
         0         0         0        15         0         0         0        15
         0         0        15         0         0        15         0         0
         0        15         0         0         0        15         0         0
         0        15         0         0         0        15         0         0
         0        15         0         0         0        15         0         0
         0        15         0         0         0         0        15         0
         0         0        15         0         0         0        15         0
         0         0        15         0         0         0        15         0
         0         0        15         0         0         0        15         0
         0         0        15         0         0         0        15         0
         0         0        15         0         0         0        15         0
         0         0        15         0         0         0        15         0
         0         0        15         0         0         0         0        15
         0         0         0         0        15         0         0         0
        15         0         0         0        15         0        15         0
        15         0        15         0        15         0        15         0
         0         0        15         0         0        15         0        15
         0        15         0        15         0         0        15        15
        15        15         0        15         0         0         0        15
         0        15         0        15         0        15         0         0
        15        15        15        15         0        15         0         0
         0        15         0         0         0        15         0         0
         0        15         0         0         0        15         0         0
         0        15         0         0         0        15         0         0
        15         0         0        15         0         0         0        15
         0         0         0        15         0         0         0        15
         0         0         0        15         0         0         0        15
         0         0         0        15         0         0         0        15
         0         0         0         0        15         0         0         0
        15         0         0         0        15         0         0         0
        15         0         0         0        15         0         0         0
        15         0         0         0        15         0         0         0
        15         0         0         0        15         0         0         0
        15         0         0         0        15         0         0         0
        15         0         0         0        15         0         0         0
        15         0         0         0         0        15         0         0
         0         0        15         0         0         0        15         0
         0         0        15         0        15         0        15         0
        15         0        15         0        15         0         0         0
        15         0         0        15         0        15         0        15
         0        15         0         0        15        15        15        15
         0        15         0         0         0        15         0        15
         0        15         0        15         0         0        15        15
        15        15         0        15         0         0         0        15
         0         0         0        15         0         0         0        15
         0         0         0        15         0         0         0        15
         0         0         0        15         0         0        15         0
         0        15         0         0         0        15         0         0
         0        15         0         0         0        15         0         0
         0        15         0         0         0        15         0         0
         0        15         0         0         0        15         0         0
         0         0        15         0         0         0        15         0
         0         0        15         0         0         0        15         0
         0         0        15         0         0         0        15         0
         0         0        15         0         0         0        15         0
         0         0        15         0         0         0        15         0
         0         0        15         0         0         0        15         0
         0         0        15         0         0         0        15         0
         0         0         0        15         0         0         0         0
        15         0         0         0        15         0         0         0
        15         0        15         0        15         0        15         0
        15         0        15         0         0         0        15         0
         0        15         0        15         0        15         0        15
         0         0        15        15        15        15         0        15
         0         0         0        15         0        15         0        15
         0        15         0         0        15        15        15        15
         0        15         0         0         0        15         0         0
         0        15         0         0         0        15         0         0
         0        15         0         0         0        15         0         0
         0        15         0         0        15         0         0        15
         0         0         0        15         0         0         0        15
         0         0         0        15         0         0         0        15
         0         0         0        15         0         0         0        15
         0         0         0        15         0         0         0         0
        15         0         0         0        15         0         0         0
        15         0         0         0        15         0         0         0
        15         0         0         0        15         0         0         0
        15         0         0         0        15         0         0         0
        15         0         0         0        15         0         0         0
        15         0         0         0        15         0         0         0
        15         0         0         0        15         0         0         0
         0        15         0         0         0         0        15         0
         0         0        15         0         0         0        15         0
        15         0        15         0        15         0        15         0
        15         0         0         0        15         0         0        15
         0        15         0        15         0        15         0         0
        15        15        15        15         0        15         0         0
         0        15         0        15         0        15         0        15
         0         0        15        15        15        15         0        15
         0         0         0        15         0         0         0        15
         0         0         0        15         0         0         0        15
         0         0         0        15         0         0         0        15
         0         0        15         0         0        15         0         0
         0        15         0         0         0        15         0         0
         0        15         0         0         0        15         0         0
         0        15         0         0         0        15         0         0
         0        15         0         0         0         0        15         0
         0         0        15         0         0         0        15         0
         0         0        15         0         0         0        15         0
         0         0        15         0         0         0        15         0
         0         0        15         0         0         0        15         0
         0         0        15         0         0         0        15         0
         0         0        15         0         0         0        15         0
         0         0        15         0         0         0         0        15
         0         0         0         0        15         0         0         0
        15         0         0         0        15         0        15         0
        15         0        15         0        15         0        15         0
         0         0        15         0         0        15         0        15
         0        15         0        15         0         0        15        15
        15        15         0        15         0         0         0        15
         0        15         0        15         0        15         0         0
        15        15        15        15         0        15         0         0
         0        15         0         0         0        15         0         0
         0        15         0         0         0        15         0         0
         0        15         0         0         0        15         0         0
        15         0         0        15         0         0         0        15
         0         0         0        15         0         0         0        15
         0         0         0        15         0         0         0        15
         0         0         0        15         0         0         0        15
         0         0         0         0        15         0         0         0
        15         0         0         0        15         0         0         0
        15         0         0         0        15         0         0         0
        15         0         0         0        15         0         0         0
        15         0         0         0        15         0         0         0
        15         0         0         0        15         0         0         0
        15         0         0         0        15         0         0         0
        15         0         0         0         0        15         0         0
         0         0        15         0         0         0        15         0
         0         0        15         0        15         0        15         0
        15         0        15         0        15         0         0         0
        15         0         0        15         0        15         0        15
         0        15         0         0        15        15        15        15
         0        15         0         0         0        15         0        15
         0        15         0        15         0         0        15        15
        15        15         0        15         0         0         0        15
         0         0         0        15         0         0         0        15
         0         0         0        15         0         0         0        15
         0         0         0        15         0         0        15         0
         0        15         0         0         0        15         0         0
         0        15         0         0         0        15         0         0
         0        15         0         0         0        15         0         0
         0        15         0         0         0        15         0         0
         0         0        15         0         0         0        15         0
         0         0        15         0         0         0        15         0
         0         0        15         0         0         0        15         0
         0         0        15         0         0         0        15         0
         0         0        15         0         0         0        15         0
         0         0        15         0         0         0        15         0
         0         0        15         0         0         0        15         0
         0         0         0        15         0         0         0         0
        15         0         0         0        15         0         0         0
        15         0        15         0        15         0        15         0
        15         0        15         0         0         0        15         0
         0        15         0        15         0        15         0        15
         0         0        15        15        15        15         0        15
         0         0         0        15         0        15         0        15
         0        15         0         0        15        15        15        15
         0        15         0         0         0        15         0         0
         0        15         0         0         0        15         0         0
         0        15         0         0         0        15         0         0
         0        15         0         0        15         0         0        15
         0         0         0        15         0         0         0        15
         0         0         0        15         0         0         0        15
         0         0         0        15         0         0         0        15
         0         0         0        15         0         0         0         0
        15         0         0         0        15         0         0         0
        15         0         0         0        15         0         0         0
        15         0         0         0        15         0         0         0
        15         0         0         0        15         0         0         0
        15         0         0         0        15         0         0         0
        15         0         0         0        15         0         0         0
        15         0         0         0        15         0         0         0
         0        15         0         0         0         0        15         0
         0         0        15         0         0         0        15         0
        15         0        15         0        15         0        15         0
        15         0         0         0        15         0         0        15
         0        15         0        15         0        15         0         0
        15        15        15        15         0        15         0         0
         0        15         0        15         0        15         0        15
         0         0        15        15        15        15         0        15
         0         0         0        15         0         0         0        15
         0         0         0        15         0         0         0        15
         0         0         0        15         0         0         0        15
         0         0        15         0         0        15         0         0
         0        15         0         0         0        15         0         0
         0        15         0         0         0        15         0         0
         0        15         0         0         0        15         0         0
         0        15         0         0         0         0        15         0
         0         0        15         0         0         0        15         0
         0         0        15         0         0         0        15         0
         0         0        15         0         0         0        15         0
         0         0        15         0         0         0        15         0
         0         0        15         0         0         0        15         0
         0         0        15         0         0         0        15         0
         0         0        15         0         0         0         0        15
         0         0         0         0        15         0         0         0
        15         0         0         0        15         0        15         0
        15         0        15         0        15         0        15         0
         0         0        15         0         0        15         0        15
         0        15         0        15         0         0        15        15
        15        15         0        15         0         0         0        15
         0        15         0        15         0        15         0         0
        15        15        15        15         0        15         0         0
         0        15         0         0         0        15         0         0
         0        15         0         0         0        15         0         0
         0        15         0         0         0        15         0         0
        15         0         0        15         0         0         0        15
         0         0         0        15         0         0         0        15
         0         0         0        15         0         0         0        15
         0         0         0        15         0         0         0        15
         0         0         0         0        15         0         0         0
        15         0         0         0        15         0         0         0
        15         0         0         0        15         0         0         0
        15         0         0         0        15         0         0         0
        15         0         0         0        15         0         0         0
        15         0         0         0        15         0         0         0
        15         0         0         0        15         0         0         0
        15         0         0         0         0        15         0         0
         0         0        15         0         0         0        15         0
         0         0        15         0        15         0        15         0
        15         0        15         0        15         0         0         0
        15         0         0        15         0        15         0        15
         0        15         0         0        15        15        15        15
         0        15         0         0         0        15         0        15
         0        15         0        15         0         0        15        15
        15        15         0        15         0         0         0        15
         0         0         0        15         0         0         0        15
         0         0         0        15         0         0         0        15
         0         0         0        15         0         0        15         0
         0        15         0         0         0        15         0         0
         0        15         0         0         0        15         0         0
         0        15         0         0         0        15         0         0
         0        15         0         0         0        15         0         0
         0         0        15         0         0         0        15         0
         0         0        15         0         0         0        15         0
         0         0        15         0         0         0        15         0
         0         0        15         0         0         0        15         0
         0         0        15         0         0         0        15         0
         0         0        15         0         0         0        15         0
         0         0        15         0         0         0        15         0
         0         0         0        15         0         0         0         0
        15         0         0         0        15         0         0         0
        15         0        15         0        15         0        15         0
        15         0        15         0         0         0        15         0
         0        15         0        15         0        15         0        15
         0         0        15        15        15        15         0        15
         0         0         0        15         0        15         0        15
         0        15         0         0        15        15        15        15
         0        15         0         0         0        15         0         0
         0        15         0         0         0        15         0         0
         0        15         0         0         0        15         0         0
         0        15         0         0        15         0         0        15
         0         0         0        15         0         0         0        15
         0         0         0        15         0         0         0        15
         0         0         0        15         0         0         0        15
         0         0         0        15         0         0         0         0
        15         0         0         0        15         0         0         0
        15         0         0         0        15         0         0         0
        15         0         0         0        15         0         0         0
        15         0         0         0        15         0         0         0
        15         0         0         0        15         0         0         0
        15         0         0         0        15         0         0         0
        15         0         0         0        15         0         0         0
         0        15         0         0         0         0        15         0
         0         0        15         0         0         0        15         0
        15         0        15         0        15         0        15         0
        15         0         0         0        15         0         0        15
         0        15         0        15         0        15         0         0
        15        15        15        15         0        15         0         0
         0        15         0        15         0        15         0        15
         0         0        15        15        15        15         0        15
         0         0         0        15         0         0         0        15
         0         0         0        15         0         0         0        15
         0         0         0        15         0         0         0        15
         0         0        15         0         0        15         0         0
         0        15         0         0         0        15         0         0
         0        15         0         0         0        15         0         0
         0        15         0         0         0        15         0         0
         0        15         0         0         0         0        15         0
         0         0        15         0         0         0        15         0
         0         0        15         0         0         0        15         0
         0         0        15         0         0         0        15         0
         0         0        15         0         0         0        15         0
         0         0        15         0         0         0        15         0
         0         0        15         0         0         0        15         0
         0         0        15         0         0         0         0        15
         0         0         0         0        15         0         0         0
        15         0         0         0        15         0        15         0
        15         0        15         0        15         0        15         0
         0         0        15         0         0        15         0        15
         0        15         0        15         0         0        15        15
        15        15         0        15         0         0         0        15
         0        15         0        15         0        15         0         0
        15        15        15        15         0        15         0         0
         0        15         0         0         0        15         0         0
         0        15         0         0         0        15         0         0
         0        15         0         0         0        15         0         0
        15         0         0        15         0         0         0        15
         0         0         0        15         0         0         0        15
         0         0         0        15         0         0         0        15
         0         0         0        15         0         0         0        15
         0         0         0         0        15         0         0         0
        15         0         0         0        15         0         0         0
        15         0         0         0        15         0         0         0
        15         0         0         0        15         0         0         0
        15         0         0         0        15         0         0         0
        15         0         0         0        15         0         0         0
        15         0         0         0        15         0         0         0
        15         0         0         0         0        15         0         0
         0         0        15         0         0         0        15         0
         0         0        15         0        15         0        15         0
        15         0        15         0        15         0         0         0
        15         0         0        15         0        15         0        15
         0        15         0         0        15        15        15        15
         0        15         0         0         0        15         0        15
         0        15         0        15         0         0        15        15
        15        15         0        15         0         0         0        15
         0         0         0        15         0         0         0        15
         0         0         0        15         0         0         0        15
         0         0         0        15         0         0        15         0
         0        15         0         0         0        15         0         0
         0        15         0         0         0        15         0         0
         0        15         0         0         0        15         0         0
         0        15         0         0         0        15         0         0
         0         0        15         0         0         0        15         0
         0         0        15         0         0         0        15         0
         0         0        15         0         0         0        15         0
         0         0        15         0         0         0        15         0
         0         0        15         0         0         0        15         0
         0         0        15         0         0         0        15         0
         0         0        15         0         0         0        15         0
         0         0         0        15         0         0         0         0
        15         0         0         0        15         0         0         0
        15         0        15         0        15         0        15         0
        15         0        15         0         0         0        15         0
         0        15         0        15         0        15         0        15
         0         0        15        15        15        15         0        15
         0         0         0        15         0        15         0        15
         0        15         0         0        15        15        15        15
         0        15         0         0         0        15         0         0
         0        15         0         0         0        15         0         0
         0        15         0         0         0        15         0         0
         0        15         0         0        15         0         0        15
         0         0         0        15         0         0         0        15
         0         0         0        15         0         0         0        15
         0         0         0        15         0         0         0        15
         0         0         0        15         0         0         0         0
        15         0         0         0        15         0         0         0
        15         0         0         0        15         0         0         0
        15         0         0         0        15         0         0         0
        15         0         0         0        15         0         0         0
        15         0         0         0        15         0         0         0
        15         0         0         0        15         0         0         0
        15         0         0         0        15         0         0         0
         0        15         0         0         0         0        15         0
         0         0        15         0         0         0        15         0
        15         0        15         0        15         0        15         0
        15         0         0         0        15         0         0        15
         0        15         0        15         0        15         0         0
        15        15        15        15         0        15         0         0
         0        15         0        15         0        15         0        15
         0         0        15        15        15        15         0        15
         0         0         0        15         0         0         0        15
         0         0         0        15         0         0         0        15
         0         0         0        15         0         0         0        15
         0         0        15         0         0        15         0         0
         0        15         0         0         0        15         0         0
         0        15         0         0         0        15         0         0
         0        15         0         0         0        15         0         0
         0        15         0         0         0         0        15         0
         0         0        15         0         0         0        15         0
         0         0        15         0         0         0        15         0
         0         0        15         0         0         0        15         0
         0         0        15         0         0         0        15         0
         0         0        15         0         0         0        15         0
         0         0        15         0         0         0        15         0
         0         0        15         0         0         0         0        15
         0         0         0         0        15         0         0         0
        15         0         0         0        15         0        15         0
        15         0        15         0        15         0        15         0
         0         0        15         0         0        15         0        15
         0        15         0        15         0         0        15        15
        15        15         0        15         0         0         0        15
         0        15         0        15         0        15         0         0
        15        15        15        15         0        15         0         0
         0        15         0         0         0        15         0         0
         0        15         0         0         0        15         0         0
         0        15         0         0         0        15         0         0
        15         0         0        15         0         0         0        15
         0         0         0        15         0         0         0        15
         0         0         0        15         0         0         0        15
         0         0         0        15         0         0         0        15
         0         0         0         0        15         0         0         0
        15         0         0         0        15         0         0         0
        15         0         0         0        15         0         0         0
        15         0         0         0        15         0         0         0
        15         0         0         0        15         0         0         0
        15         0         0         0        15         0         0         0
        15         0         0         0        15         0         0         0
        15         0         0         0         0        15         0         0
         0         0        15         0         0         0        15         0
         0         0        15         0        15         0        15         0
        15         0        15         0        15         0         0         0
        15         0         0        15         0        15         0        15
         0        15         0         0        15        15        15        15
         0        15         0         0         0        15         0        15
         0        15         0        15         0         0        15        15
        15        15         0        15         0         0         0        15
         0         0         0        15         0         0         0        15
         0         0         0        15         0         0         0        15
         0         0         0        15         0         0        15         0
         0        15         0         0         0        15         0         0
         0        15         0         0         0        15         0         0
         0        15         0         0         0        15         0         0
         0        15         0         0         0        15         0         0
         0         0        15         0         0         0        15         0
         0         0        15         0         0         0        15         0
         0         0        15         0         0         0        15         0
         0         0        15         0         0         0        15         0
         0         0        15         0         0         0        15         0
         0         0        15         0         0         0        15         0
         0         0        15         0         0         0        15         0
         0         0         0        15         0         0         0         0
        15         0         0         0        15         0         0         0
        15         0        15         0        15         0        15         0
        15         0        15         0         0         0        15         0
         0        15         0        15         0        15         0        15
         0         0        15        15        15        15         0        15
         0         0         0        15         0        15         0        15
         0        15         0         0        15        15        15        15
         0        15         0         0         0        15         0         0
         0        15         0         0         0        15         0         0
         0        15         0         0         0        15         0         0
         0        15         0         0        15         0         0        15
         0         0         0        15         0         0         0        15
         0         0         0        15         0         0         0        15
         0         0         0        15         0         0         0        15
         0         0         0        15         0         0         0         0
        15         0         0         0        15         0         0         0
        15         0         0         0        15         0         0         0
        15         0         0         0        15         0         0         0
        15         0         0         0        15         0         0         0
        15         0         0         0        15         0         0         0
        15         0         0         0        15         0         0         0
        15         0         0         0        15         0         0         0
         0        15         0         0         0         0        15         0
         0         0        15         0         0         0        15         0
        15         0        15         0        15         0        15         0
        15         0         0         0        15         0         0        15
         0        15         0        15         0        15         0         0
        15        15        15        15         0        15         0         0
         0        15         0        15         0        15         0        15
         0         0        15        15        15        15         0        15
         0         0         0        15         0         0         0        15
         0         0         0        15         0         0         0        15
         0         0         0        15         0         0         0        15
         0         0        15         0         0        15         0         0
         0        15         0         0         0        15         0         0
         0        15         0         0         0        15         0         0
         0        15         0         0         0        15         0         0
         0        15         0         0         0         0        15         0
         0         0        15         0         0         0        15         0
         0         0        15         0         0         0        15         0
         0         0        15         0         0         0        15         0
         0         0        15         0         0         0        15         0
         0         0        15         0         0         0        15         0
         0         0        15         0         0         0        15         0
         0         0        15         0         0         0         0        15
         0         0         0         0        15         0         0         0
        15         0         0         0        15         0        15         0
        15         0        15         0        15         0        15         0
         0         0        15         0         0        15         0        15
         0        15         0        15         0         0        15        15
        15        15         0        15         0         0         0        15
         0        15         0        15         0        15         0         0
        15        15        15        15         0        15         0         0
         0        15         0         0         0        15         0         0
         0        15         0         0         0        15         0         0
         0        15         0         0         0        15         0         0
        15         0         0        15         0         0         0        15
         0         0         0        15         0         0         0        15
         0         0         0        15         0         0         0        15
         0         0         0        15         0         0         0        15
         0         0         0         0        15         0         0         0
        15         0         0         0        15         0         0         0
        15         0         0         0        15         0         0         0
        15         0         0         0        15         0         0         0
        15         0         0         0        15         0         0         0
        15         0         0         0        15         0         0         0
        15         0         0         0        15         0         0         0
        15         0         0         0         0        15         0         0
         0         0        15         0         0         0        15         0
         0         0        15         0        15         0        15         0
        15         0        15         0        15         0         0         0
        15         0         0        15         0        15         0        15
         0        15         0         0        15        15        15        15
         0        15         0         0         0        15         0        15
         0        15         0        15         0         0        15        15
        15        15         0        15         0         0         0        15
         0         0         0        15         0         0         0        15
         0         0         0        15         0         0         0        15
         0         0         0        15         0         0        15         0
         0        15         0         0         0        15         0         0
         0        15         0         0         0        15         0         0
         0        15         0         0         0        15         0         0
         0        15         0         0         0        15         0         0
         0         0        15         0         0         0        15         0
         0         0        15         0         0         0        15         0
         0         0        15         0         0         0        15         0
         0         0        15         0         0         0        15         0
         0         0        15         0         0         0        15         0
         0         0        15         0         0         0        15         0
         0         0        15         0         0         0        15         0
         0         0         0        15         0         0         0         0
        15         0         0         0        15         0         0         0
        15         0        15         0        15         0        15         0
        15         0        15         0         0         0        15         0
         0        15         0        15         0        15         0        15
         0         0        15        15        15        15         0        15
         0         0         0        15         0        15         0        15
         0        15         0         0        15        15        15        15
         0        15         0         0         0        15         0         0
         0        15         0         0         0        15         0         0
         0        15         0         0         0        15         0         0
         0        15         0         0        15         0         0        15
         0         0         0        15         0         0         0        15
         0         0         0        15         0         0         0        15
         0         0         0        15         0         0         0        15
         0         0         0        15         0         0         0         0
        15         0         0         0        15         0         0         0
        15         0         0         0        15         0         0         0
        15         0         0         0        15         0         0         0
        15         0         0         0        15         0         0         0
        15         0         0         0        15         0         0         0
        15         0         0         0        15         0         0         0
        15         0         0         0        15         0         0         0
         0        15         0         0         0         0        15         0
         0         0        15         0         0         0        15         0
        15         0        15         0        15         0        15         0
        15         0         0         0        15         0         0        15
         0        15         0        15         0        15         0         0
        15        15        15        15         0        15         0         0
         0        15         0        15         0        15         0        15
         0         0        15        15        15        15         0        15
         0         0         0        15         0         0         0        15
         0         0         0        15         0         0         0        15
         0         0         0        15         0         0         0        15
         0         0        15         0         0        15         0         0
         0        15         0         0         0        15         0         0
         0        15         0         0         0        15         0         0
         0        15         0         0         0        15         0         0
         0        15         0         0         0         0        15         0
         0         0        15         0         0         0        15         0
         0         0        15         0         0         0        15         0
         0         0        15         0         0         0        15         0
         0         0        15         0         0         0        15         0
         0         0        15         0         0         0        15         0
         0         0        15         0         0         0        15         0
         0         0        15         0         0         0         0        15
         0         0         0         0        15         0         0         0
        15         0         0         0        15         0        15         0
        15         0        15         0        15         0        15         0
         0         0        15         0         0        15         0        15
         0        15         0        15         0         0        15        15
        15        15         0        15         0         0         0        15
         0        15         0        15         0        15         0         0
        15        15        15        15         0        15         0         0
         0        15         0         0         0        15         0         0
         0        15         0         0         0        15         0         0
         0        15         0         0         0        15         0         0
        15         0         0        15         0         0         0        15
         0         0         0        15         0         0         0        15
         0         0         0        15         0         0         0        15
         0         0         0        15         0         0         0        15
         0         0         0         0        15         0         0         0
        15         0         0         0        15         0         0         0
        15         0         0         0        15         0         0         0
        15         0         0         0        15         0         0         0
        15         0         0         0        15         0         0         0
        15         0         0         0        15         0         0         0
        15         0         0         0        15         0         0         0
        15         0         0         0         0        15         0         0
         0         0        15         0         0         0        15         0
         0         0        15         0        15         0        15         0
        15         0        15         0        15         0         0         0
        15         0         0        15         0        15         0        15
         0        15         0         0        15        15        15        15
         0        15         0         0         0        15         0        15
         0        15         0        15         0         0        15        15
        15        15         0        15         0         0         0        15
         0         0         0        15         0         0         0        15
         0         0         0        15         0         0         0        15
         0         0         0        15         0         0        15         0
         0        15         0         0         0        15         0         0
         0        15         0         0         0        15         0         0
         0        15         0         0         0        15         0         0
         0        15         0         0         0        15         0         0
         0         0        15         0         0         0        15         0
         0         0        15         0         0         0        15         0
         0         0        15         0         0         0        15         0
         0         0        15         0         0         0        15         0
         0         0        15         0         0         0        15         0
         0         0        15         0         0         0        15         0
         0         0        15         0         0         0        15         0
         0         0         0        15         0         0         0         0
        15         0         0         0        15         0         0         0
        15         0        15         0        15         0        15         0
        15         0        15         0         0         0        15         0
         0        15         0        15         0        15         0        15
         0         0        15        15        15        15         0        15
         0         0         0        15         0        15         0        15
         0        15         0         0        15        15        15        15
         0        15         0         0         0        15         0         0
         0        15         0         0         0        15         0         0
         0        15         0         0         0        15         0         0
         0        15         0         0        15         0         0        15
         0         0         0        15         0         0         0        15
         0         0         0        15         0         0         0        15
         0         0         0        15         0         0         0        15
         0         0         0        15         0         0         0         0
        15         0         0         0        15         0         0         0
        15         0         0         0        15         0         0         0
        15         0         0         0        15         0         0         0
        15         0         0         0        15         0         0         0
        15         0         0         0        15         0         0         0
        15         0         0         0        15         0         0         0
        15         0         0         0        15         0         0         0
         0        15        15         0         0         0        15        15
         0         0         0        15        15         0         0         0
        15        15         0         0         0        15        15         0
         0         0        15        15         0         0         0        15
        15         0         0         0        15        15         0         0
         0        15        15         0         0         0        15        15
         0         0         0        15        15         0         0         0
        15        15         0         0         0        15        15         0
         0         0        15        15         0         0         0        15
        15         0         0         0        15        15         0         0
         0        15        15         0         0         0        15        15
         0         0         0        15        15         0         0         0
        15        15         0         0         0        15        15         0
         0         0        15        15         0         0         0        15
        15         0         0         0        15        15         0         0
         0        15        15         0         0         0        15        15
         0         0         0        15        15         0         0         0
        15        15         0         0         0        15        15         0
         0         0        15        15         0         0         0        15
        15         0         0         0        15        15         0         0
         0        15        15         0         0         0        15        15
         0         0         0        15        15         0         0         0
        15        15         0         0         0        15        15         0
         0         0        15        15         0         0         0        15
        15         0         0         0        15        15         0         0
         0        15        15         0         0         0        15        15
         0         0         0        15        15         0         0         0
        15        15         0         0         0        15        15         0
         0         0        15        15         0         0         0        15
        15         0         0         0        15        15         0         0
         0        15        15         0         0         0        15        15
         0         0         0        15        15         0         0         0
        15        15         0         0         0        15        15         0
         0         0        15        15         0         0         0        15
        15         0         0         0        15        15         0         0
         0        15        15         0         0         0        15        15
         0         0         0        15        15         0         0         0
        15        15         0         0         0        15        15         0
         0         0        15        15         0         0         0        15
        15         0         0         0        15        15         0         0
         0        15        15         0         0         0        15        15
         0         0         0        15        15         0         0         0
        15        15         0         0         0        15        15         0
         0         0        15        15         0         0         0        15
        15         0         0         0        15        15         0         0
         0        15        15         0         0         0        15        15
         0         0         0        15        15         0         0         0
        15        15         0         0         0        15        15         0
         0         0        15        15         0         0         0        15
        15         0         0         0        15        15         0         0
         0        15        15         0         0         0        15        15
         0         0         0        15        15         0         0         0
        15        15         0         0         0        15        15         0
         0         0        15        15         0         0         0        15
        15         0         0         0        15        15         0         0
         0        15        15         0         0         0        15        15
         0         0         0        15        15         0         0         0
        15        15         0         0         0        15        15         0
         0         0        15        15         0         0         0        15
        15         0         0         0        15        15         0         0
         0        15        15         0         0         0        15        15
         0         0         0        15        15         0         0         0
        15        15         0         0         0        15        15         0
         0         0        15        15         0         0         0        15
        15         0         0         0        15        15         0         0
         0        15        15         0         0         0        15        15
         0         0         0        15        15         0         0         0
        15        15         0         0         0        15        15         0
         0         0        15        15         0         0         0        15
        15         0         0         0        15        15         0         0
         0        15        15         0         0         0        15        15
         0         0         0        15        15         0         0         0
        15        15         0         0         0        15        15         0
         0         0        15        15         0         0         0        15
        15         0         0         0        15        15         0         0
         0        15        15         0         0         0        15        15
         0         0         0        15        15         0         0         0
        15        15         0         0         0        15        15         0
         0         0        15        15         0         0         0        15
        15         0         0         0        15        15         0         0
         0        15        15         0         0         0        15        15
         0         0         0        15        15         0         0         0
        15        15         0         0         0        15        15         0
         0         0        15        15         0         0         0        15
        15         0         0         0        15        15         0         0
         0        15        15         0         0         0        15        15
         0         0         0        15        15         0         0         0
        15        15         0         0         0        15        15         0
         0         0        15        15         0         0         0        15
        15         0         0         0        15        15         0         0
         0        15        15         0         0         0        15        15
         0         0         0        15        15         0         0         0
        15        15         0         0         0        15        15         0
         0         0        15        15         0         0         0        15
        15         0         0         0        15        15         0         0
         0        15        15         0         0         0        15        15
         0         0         0        15        15         0         0         0
        15        15         0         0         0        15        15         0
         0         0        15        15         0         0         0        15
        15         0         0         0        15        15         0         0
         0        15        15         0         0         0        15        15
         0         0         0        15        15         0         0         0
        15        15         0         0         0        15        15         0
         0         0        15        15         0         0         0        15
        15         0         0         0        15        15         0         0
         0        15        15         0         0         0        15        15
         0         0         0        15        15         0         0         0
        15        15         0         0         0        15        15         0
         0         0        15        15         0         0         0        15
        15         0         0         0        15        15         0         0
         0        15        15         0         0         0        15        15
         0         0         0        15        15         0         0         0
        15        15         0         0         0        15        15         0
         0         0        15        15         0         0         0        15
        15         0         0         0        15        15         0         0
         0        15        15         0         0         0        15        15
         0         0         0        15        15         0         0         0
        15        15         0         0         0        15        15         0
         0         0        15        15         0         0         0        15
        15         0         0         0        15        15         0         0
         0        15        15         0         0         0        15        15
         0         0         0        15        15         0         0         0
        15        15         0         0         0        15        15         0
         0         0        15        15         0         0         0        15
        15         0         0         0        15        15         0         0
         0        15        15         0         0         0        15        15
         0         0         0        15        15         0         0         0
        15        15         0         0         0        15        15         0
         0         0        15        15         0         0         0        15
        15         0         0         0        15        15         0         0
         0        15        15         0         0         0        15        15
         0         0         0        15        15         0         0         0
        15        15         0         0         0        15        15         0
         0         0        15        15         0         0         0        15
        15         0         0         0        15        15         0         0
         0        15        15         0         0         0        15        15
         0         0         0        15        15         0         0         0
        15        15         0         0         0        15        15         0
         0         0        15        15         0         0         0        15
        15         0         0         0        15        15         0         0
         0        15        15         0         0         0        15        15
         0         0         0        15        15         0         0         0
        15        15         0         0         0        15        15         0
         0         0        15        15         0         0         0        15
        15         0         0         0        15        15         0         0
         0        15        15         0         0         0        15        15
         0         0         0        15        15         0         0         0
        15        15         0         0         0        15        15         0
         0         0        15        15         0         0         0        15
        15         0         0         0        15        15         0         0
         0        15        15         0         0         0        15        15
         0         0         0        15        15         0         0         0
        15        15         0         0         0        15        15         0
         0         0        15        15         0         0         0        15
        15         0         0         0        15        15         0         0
         0        15        15         0         0         0        15        15
         0         0         0        15        15         0         0         0
        15        15         0         0         0        15        15         0
         0         0        15        15         0         0         0        15
        15         0         0         0        15        15         0         0
         0        15        15         0         0         0        15        15
         0         0         0        15        15         0         0         0
        15        15         0         0         0        15        15         0
         0         0        15        15         0         0         0        15
        15         0         0         0        15        15         0         0
         0        15        15         0         0         0        15        15
         0         0         0        15        15         0         0         0
        15        15         0         0         0        15        15         0
         0         0        15        15         0         0         0        15
        15         0         0         0        15        15         0         0
         0        15        15         0         0         0        15        15
         0         0         0        15        15         0         0         0
        15        15         0         0         0        15        15         0
         0         0        15        15         0         0         0        15
        15         0         0         0        15        15         0         0
         0        15        15         0         0         0        15        15
         0         0         0        15        15         0         0         0
        15        15         0         0         0        15        15         0
         0         0        15        15         0         0         0        15
        15         0         0         0        15        15         0         0
         0        15        15         0         0         0        15        15
         0         0         0        15        15         0         0         0
        15        15         0         0         0        15        15         0
         0         0        15        15         0         0         0        15
        15         0         0         0        15        15         0         0
         0        15        15         0         0         0        15        15
         0         0         0        15        15         0         0         0
        15        15         0         0         0        15        15         0
         0         0        15        15         0         0         0        15
        15         0         0         0        15        15         0         0
         0        15        15         0         0         0        15        15
         0         0         0        15        15         0         0         0
        15        15         0         0         0        15        15         0
         0         0        15        15         0         0         0        15
        15         0         0         0        15        15         0         0
         0        15        15         0         0         0        15        15
         0         0         0        15        15         0         0         0
        15        15         0         0         0        15        15         0
         0         0        15        15         0         0         0        15
        15         0         0         0        15        15         0         0
         0        15        15         0         0         0        15        15
         0         0         0        15        15         0         0         0
        15        15         0         0         0        15        15         0
         0         0        15        15         0         0         0        15
        15         0         0         0        15        15         0         0
         0        15        15         0         0         0        15        15
         0         0         0        15        15         0         0         0
        15        15         0         0         0        15        15         0
         0         0        15        15         0         0         0        15
        15         0         0         0        15        15         0         0
         0        15        15         0         0         0        15        15
         0         0         0        15        15         0         0         0
        15        15         0         0         0        15        15         0
         0         0        15        15         0         0         0        15
        15         0         0         0        15        15         0         0
         0        15        15         0         0         0        15        15
         0         0         0        15        15         0         0         0
        15        15         0         0         0        15        15         0
         0         0        15        15         0         0         0        15
        15         0         0         0        15        15         0         0
         0        15        15         0         0         0        15        15
         0         0         0        15        15         0         0         0
        15        15         0         0         0        15        15         0
         0         0        15        15         0         0         0        15
        15         0         0         0        15        15         0         0
         0        15        15         0         0         0        15        15
         0         0         0        15        15         0         0         0
        15        15         0         0         0        15        15         0
         0         0        15        15         0         0         0        15
        15         0         0         0        15        15         0         0
         0        15        15         0         0         0        15        15
         0         0         0        15        15         0         0         0
        15        15         0         0         0        15        15         0
         0         0        15        15         0         0         0        15
        15         0         0         0        15        15         0         0
         0        15        15         0         0         0        15        15
         0         0         0        15        15         0         0         0
        15        15         0         0         0        15        15         0
         0         0        15        15         0         0         0        15
        15         0         0         0        15        15         0         0
         0        15        15         0         0         0        15        15
         0         0         0        15        15         0         0         0
        15        15         0         0         0        15        15         0
         0         0        15        15         0         0         0        15
        15         0         0         0        15        15         0         0
         0        15        15         0         0         0        15        15
         0         0         0        15        15         0         0         0
        15        15         0         0         0        15        15         0
         0         0        15        15         0         0         0        15
        15         0         0         0        15        15         0         0
         0        15        15         0         0         0        15        15
         0         0         0        15        15         0         0         0
        15        15         0         0         0        15        15         0
         0         0        15        15         0         0         0        15
        15         0         0         0        15        15         0         0
         0        15        15         0         0         0        15        15
         0         0         0        15        15         0         0         0
        15        15         0         0         0        15        15         0
         0         0        15        15         0         0         0        15
        15         0         0         0        15        15         0         0
         0        15        15         0         0         0        15        15
         0         0         0        15        15         0         0         0
        15        15         0         0         0        15        15         0
         0         0        15        15         0         0         0        15
        15         0         0         0        15        15         0         0
         0        15        15         0         0         0        15        15
         0         0         0        15        15         0         0         0
        15        15         0         0         0        15        15         0
         0         0        15        15         0         0         0        15
        15         0         0         0        15        15         0         0
         0        15        15         0         0         0        15        15
         0         0         0        15        15         0         0         0
        15        15         0         0         0        15        15         0
         0         0        15        15         0         0         0        15
        15         0         0         0        15        15         0         0
         0        15        15         0         0         0        15        15
         0         0         0        15        15         0         0         0
        15        15         0         0         0        15        15         0
         0         0        15        15         0         0         0        15
        15         0         0         0        15        15         0         0
         0        15        15         0         0         0        15        15
         0         0         0        15        15         0         0         0
        15        15         0         0         0        15        15         0
         0         0        15        15         0         0         0        15
        15         0         0         0        15        15         0         0
         0        15        15         0         0         0        15        15
         0         0         0        15        15         0         0         0
        15        15         0         0         0        15        15         0
         0         0        15        15         0         0         0        15
        15         0         0         0        15        15         0         0
         0        15        15         0         0         0        15        15
         0         0         0        15        15         0         0         0
        15        15         0         0         0        15        15         0
         0         0        15        15         0         0         0        15
        15         0         0         0        15        15         0         0
         0        15        15         0         0         0        15        15
         0         0         0        15        15         0         0         0
        15        15         0         0         0        15        15         0
         0         0        15        15         0         0         0        15
        15         0         0         0        15        15         0         0
         0        15        15         0         0         0        15        15
         0         0         0        15        15         0         0         0
        15        15         0         0         0        15        15         0
         0         0        15        15         0         0         0        15
        15         0         0         0        15        15         0         0
         0        15        15         0         0         0        15        15
         0         0         0        15        15         0         0         0
        15        15         0         0         0        15        15         0
         0         0        15        15         0         0         0        15
        15         0         0         0        15        15         0         0
         0        15        15         0         0         0        15        15
         0         0         0        15        15         0         0         0
        15        15         0         0         0        15        15         0
         0         0        15        15         0         0         0        15
        15         0         0         0        15        15         0         0
         0        15        15         0         0         0        15        15
         0         0         0        15        15         0         0         0
        15        15         0         0         0        15        15         0
         0         0        15        15         0         0         0        15
        15         0         0         0        15        15         0         0
         0        15        15         0         0         0        15        15
         0         0         0        15        15         0         0         0
        15        15         0         0         0        15        15         0
         0         0        15        15         0         0         0        15
        15         0         0         0        15        15         0         0
         0        15        15         0         0         0        15        15
         0         0         0        15        15         0         0         0
        15        15         0         0         0        15        15         0
         0         0        15        15         0         0         0        15
        15         0         0         0        15        15         0         0
         0        15        15         0         0         0        15        15
         0         0         0        15        15         0         0         0
        15        15         0         0         0        15        15         0
         0         0        15        15         0         0         0        15
        15         0         0         0        15        15         0         0
         0        15        15         0         0         0        15        15
         0         0         0        15        15         0         0         0
        15        15         0         0         0        15        15         0
         0         0        15        15         0         0         0        15
        15         0         0         0        15        15         0         0
         0        15        15         0         0         0        15        15
         0         0         0        15        15         0         0         0
        15        15         0         0         0        15        15         0
         0         0        15        15         0         0         0        15
        15         0         0         0        15        15         0         0
         0        15        15         0         0         0        15        15
         0         0         0        15        15         0         0         0
        15        15         0         0         0        15        15         0
         0         0        15        15         0         0         0        15
        15         0         0         0        15        15         0         0
         0        15        15         0         0         0        15        15
         0         0         0        15        15         0         0         0
        15        15         0         0         0        15        15         0
         0         0        15        15         0         0         0        15
        15         0         0         0        15        15         0         0
         0        15        15         0         0         0        15        15
         0         0         0        15        15         0         0         0
        15        15         0         0         0        15        15         0
         0         0        15        15         0         0         0        15
        15         0         0         0        15        15         0         0
         0        15        15         0         0         0        15        15
         0         0         0        15        15         0         0         0
        15        15         0         0         0        15        15         0
         0         0        15        15         0         0         0        15
        15         0         0         0        15        15         0         0
         0        15        15         0         0         0        15        15
         0         0         0        15        15         0         0         0
        15        15         0         0         0        15        15         0
         0         0        15        15         0         0         0        15
        15         0         0         0        15        15         0         0
         0        15        15         0         0         0        15        15
         0         0         0        15        15         0         0         0
        15        15         0         0         0        15        15         0
         0         0        15        15         0         0         0        15
        15         0         0         0        15        15         0         0
         0        15        15         0         0         0        15        15
         0         0         0        15        15         0         0         0
        15        15         0         0         0        15        15         0
         0         0        15        15         0         0         0        15
        15         0         0         0        15        15         0         0
         0        15        15         0         0         0        15        15
         0         0         0        15        15         0         0         0
        15        15         0         0         0        15        15         0
         0         0        15        15         0         0         0        15
        15         0         0         0        15        15         0         0
         0        15        15         0         0         0        15        15
         0         0         0        15        15         0         0         0
        15        15         0         0         0        15        15         0
         0         0        15        15         0         0         0        15
        15         0         0         0        15        15         0         0
         0        15        15         0         0         0        15        15
         0         0         0        15        15         0         0         0
        15        15         0         0         0        15        15         0
         0         0        15        15         0         0         0        15
        15         0         0         0        15        15         0         0
         0        15        15         0         0         0        15        15
         0         0         0        15        15         0         0         0
        15        15         0         0         0        15        15         0
         0         0        15        15         0         0         0        15
        15         0         0         0        15        15         0         0
         0        15        15         0         0         0        15        15
         0         0         0        15        15         0         0         0
        15        15         0         0         0        15        15         0
         0         0        15        15         0         0         0        15
        15         0         0         0        15        15         0         0
         0        15        15         0         0         0        15        15
         0         0         0        15        15         0         0         0
        15        15         0         0         0        15        15         0
         0         0        15        15         0         0         0        15
        15         0         0         0        15        15         0         0
         0        15        15         0         0         0        15        15
         0         0         0        15        15         0         0         0
        15        15         0         0         0        15        15         0
         0         0        15        15         0         0         0        15
        15         0         0         0        15        15         0         0
         0        15        15         0         0         0        15        15
         0         0         0        15        15         0         0         0
        15        15         0         0         0        15        15         0
         0         0        15        15         0         0         0        15
        15         0         0         0        15        15         0         0
         0        15        15         0         0         0        15        15
         0         0         0        15        15         0         0         0
        15        15         0         0         0        15        15         0
         0         0        15        15         0         0         0        15
        15         0         0         0        15        15         0         0
         0        15        15         0         0         0        15        15
         0         0         0        15        15         0         0         0
        15        15         0         0         0        15        15         0
         0         0        15        15         0         0         0        15
        15         0         0         0        15        15         0         0
         0        15        15         0         0         0        15        15
         0         0         0        15        15         0         0         0
        15        15         0         0         0        15        15         0
         0         0        15        15         0         0         0        15
        15         0         0         0        15        15         0         0
         0        15        15         0         0         0        15        15
         0         0         0        15        15         0         0         0
        15        15         0         0         0        15        15         0
         0         0        15        15         0         0         0        15
        15         0         0         0        15        15         0         0
         0        15        15         0         0         0        15        15
         0         0         0        15        15         0         0         0
        15        15         0         0         0        15        15         0
         0         0        15        15         0         0         0        15
        15         0         0         0        15        15         0         0
         0        15        15         0         0         0        15        15
         0         0         0        15        15         0         0         0
        15        15         0         0         0        15        15         0
         0         0        15        15         0         0         0        15
        15         0         0         0        15        15         0         0
         0        15        15         0         0         0        15        15
         0         0         0        15        15         0         0         0
        15        15         0         0         0        15        15         0
         0         0        15        15         0         0         0        15
        15         0         0         0        15        15         0         0
         0        15        15         0         0         0        15        15
         0         0         0        15        15         0         0         0
        15        15         0         0         0        15        15         0
         0         0        15        15         0         0         0        15
        15         0         0         0        15        15         0         0
         0        15        15         0         0         0        15        15
         0         0         0        15        15         0         0         0
        15        15         0         0         0        15        15         0
         0         0        15        15         0         0         0        15
        15         0         0         0        15        15         0         0
         0        15        15         0         0         0        15        15
         0         0         0        15        15         0         0         0
        15        15         0         0         0        15        15         0
         0         0        15        15         0         0         0        15
        15         0         0         0        15        15         0         0
         0        15        15         0         0         0        15        15
         0         0         0        15        15         0         0         0
        15        15         0         0         0        15        15         0
         0         0        15        15         0         0         0        15
        15         0         0         0        15        15         0         0
         0        15        15         0         0         0        15        15
         0         0         0        15        15         0         0         0
        15        15         0         0         0        15        15         0
         0         0        15        15         0         0         0        15
        15         0         0         0        15        15         0         0
         0        15        15         0         0         0        15        15
         0         0         0        15        15         0         0         0
        15        15         0         0         0        15        15         0
         0         0        15        15         0         0         0        15
        15         0         0         0        15        15         0         0
         0        15        15         0         0         0        15        15
         0         0         0        15        15         0         0         0
        15        15         0         0         0        15        15         0
         0         0        15        15         0         0         0        15
        15         0         0         0        15        15         0         0
         0        15        15         0         0         0        15        15
         0         0         0        15        15         0         0         0
        15        15         0         0         0        15        15         0
         0         0        15        15         0         0         0        15
        15         0         0         0        15        15         0         0
         0        15        15         0         0         0        15        15
         0         0         0        15        15         0         0         0
        15        15         0         0         0        15        15         0
         0         0        15        15         0         0         0        15
        15         0         0         0        15        15         0         0
         0        15        15         0         0         0        15        15
         0         0         0        15        15         0         0         0
        15        15         0         0         0        15        15         0
         0         0        15        15         0         0         0        15
        15         0         0         0        15        15         0         0
         0        15        15         0         0         0        15        15
         0         0         0        15        15         0         0         0
        15        15         0         0         0        15        15         0
         0         0        15        15         0         0         0        15
        15         0         0         0        15        15         0         0
         0        15        15         0         0         0        15        15
         0         0         0        15        15         0         0         0
        15        15         0         0         0        15        15         0
         0         0        15        15         0         0         0        15
        15         0         0         0        15        15         0         0
         0        15        15         0         0         0        15        15
         0         0         0        15        15         0         0         0
        15        15         0         0         0        15        15         0
         0         0        15        15         0         0         0        15
        15         0         0         0        15        15         0         0
         0        15        15         0         0         0        15        15
         0         0         0        15        15         0         0         0
        15        15         0         0         0        15        15         0
         0         0        15        15         0         0         0        15
        15         0         0         0        15        15         0         0
         0        15        15         0         0         0        15        15
         0         0         0        15        15         0         0         0
        15        15         0         0         0        15        15         0
         0         0        15        15         0         0         0        15
        15         0         0         0        15        15         0         0
         0        15        15         0         0         0        15        15
         0         0         0        15        15         0         0         0
        15        15         0         0         0        15        15         0
         0         0        15        15         0         0         0        15
        15         0         0         0        15        15         0         0
         0        15        15         0         0         0        15        15
         0         0         0        15        15         0         0         0
        15        15         0         0         0        15        15         0
         0         0        15        15         0         0         0        15
        15         0         0         0        15        15         0         0
         0        15        15         0         0         0        15        15
         0         0         0        15        15         0         0         0
        15        15         0         0         0        15        15         0
         0         0        15        15         0         0         0        15
        15         0         0         0        15        15         0         0
         0        15        15         0         0         0        15        15
         0         0         0        15        15         0         0         0
        15        15         0         0         0        15        15         0
         0         0        15        15         0         0         0        15
        15         0         0         0        15        15         0         0
         0        15        15         0         0         0        15        15
         0         0         0        15        15         0         0         0
        15        15         0         0         0        15        15         0
         0         0        15        15         0         0         0        15
        15         0         0         0        15        15         0         0
         0        15        15         0         0         0        15        15
         0         0         0        15        15         0         0         0
        15        15         0         0         0        15        15         0
         0         0        15        15         0         0         0        15
        15         0         0         0        15        15         0         0
         0        15        15         0         0         0        15        15
         0         0         0        15        15         0         0         0
        15        15         0         0         0        15        15         0
         0         0        15        15         0         0         0        15
        15         0         0         0        15        15         0         0
         0        15        15         0         0         0        15        15
         0         0         0        15        15         0         0         0
        15        15         0         0         0        15        15         0
         0         0        15        15         0         0         0        15
        15         0         0         0        15        15         0         0
         0        15        15         0         0         0        15        15
         0         0         0        15        15         0         0         0
        15        15         0         0         0        15        15         0
         0         0        15        15         0         0         0        15
        15         0         0         0        15        15         0         0
         0        15        15         0         0         0        15        15
         0         0         0        15        15         0         0         0
        15        15         0         0         0        15        15         0
         0         0        15        15         0         0         0        15
        15         0         0         0        15        15         0         0
         0        15        15         0         0         0        15        15
         0         0         0        15        15         0         0         0
        15        15         0         0         0        15        15         0
         0         0        15        15         0         0         0        15
        15         0         0         0        15        15         0         0
         0        15        15         0         0         0        15        15
         0         0         0        15        15         0         0         0
        15        15         0         0         0        15        15         0
         0         0        15        15         0         0         0        15
        15         0         0         0        15        15         0         0
         0        15        15         0         0         0        15        15
         0         0         0        15        15         0         0         0
        15        15         0         0         0        15        15         0
         0         0        15        15         0         0         0        15
        15         0         0         0        15        15         0         0
         0        15        15         0         0         0        15        15
         0         0         0        15        15         0         0         0
        15        15         0         0         0        15        15         0
         0         0        15        15         0         0         0        15
        15         0         0         0        15        15         0         0
         0        15        15         0         0         0        15        15
         0         0         0        15        15         0         0         0
        15        15         0         0         0        15        15         0
         0         0        15        15         0         0         0        15
        15         0         0         0        15        15         0         0
         0        15        15         0         0         0        15        15
         0         0         0        15        15         0         0         0
        15        15         0         0         0        15        15         0
         0         0        15        15         0         0         0        15
        15         0         0         0        15        15         0         0
         0        15        15         0         0         0        15        15
         0         0         0        15        15         0         0         0
        15        15         0         0         0        15        15         0
         0         0        15        15         0         0         0        15
        15         0         0         0        15        15         0         0
         0        15        15         0         0         0        15        15
         0         0         0        15        15         0         0         0
        15        15         0         0         0        15        15         0
         0         0        15        15         0         0         0        15
        15         0         0         0        15        15         0         0
         0        15        15         0         0         0        15        15
         0         0         0        15        15         0         0         0
        15        15         0         0         0        15        15         0
         0         0        15        15         0         0         0        15
        15         0         0         0        15        15         0         0
         0        15        15         0         0         0        15        15
         0         0         0        15        15         0         0         0
        15        15         0         0         0        15        15         0
         0         0        15        15         0         0         0        15
        15         0         0         0        15        15         0         0
         0        15        15         0         0         0        15        15
         0         0         0        15        15         0         0         0
        15        15         0         0         0        15        15         0
         0         0        15        15         0         0         0        15
        15         0         0         0        15        15         0         0
         0        15        15         0         0         0        15        15
         0         0         0        15        15         0         0         0
        15        15         0         0         0        15        15         0
         0         0        15        15         0         0         0        15
        15         0         0         0        15        15         0         0
         0        15        15         0         0         0        15        15
         0         0         0        15        15         0         0         0
        15        15         0         0         0        15        15         0
         0         0        15        15         0         0         0        15
        15         0         0         0        15        15         0         0
         0        15        15         0         0         0        15        15
         0         0         0        15        15         0         0         0
        15        15         0         0         0        15        15         0
         0         0        15        15         0         0         0        15
        15         0         0         0        15        15         0         0
         0        15        15         0         0         0        15        15
         0         0         0        15        15         0         0         0
        15        15         0         0         0        15        15         0
         0         0        15        15         0         0         0        15
        15         0         0         0        15        15         0         0
         0        15        15         0         0         0        15        15
         0         0         0        15        15         0         0         0
        15        15         0         0         0        15        15         0
         0         0        15        15         0         0         0        15
        15         0         0         0        15        15         0         0
         0        15        15         0         0         0        15        15
         0         0         0        15        15         0         0         0
        15        15         0         0         0        15        15         0
         0         0        15        15         0         0         0        15
        15         0         0         0        15        15         0         0
         0        15        15         0         0         0        15        15
         0         0         0        15        15         0         0         0
        15        15         0         0         0        15        15         0
         0         0        15        15         0         0         0        15
        15         0         0         0        15        15         0         0
         0        15        15         0         0         0        15        15
         0         0         0        15        15         0         0         0
        15        15         0         0         0        15        15         0
         0         0        15        15         0         0         0        15
        15         0         0         0        15        15         0         0
         0        15        15         0         0         0        15        15
         0         0         0        15        15         0         0         0
        15        15         0         0         0        15        15         0
         0         0        15        15         0         0         0        15
        15         0         0         0        15        15         0         0
         0        15        15         0         0         0        15        15
         0         0         0        15        15         0         0         0
        15        15         0         0         0        15        15         0
         0         0        15        15         0         0         0        15
        15         0         0         0        15        15         0         0
         0        15        15         0         0         0        15        15
         0         0         0        15        15         0         0         0
        15        15         0         0         0        15        15         0
         0         0        15        15         0         0         0        15
        15         0         0         0        15        15         0         0
         0        15        15         0         0         0        15        15
         0         0         0        15        15         0         0         0
        15        15         0         0         0        15        15         0
         0         0        15        15         0         0         0        15
        15         0         0         0        15        15         0         0
         0        15        15         0         0         0        15        15
         0         0         0        15        15         0         0         0
        15        15         0         0         0        15        15         0
         0         0        15        15         0         0         0        15
        15         0         0         0        15        15         0         0
         0        15        15         0         0         0        15        15
         0         0         0        15        15         0         0         0
        15        15         0         0         0        15        15         0
         0         0        15        15         0         0         0        15
        15         0         0         0        15        15         0         0
         0        15        15         0         0         0        15        15
         0         0         0        15        15         0         0         0
        15        15         0         0         0        15        15         0
         0         0        15        15         0         0         0        15
        15         0         0         0        15        15         0         0
         0        15        15         0         0         0        15        15
         0         0         0        15        15         0         0         0
        15        15         0         0         0        15        15         0
         0         0        15        15         0         0         0        15
        15         0         0         0        15        15         0         0
         0        15        15         0         0         0        15        15
         0         0         0        15        15         0         0         0
        15        15         0         0         0        15        15         0
         0         0        15        15         0         0         0        15
        15         0         0         0        15        15         0         0
         0        15        15         0         0         0        15        15
         0         0         0        15        15         0         0         0
        15        15         0         0         0        15        15         0
         0         0        15        15         0         0         0        15
        15         0         0         0        15        15         0         0
         0        15        15         0         0         0        15        15
         0         0         0        15        15         0         0         0
        15        15         0         0         0        15        15         0
         0         0        15        15         0         0         0        15
        15         0         0         0        15        15         0         0
         0        15        15         0         0         0        15        15
         0         0         0        15        15         0         0         0
        15        15         0         0         0        15        15         0
         0         0        15        15         0         0         0        15
        15         0         0         0        15        15         0         0
         0        15        15         0         0         0        15        15
         0         0         0        15        15         0         0         0
        15        15         0         0         0        15        15         0
         0         0        15        15         0         0         0        15
        15         0         0         0        15        15         0         0
         0        15        15         0         0         0        15        15
         0         0         0        15        15         0         0         0
        15        15         0         0         0        15        15         0
         0         0        15        15         0         0         0        15
        15         0         0         0        15        15         0         0
         0        15        15         0         0         0        15        15
         0         0         0        15        15         0         0         0
        15        15         0         0         0        15        15         0
         0         0        15        15         0         0         0        15
        15         0         0         0        15        15         0         0
         0        15        15         0         0         0        15        15
         0         0         0        15        15         0         0         0
        15        15         0         0         0        15        15         0
         0         0        15        15         0         0         0        15
        15         0         0         0        15        15         0         0
         0        15        15         0         0         0        15        15
         0         0         0        15        15         0         0         0
        15        15         0         0         0        15        15         0
         0         0        15        15         0         0         0        15
        15         0         0         0        15        15         0         0
         0        15        15         0         0         0        15        15
         0         0         0        15        15         0         0         0
        15        15         0         0         0        15        15         0
         0         0        15        15         0         0         0        15
        15         0         0         0        15        15         0         0
         0        15        15         0         0         0        15        15
         0         0         0        15        15         0         0         0
        15        15         0         0         0        15        15         0
         0         0        15        15         0         0         0        15
        15         0         0         0        15        15         0         0
         0        15        15         0         0         0        15        15
         0         0         0        15        15         0         0         0
        15        15         0         0         0        15        15         0
         0         0        15        15         0         0         0        15
        15         0         0         0        15        15         0         0
         0        15        15         0         0         0        15        15
         0         0         0        15        15         0         0         0
        15        15         0         0         0        15        15         0
         0         0        15        15         0         0         0        15
        15         0         0         0        15        15         0         0
         0        15        15         0         0         0        15        15
         0         0         0        15        15         0         0         0
        15        15         0         0         0        15        15         0
         0         0        15        15         0         0         0        15
        15         0         0         0        15        15         0         0
         0        15        15         0         0         0        15        15
         0         0         0        15        15         0         0         0
        15        15         0         0         0        15        15         0
         0         0        15        15         0         0         0        15
        15         0         0         0        15        15         0         0
         0        15        15         0         0         0        15        15
         0         0         0        15        15         0         0         0
        15        15         0         0         0        15        15         0
         0         0        15        15         0         0         0        15
        15         0         0         0        15        15         0         0
         0        15        15         0         0         0        15        15
         0         0         0        15        15         0         0         0
        15        15         0         0         0        15        15         0
         0         0        15        15         0         0         0        15
        15         0         0         0        15        15         0         0
         0        15        15         0         0         0        15        15
         0         0         0        15        15         0         0         0
        15        15         0         0         0        15        15         0
         0         0        15        15         0         0         0        15
        15         0         0         0        15        15         0         0
         0        15        15         0         0         0        15        15
         0         0         0        15        15         0         0         0
        15        15         0         0         0        15        15         0
         0         0        15        15         0         0         0        15
        15         0         0         0        15        15         0         0
         0        15        15         0         0         0        15        15
         0         0         0        15        15         0         0         0
        15        15         0         0         0        15        15         0
         0         0        15        15         0         0         0        15
        15         0         0         0        15        15         0         0
         0        15        15         0         0         0        15        15
         0         0         0        15        15         0         0         0
        15        15         0         0         0        15        15         0
         0         0        15        15         0         0         0        15
        15         0         0         0        15        15         0         0
         0        15        15         0         0         0        15        15
         0         0         0        15        15         0         0         0
        15        15         0         0         0        15        15         0
         0         0        15        15         0         0         0        15
        15         0         0         0        15        15         0         0
         0        15        15         0         0         0        15        15
         0         0         0        15        15         0         0         0
        15        15         0         0         0        15        15         0
         0         0        15        15         0         0         0        15
        15         0         0         0        15        15         0         0
         0        15        15         0         0         0        15        15
         0         0         0        15        15         0         0         0
        15        15         0         0         0        15        15         0
         0         0        15        15         0         0         0        15
        15         0         0         0        15        15         0         0
         0        15        15         0         0         0        15        15
         0         0         0        15        15         0         0         0
        15        15         0         0         0        15        15         0
         0         0        15        15         0         0         0        15
        15         0         0         0        15        15         0         0
         0        15        15         0         0         0        15        15
         0         0         0        15        15         0         0         0
        15        15         0         0         0        15        15         0
         0         0        15        15         0         0         0        15
        15         0         0         0        15        15         0         0
         0        15        15         0         0         0        15        15
         0         0         0        15        15         0         0         0
        15        15         0         0         0        15        15         0
         0         0        15        15         0         0         0        15
        15         0         0         0        15        15         0         0
         0        15        15         0         0         0        15        15
         0         0         0        15        15         0         0         0
        15        15         0         0         0        15        15         0
         0         0        15        15         0         0         0        15
        15         0         0         0        15        15         0         0
         0        15        15         0         0         0        15        15
         0         0         0        15        15         0         0         0
        15        15         0         0         0        15        15         0
         0         0        15        15         0         0         0        15
        15         0         0         0        15        15         0         0
         0        15        15         0         0         0        15        15
         0         0         0        15        15         0         0         0
        15        15         0         0         0        15        15         0
         0         0        15        15         0         0         0        15
        15         0         0         0        15        15         0         0
         0        15        15         0         0         0        15        15
         0         0         0        15        15         0         0         0
        15        15         0         0         0        15        15         0
         0         0        15        15         0         0         0        15
        15         0         0         0        15        15         0         0
         0        15        15         0         0         0        15        15
         0         0         0        15        15         0         0         0
        15        15         0         0         0        15        15         0
         0         0        15        15         0         0         0        15
        15         0         0         0        15        15         0         0
         0        15        15         0         0         0        15        15
         0         0         0        15        15         0         0         0
        15        15         0         0         0        15        15         0
         0         0        15        15         0         0         0        15
        15         0         0         0        15        15         0         0
         0        15        15         0         0         0        15        15
         0         0         0        15        15         0         0         0
        15        15         0         0         0        15        15         0
         0         0        15        15         0         0         0        15
        15         0         0         0        15        15         0         0
         0        15        15         0         0         0        15        15
         0         0         0        15        15         0         0         0
        15        15         0         0         0        15        15         0
         0         0        15        15         0         0         0        15
        15         0         0         0        15        15         0         0
         0        15        15         0         0         0        15        15
         0         0         0        15        15         0         0         0
        15        15         0         0         0        15        15         0
         0         0        15        15         0         0         0        15
        15         0         0         0        15        15         0         0
         0        15        15         0         0         0        15        15
         0         0         0        15        15         0         0         0
        15        15         0         0         0        15        15         0
         0         0        15        15         0         0         0        15
        15         0         0         0        15        15         0         0
         0        15        15         0         0         0        15        15
         0         0         0        15        15         0         0         0
        15        15         0         0         0        15        15         0
         0         0        15        15         0         0         0        15
        15         0         0         0        15        15         0         0
         0        15        15         0         0         0        15        15
         0         0         0        15        15         0         0         0
        15        15         0         0         0        15        15         0
         0         0        15        15         0         0         0        15
        15         0         0         0        15        15         0         0
         0        15        15         0         0         0        15        15
         0         0         0        15        15         0         0         0
        15        15         0         0         0        15        15         0
         0         0        15        15         0         0         0        15
        15         0         0         0        15        15         0         0
         0        15        15         0         0         0        15        15
         0         0         0        15        15         0         0         0
        15        15         0         0         0        15        15         0
         0         0        15        15         0         0         0        15
        15         0         0         0        15        15         0         0
         0        15        15         0         0         0        15        15
         0         0         0        15        15         0         0         0
        15        15         0         0         0        15        15         0
         0         0        15        15         0         0         0        15
        15         0         0         0        15        15         0         0
         0        15        15         0         0         0        15        15
         0         0         0        15        15         0         0         0
        15        15         0         0         0        15        15         0
         0         0        15        15         0         0         0        15
        15         0         0         0        15        15         0         0
         0        15        15         0         0         0        15        15
         0         0         0        15        15         0         0         0
        15        15         0         0         0        15        15         0
         0         0        15        15         0         0         0        15
        15         0         0         0        15        15         0         0
         0        15        15         0         0         0        15        15
         0         0         0        15        15         0         0         0
        15        15         0         0         0        15        15         0
         0         0        15        15         0         0         0        15
        15         0         0         0        15        15         0         0
         0        15        15         0         0         0        15        15
         0         0         0        15        15         0         0         0
        15        15         0         0         0        15        15         0
         0         0        15        15         0         0         0        15
        15         0         0         0        15        15         0         0
         0        15        15         0         0         0        15        15
         0         0         0        15        15         0         0         0
        15        15         0         0         0        15        15         0
         0         0        15        15         0         0         0        15
        15         0         0         0        15        15         0         0
         0        15        15         0         0         0        15        15
         0         0         0        15        15         0         0         0
        15        15         0         0         0        15        15         0
         0         0        15        15         0         0         0        15
        15         0         0         0        15        15         0         0
         0        15        15         0         0         0        15        15
         0         0         0        15        15         0         0         0
        15        15         0         0         0        15        15         0
         0         0        15        15         0         0         0        15
        15         0         0         0        15        15         0         0
         0        15        15         0         0         0        15        15
         0         0         0        15        15         0         0         0
        15        15         0         0         0        15        15         0
         0         0        15        15         0         0         0        15
        15         0         0         0        15        15         0         0
         0        15        15         0         0         0        15        15
         0         0         0        15        15         0         0         0
        15        15         0         0         0        15        15         0
         0         0        15        15         0         0         0        15
        15         0         0         0        15        15         0         0
         0        15        15         0         0         0        15        15
         0         0         0        15        15         0         0         0
        15        15         0         0         0        15        15         0
         0         0        15        15         0         0         0        15
        15         0         0         0        15        15         0         0
         0        15        15         0         0         0        15        15
         0         0         0        15        15         0         0         0
        15        15         0         0         0        15        15         0
         0         0        15        15         0         0         0        15
        15         0         0         0        15        15         0         0
         0        15        15         0         0         0        15        15
         0         0         0        15        15         0         0         0
        15        15         0         0         0        15        15         0
         0         0        15        15         0         0         0        15
        15         0         0         0        15        15         0         0
         0        15        15         0         0         0        15        15
         0         0         0        15        15         0         0         0
        15        15         0         0         0        15        15         0
         0         0        15        15         0         0         0        15
        15         0         0         0        15        15         0         0
         0        15        15         0         0         0        15        15
         0         0         0        15        15         0         0         0
        15        15         0         0         0        15        15         0
         0         0        15        15         0         0         0        15
        15         0         0         0        15        15         0         0
         0        15        15         0         0         0        15        15
         0         0         0        15        15         0         0         0
        15        15         0         0         0        15        15         0
         0         0        15        15         0         0         0        15
        15         0         0         0        15        15         0         0
         0        15        15         0         0         0        15        15
         0         0         0        15        15         0         0         0
        15        15         0         0         0        15        15         0
         0         0        15        15         0         0         0        15
        15         0         0         0        15        15         0         0
         0        15        15         0         0         0        15        15
         0         0         0        15        15         0         0         0
        15        15         0         0         0        15        15         0
         0         0        15        15         0         0         0        15
        15         0         0         0        15        15         0         0
         0        15        15         0         0         0        15        15
         0         0         0        15        15         0         0         0
        15        15         0         0         0        15        15         0
         0         0        15        15         0         0         0        15
        15         0         0         0        15        15         0         0
         0        15        15         0         0         0        15        15
         0         0         0        15        15         0         0         0
        15        15         0         0         0        15        15         0
         0         0        15        15         0         0         0        15
        15         0         0         0        15        15         0         0
         0        15        15         0         0         0        15        15
         0         0         0        15        15         0         0         0
        15        15         0         0         0        15        15         0
         0         0        15        15         0         0         0        15
        15         0         0         0        15        15         0         0
         0        15        15         0         0         0        15        15
         0         0         0        15        15         0         0         0
        15        15         0         0         0        15        15         0
         0         0        15        15         0         0         0        15
        15         0         0         0        15        15         0         0
         0        15        15         0         0         0        15        15
         0         0         0        15        15         0         0         0
        15        15         0         0         0        15        15         0
         0         0        15        15         0         0         0        15
        15         0         0         0        15        15         0         0
         0        15        15         0         0         0        15        15
         0         0         0        15        15         0         0         0
        15        15         0         0         0        15        15         0
         0         0        15        15         0         0         0        15
        15         0         0         0        15        15         0         0
         0        15        15         0         0         0        15        15
         0         0         0        15        15         0         0         0
        15        15         0         0         0        15        15         0
         0         0        15        15         0         0         0        15
        15         0         0         0        15        15         0         0
         0        15        15         0         0         0        15        15
         0         0         0        15        15         0         0         0
        15        15         0         0         0        15        15         0
         0         0        15        15         0         0         0        15
        15         0         0         0        15        15         0         0
         0        15        15         0         0         0        15        15
         0         0         0        15        15         0         0         0
        15        15         0         0         0        15        15         0
         0         0        15        15         0         0         0        15
        15         0         0         0        15        15         0         0
         0        15        15         0         0         0        15        15
         0         0         0        15        15         0         0         0
        15        15         0         0         0        15        15         0
         0         0        15        15         0         0         0        15
        15         0         0         0        15        15         0         0
         0        15        15         0         0         0        15        15
         0         0         0        15        15         0         0         0
        15        15         0         0         0        15        15         0
         0         0        15        15         0         0         0        15
        15         0         0         0        15        15         0         0
         0        15        15         0         0         0        15        15
         0         0         0        15        15         0         0         0
        15        15         0         0         0        15        15         0
         0         0        15        15         0         0         0        15
        15         0         0         0        15        15         0         0
         0        15        15         0         0         0        15        15
         0         0         0        15        15         0         0         0
        15        15         0         0         0        15        15         0
         0         0        15        15         0         0         0        15
        15         0         0         0        15        15         0         0
         0        15        15         0         0         0        15        15
         0         0         0        15        15         0         0         0
        15        15         0         0         0        15        15         0
         0         0        15        15         0         0         0        15
        15         0         0         0        15        15         0         0
         0        15        15         0         0         0        15        15
         0         0         0        15        15         0         0         0
        15        15         0         0         0        15        15         0
         0         0        15        15         0         0         0        15
        15         0         0         0        15        15         0         0
         0        15        15         0         0         0        15        15
         0         0         0        15        15         0         0         0
        15        15         0         0         0        15        15         0
         0         0        15        15         0         0         0        15
        15         0         0         0        15        15         0         0
         0        15        15         0         0         0        15        15
         0         0         0        15        15         0         0         0
        15        15         0         0         0        15        15         0
         0         0        15        15         0         0         0        15
        15         0         0         0        15        15         0         0
         0        15        15         0         0         0        15        15
         0         0         0        15        15         0         0         0
        15        15         0         0         0        15        15         0
         0         0        15        15         0         0         0        15
        15         0         0         0        15        15         0         0
         0        15        15         0         0         0        15        15
         0         0         0        15        15         0         0         0
        15        15         0         0         0        15        15         0
         0         0        15        15         0         0         0        15
        15         0         0         0        15        15         0         0
         0        15        15         0         0         0        15        15
         0         0         0        15        15         0         0         0
        15        15         0         0         0        15        15         0
         0         0        15        15         0         0         0        15
        15         0         0         0        15        15         0         0
         0        15        15         0         0         0        15        15
         0         0         0        15        15         0         0         0
        15        15         0         0         0        15        15         0
         0         0        15        15         0         0         0        15
        15         0         0         0        15        15         0         0
         0        15        15         0         0         0        15        15
         0         0         0        15        15         0         0         0
        15        15         0         0         0        15        15         0
         0         0        15        15         0         0         0        15
        15         0         0         0        15        15         0         0
         0        15        15         0         0         0        15        15
         0         0         0        15        15         0         0         0
        15        15         0         0         0        15        15         0
         0         0        15        15         0         0         0        15
        15         0         0         0        15        15         0         0
         0        15        15         0         0         0        15        15
         0         0         0        15        15         0         0         0
        15        15         0         0         0        15        15         0
         0         0        15        15         0         0         0        15
        15         0         0         0        15        15         0         0
         0        15        15         0         0         0        15        15
         0         0         0        15        15         0         0         0
        15        15         0         0         0        15        15         0
         0         0        15        15         0         0         0        15
        15         0         0         0        15        15         0         0
         0        15        15         0         0         0        15        15
         0         0         0        15        15         0         0         0
        15        15         0         0         0        15        15         0
         0         0        15        15         0         0         0        15
        15         0         0         0        15        15         0         0
         0        15        15         0         0         0        15        15
         0         0         0        15        15         0         0         0
        15        15         0         0         0        15        15         0
         0         0        15        15         0         0         0        15
        15         0         0         0        15        15         0         0
         0        15        15         0         0         0        15        15
         0         0         0        15        15         0         0         0
        15        15         0         0         0        15        15         0
         0         0        15        15         0         0         0        15
        15         0         0         0        15        15         0         0
         0        15        15         0         0         0        15        15
         0         0         0        15        15         0         0         0
        15        15         0         0         0        15        15         0
         0         0        15        15         0         0         0        15
        15         0         0         0        15        15         0         0
         0        15        15         0         0         0        15        15
         0         0         0        15        15         0         0         0
        15        15         0         0         0        15        15         0
         0         0        15        15         0         0         0        15
        15         0         0         0        15        15         0         0
         0        15        15         0         0         0        15        15
         0         0         0        15        15         0         0         0
        15        15         0         0         0        15        15         0
         0         0        15        15         0         0         0        15
        15         0         0         0        15        15         0         0
         0        15        15         0         0         0        15        15
         0         0         0        15        15         0         0         0
        15        15         0         0         0        15        15         0
         0         0        15        15         0         0         0        15
        15         0         0         0        15        15         0         0
         0        15        15         0         0         0        15        15
         0         0         0        15        15         0         0         0
        15        15         0         0         0        15        15         0
         0         0        15        15         0         0         0        15
        15         0         0         0        15        15         0         0
         0        15        15         0         0         0        15        15
         0         0         0        15        15         0         0         0
        15        15         0         0         0        15        15         0
         0         0        15        15         0         0         0        15
        15         0         0         0        15        15         0         0
         0        15        15         0         0         0        15        15
         0         0         0        15        15         0         0         0
        15        15         0         0         0        15        15         0
         0         0        15        15         0         0         0        15
        15         0         0         0        15        15         0         0
         0        15        15         0         0         0        15        15
         0         0         0        15        15         0         0         0
        15        15         0         0         0        15        15         0
         0         0        15        15         0         0         0        15
        15         0         0         0        15        15         0         0
         0        15        15         0         0         0        15        15
         0         0         0        15        15         0         0         0
        15        15         0         0         0        15        15         0
         0         0        15        15         0         0         0        15
        15         0         0         0        15        15         0         0
         0        15        15         0         0         0        15        15
         0         0         0        15        15         0         0         0
        15        15         0         0         0        15        15         0
         0         0        15        15         0         0         0        15
        15         0         0         0        15        15         0         0
         0        15        15         0         0         0        15        15
         0         0         0        15        15         0         0         0
        15        15         0         0         0        15        15         0
         0         0        15        15         0         0         0        15
        15         0         0         0        15        15         0         0
         0        15        15         0         0         0        15        15
         0         0         0        15        15         0         0         0
        15        15         0         0         0        15        15         0
         0         0        15        15         0         0         0        15
        15         0         0         0        15        15         0         0
         0        15        15         0         0         0        15        15
         0         0         0        15        15         0         0         0
        15        15         0         0         0        15        15         0
         0         0        15        15         0         0         0        15
        15         0         0         0        15        15         0         0
         0        15        15         0         0         0        15        15
         0         0         0        15        15         0         0         0
        15        15         0         0         0        15        15         0
         0         0        15        15         0         0         0        15
        15         0         0         0        15        15         0         0
         0        15        15         0         0         0        15        15
         0         0         0        15        15         0         0         0
        15        15         0         0         0        15        15         0
         0         0        15        15         0         0         0        15
        15         0         0         0        15        15         0         0
         0        15        15         0         0         0        15        15
         0         0         0        15        15         0         0         0
        15        15         0         0         0        15        15         0
         0         0        15        15         0         0         0        15
        15         0         0         0        15        15         0         0
         0        15        15         0         0         0        15        15
         0         0         0        15        15         0         0         0
        15        15         0         0         0        15        15         0
         0         0        15        15         0         0         0        15
        15         0         0         0        15        15         0         0
         0        15        15         0         0         0        15        15
         0         0         0        15        15         0         0         0
        15        15         0         0         0        15        15         0
         0         0        15        15         0         0         0        15
        15         0         0         0        15        15         0         0
         0        15        15         0         0         0        15        15
         0         0         0        15        15         0         0         0
        15        15         0         0         0        15        15         0
         0         0        15        15         0         0         0        15
        15         0         0         0        15        15         0         0
         0        15        15         0         0         0        15        15
         0         0         0        15        15         0         0         0
        15        15         0         0         0        15        15         0
         0         0        15        15         0         0         0        15
        15         0         0         0        15        15         0         0
         0        15        15         0         0         0        15        15
         0         0         0        15        15         0         0         0
        15        15         0         0         0        15        15         0
         0         0        15        15         0         0         0        15
        15         0         0         0        15        15         0         0
         0        15        15         0         0         0        15        15
         0         0         0        15        15         0         0         0
        15        15         0         0         0        15        15         0
         0         0        15        15         0         0         0        15
        15         0         0         0        15        15         0         0
         0        15        15         0         0         0        15        15
         0         0         0        15        15         0         0         0
        15        15         0         0         0        15        15         0
         0         0        15        15         0         0         0        15
        15         0         0         0        15        15         0         0
         0        15        15         0         0         0        15        15
         0         0         0        15        15         0         0         0
        15        15         0         0         0        15        15         0
         0         0        15        15         0         0         0        15
        15         0         0         0        15        15         0         0
         0        15        15         0         0         0        15        15
         0         0         0        15        15         0         0         0
        15        15         0         0         0        15        15         0
         0         0        15        15         0         0         0        15
        15         0         0         0        15        15         0         0
         0        15        15         0         0         0        15        15
         0         0         0        15        15         0         0         0
        15        15         0         0         0        15        15         0
         0         0        15        15         0         0         0        15
        15         0         0         0        15        15         0         0
         0        15        15         0         0         0        15        15
         0         0         0        15        15         0         0         0
        15        15         0         0         0        15        15         0
         0         0        15        15         0         0         0        15
        15         0         0         0        15        15         0         0
         0        15        15         0         0         0        15        15
         0         0         0        15        15         0         0         0
        15        15         0         0         0        15        15         0
         0         0        15        15         0         0         0        15
        15         0         0         0        15        15         0         0
         0        15        15         0         0         0        15        15
         0         0         0        15        15         0         0         0
        15        15         0         0         0        15        15         0
         0         0        15        15         0         0         0        15
        15         0         0         0        15        15         0         0
         0        15        15         0         0         0        15        15
         0         0         0        15        15         0         0         0
        15        15         0         0         0        15        15         0
         0         0        15        15         0         0         0        15
        15         0         0         0        15        15         0         0
         0        15        15         0         0         0        15        15
         0         0         0        15        15         0         0         0
        15        15         0         0         0        15        15         0
         0         0        15        15         0         0         0        15
        15         0         0         0        15        15         0         0
         0        15        15         0         0         0        15        15
         0         0         0        15        15         0         0         0
        15        15         0         0         0        15        15         0
         0         0        15        15         0         0         0        15
        15         0         0         0        15        15         0         0
         0        15        15         0         0         0        15        15
         0         0         0        15        15         0         0         0
        15        15         0         0         0        15        15         0
         0         0        15        15         0         0         0        15
        15         0         0         0        15        15         0         0
         0        15        15         0         0         0        15        15
         0         0         0        15        15         0         0         0
        15        15         0         0         0        15        15         0
         0         0        15        15         0         0         0        15
        15         0         0         0        15        15         0         0
         0        15        15         0         0         0        15        15
         0         0         0        15        15         0         0         0
        15        15         0         0         0        15        15         0
         0         0        15        15         0         0         0        15
        15         0         0         0        15        15         0         0
         0        15        15         0         0         0        15        15
         0         0         0        15        15         0         0         0
        15        15         0         0         0        15        15         0
         0         0        15        15         0         0         0        15
        15         0         0         0        15        15         0         0
         0        15        15         0         0         0        15        15
         0         0         0        15        15         0         0         0
        15        15         0         0         0        15        15         0
         0         0        15        15         0         0         0        15
        15         0         0         0        15        15         0         0
         0        15        15         0         0         0        15        15
         0         0         0        15        15         0         0         0
        15        15         0         0         0        15        15         0
         0         0        15        15         0         0         0        15
        15         0         0         0        15        15         0         0
         0        15        15         0         0         0        15        15
         0         0         0        15        15         0         0         0
        15        15         0         0         0        15        15         0
         0         0        15        15         0         0         0        15
        15         0         0         0        15        15         0         0
         0        15        15         0         0         0        15        15
         0         0         0        15        15         0         0         0
        15        15         0         0         0        15        15         0
         0         0        15        15         0         0         0        15
        15         0         0         0        15        15         0         0
         0        15        15         0         0         0        15        15
         0         0         0        15        15         0         0         0
        15        15         0         0         0        15        15         0
         0         0        15        15         0         0         0        15
        15         0         0         0        15        15         0         0
         0        15        15         0         0         0        15        15
         0         0         0        15        15         0         0         0
        15        15         0         0         0        15        15         0
         0         0        15        15         0         0         0        15
        15         0         0         0        15        15         0         0
         0        15        15         0         0         0        15        15
         0         0         0        15        15         0         0         0
        15        15         0         0         0        15        15         0
         0         0        15        15         0         0         0        15
        15         0         0         0        15        15         0         0
         0        15        15         0         0         0        15        15
         0         0         0        15        15         0         0         0
        15        15         0         0         0        15        15         0
         0         0        15        15         0         0         0        15
        15         0         0         0        15        15         0         0
         0        15        15         0         0         0        15        15
         0         0         0        15        15         0         0         0
        15        15         0         0         0        15        15         0
         0         0        15        15         0         0         0        15
        15         0         0         0        15        15         0         0
         0        15        15         0         0         0        15        15
         0         0         0        15        15         0         0         0
        15        15         0         0         0        15        15         0
         0         0        15        15         0         0         0        15
        15         0         0         0        15        15         0         0
         0        15        15         0         0         0        15        15
         0         0         0        15        15         0         0         0
        15        15         0         0         0        15        15         0
         0         0        15        15         0         0         0        15
        15         0         0         0        15        15         0         0
         0        15        15         0         0         0        15        15
         0         0         0        15        15         0         0         0
        15        15         0         0         0        15        15         0
         0         0        15        15         0         0         0        15
        15         0         0         0        15        15         0         0
         0        15        15         0         0         0        15        15
         0         0         0        15        15         0         0         0
        15        15         0         0         0        15        15         0
         0         0        15        15         0         0         0        15
        15         0         0         0        15        15         0         0
         0        15        15         0         0         0        15        15
         0         0         0        15        15         0         0         0
        15        15         0         0         0        15        15         0
         0         0        15        15         0         0         0        15
        15         0         0         0        15        15         0         0
         0        15        15         0         0         0        15        15
         0         0         0        15        15         0         0         0
        15        15         0         0         0        15        15         0
         0         0        15        15         0         0         0        15
        15         0         0         0        15        15         0         0
         0        15        15         0         0         0        15        15
         0         0         0        15        15         0         0         0
        15        15         0         0         0        15        15         0
         0         0        15        15         0         0         0        15
        15         0         0         0        15        15         0         0
         0        15        15         0         0         0        15        15
         0         0         0        15        15         0         0         0
        15        15         0         0         0        15        15         0
         0         0        15        15         0         0         0        15
        15         0         0         0        15        15         0         0
         0        15        15         0         0         0        15        15
         0         0         0        15        15         0         0         0
        15        15         0         0         0        15        15         0
         0         0        15        15         0         0         0        15
        15         0         0         0        15        15         0         0
         0        15        15         0         0         0        15        15
         0         0         0        15        15         0         0         0
        15        15         0         0         0        15        15         0
         0         0        15        15         0         0         0        15
        15         0         0         0        15        15         0         0
         0        15        15         0         0         0        15        15
         0         0         0        15        15         0         0         0
        15        15         0         0         0        15        15         0
         0         0        15        15         0         0         0        15
        15         0         0         0        15        15         0         0
         0        15        15         0         0         0        15        15
         0         0         0        15        15         0         0         0
        15        15         0         0         0        15        15         0
         0         0        15        15         0         0         0        15
        15         0         0         0        15        15         0         0
         0        15        15         0         0         0        15        15
         0         0         0        15        15         0         0         0
        15        15         0         0         0        15        15         0
         0         0        15        15         0         0         0        15
        15         0         0         0        15        15         0         0
         0        15        15         0         0         0        15        15
         0         0         0        15        15         0         0         0
        15        15         0         0         0        15        15         0
         0         0        15        15         0         0         0        15
        15         0         0         0        15        15         0         0
         0        15        15         0         0         0        15        15
         0         0         0        15        15         0         0         0
        15        15         0         0         0        15        15         0
         0         0        15        15         0         0         0        15
        15         0         0         0        15        15         0         0
         0        15        15         0         0         0        15        15
         0         0         0        15        15         0         0         0
        15        15         0         0         0        15        15         0
         0         0        15        15         0         0         0        15
        15         0         0         0        15        15         0         0
         0        15        15         0         0         0        15        15
         0         0         0        15        15         0         0         0
        15        15         0         0         0        15        15         0
         0         0        15        15         0         0         0        15
        15         0         0         0        15        15         0         0
         0        15        15         0         0         0        15        15
         0         0         0        15        15         0         0         0
        15        15         0         0         0        15        15         0
         0         0        15        15         0         0         0        15
        15         0         0         0        15        15         0         0
         0        15        15         0         0         0        15        15
         0         0         0        15        15         0         0         0
        15        15         0         0         0        15        15         0
         0         0        15        15         0         0         0        15
        15         0         0         0        15        15         0         0
         0        15        15         0         0         0        15        15
         0         0         0        15        15         0         0         0
        15        15         0         0         0        15        15         0
         0         0        15        15         0         0         0        15
        15         0         0         0        15        15         0         0
         0        15        15         0         0         0        15        15
         0         0         0        15        15         0         0         0
        15        15         0         0         0        15        15         0
         0         0        15        15         0         0         0        15
        15         0         0         0        15        15         0         0
         0        15        15         0         0         0        15        15
         0         0         0        15        15         0         0         0
        15        15         0         0         0        15        15         0
         0         0        15        15         0         0         0        15
        15         0         0         0        15        15         0         0
         0        15        15         0         0         0        15        15
         0         0         0        15        15         0         0         0
        15        15         0         0         0        15        15         0
         0         0        15        15         0         0         0        15
        15         0         0         0        15        15         0         0
         0        15        15         0         0         0        15        15
         0         0         0        15        15         0         0         0
        15        15         0         0         0        15        15         0
         0         0        15        15         0         0         0        15
        15         0         0         0        15        15         0         0
         0        15        15         0         0         0        15        15
         0         0         0        15        15         0         0         0
        15        15         0         0         0        15        15         0
         0         0        15        15         0         0         0        15
        15         0         0         0        15        15         0         0
         0        15        15         0         0         0        15        15
         0         0         0        15        15         0         0         0
        15        15         0         0         0        15        15         0
         0         0        15        15         0         0         0        15
        15         0         0         0        15        15         0         0
         0        15        15         0         0         0        15        15
         0         0         0        15        15         0         0         0
        15        15         0         0         0        15        15         0
         0         0        15        15         0         0         0        15
        15         0         0         0        15        15         0         0
         0        15        15         0         0         0        15        15
         0         0         0        15        15         0         0         0
        15        15         0         0         0        15        15         0
         0         0        15        15         0         0         0        15
        15         0         0         0        15        15         0         0
         0        15        15         0         0         0        15        15
         0         0         0        15        15         0         0         0
        15        15         0         0         0        15        15         0
         0         0        15        15         0         0         0        15
        15         0         0         0        15        15         0         0
         0        15        15         0         0         0        15        15
         0         0         0        15        15         0         0         0
        15        15         0         0         0        15        15         0
         0         0        15        15         0         0         0        15
        15         0         0         0        15        15         0         0
         0        15        15         0         0         0        15        15
         0         0         0        15        15         0         0         0
        15        15         0         0         0        15        15         0
         0         0        15        15         0         0         0        15
        15         0         0         0        15        15         0         0
         0        15        15         0         0         0        15        15
         0         0         0        15        15         0         0         0
        15        15         0         0         0        15        15         0
         0         0        15        15         0         0         0        15
        15         0         0         0        15        15         0         0
         0        15        15         0         0         0        15        15
         0         0         0        15        15         0         0         0
        15        15         0         0         0        15        15         0
         0         0        15        15         0         0         0        15
        15         0         0         0        15        15         0         0
         0        15        15         0         0         0        15        15
         0         0         0        15        15         0         0         0
        15        15         0         0         0        15        15         0
         0         0        15        15         0         0         0        15
        15         0         0         0        15        15         0         0
         0        15        15         0         0         0        15        15
         0         0         0        15        15         0         0         0
        15        15         0         0         0        15        15         0
         0         0        15        15         0         0         0        15
        15         0         0         0        15        15         0         0
         0        15        15         0         0         0        15        15
         0         0         0        15        15         0         0         0
        15        15         0         0         0        15        15         0
         0         0        15        15         0         0         0        15
        15         0         0         0        15        15         0         0
         0        15        15         0         0         0        15        15
         0         0         0        15        15         0         0         0
        15        15         0         0         0        15        15         0
         0         0        15        15         0         0         0        15
        15         0         0         0        15        15         0         0
         0        15        15         0         0         0        15        15
         0         0         0        15        15         0         0         0
        15        15         0         0         0        15        15         0
         0         0        15        15         0         0         0        15
        15         0         0         0        15        15         0         0
         0        15        15         0         0         0        15        15
         0         0         0        15        15         0         0         0
        15        15         0         0         0        15        15         0
         0         0        15        15         0         0         0        15
        15         0         0         0        15        15         0         0
         0        15        15         0         0         0        15        15
         0         0         0        15        15         0         0         0
        15        15         0         0         0        15        15         0
         0         0        15        15         0         0         0        15
        15         0         0         0        15        15         0         0
         0        15        15         0         0         0        15        15
         0         0         0        15        15         0         0         0
        15        15         0         0         0        15        15         0
         0         0        15        15         0         0         0        15
        15         0         0         0        15        15         0         0
         0        15        15         0         0         0        15        15
         0         0         0        15        15         0         0         0
        15        15         0         0         0        15        15         0
         0         0        15        15         0         0         0        15
        15         0         0         0        15        15         0         0
         0        15        15         0         0         0        15        15
         0         0         0        15        15         0         0         0
        15        15         0         0         0        15        15         0
         0         0        15        15         0         0         0        15
        15         0         0         0        15        15         0         0
         0        15        15         0         0         0        15        15
         0         0         0        15        15         0         0         0
        15        15         0         0         0        15        15         0
         0         0        15        15         0         0         0        15
        15         0         0         0        15        15         0         0
         0        15        15         0         0         0        15        15
         0         0         0        15        15         0         0         0
        15        15         0         0         0        15        15         0
         0         0        15        15         0         0         0        15
        15         0         0         0        15        15         0         0
         0        15        15         0         0         0        15        15
         0         0         0        15        15         0         0         0
        15        15         0         0         0        15        15         0
         0         0        15        15         0         0         0        15
        15         0         0         0        15        15         0         0
         0        15        15         0         0         0        15        15
         0         0         0        15        15         0         0         0
        15        15         0         0         0        15        15         0
         0         0        15        15         0         0         0        15
        15         0         0         0        15        15         0         0
         0        15        15         0         0         0        15        15
         0         0         0        15        15         0         0         0
        15        15         0         0         0        15        15         0
         0         0        15        15         0         0         0        15
        15         0         0         0        15        15         0         0
         0        15        15         0         0         0        15        15
         0         0         0        15        15         0         0         0
        15        15         0         0         0        15        15         0
         0         0        15        15         0         0         0        15
        15         0         0         0        15        15         0         0
         0        15        15         0         0         0        15        15
         0         0         0        15        15         0         0         0
        15        15         0         0         0        15        15         0
         0         0        15        15         0         0         0        15
        15         0         0         0        15        15         0         0
         0        15        15         0         0         0        15        15
         0         0         0        15        15         0         0         0
        15        15         0         0         0        15        15         0
         0         0        15        15         0         0         0        15
        15         0         0         0        15        15         0         0
         0        15        15         0         0         0        15        15
         0         0         0        15        15         0         0         0
        15        15         0         0         0        15        15         0
         0         0        15        15         0         0         0        15
        15         0         0         0        15        15         0         0
         0        15        15         0         0         0        15        15
         0         0         0        15        15         0         0         0
        15        15         0         0         0        15        15         0
         0         0        15        15         0         0         0        15
        15         0         0         0        15        15         0         0
         0        15        15         0         0         0        15        15
         0         0         0        15        15         0         0         0
        15        15         0         0         0        15        15         0
         0         0        15        15         0         0         0        15
        15         0         0         0        15        15         0         0
         0        15        15         0         0         0        15        15
         0         0         0        15        15         0         0         0
        15        15         0         0         0        15        15         0
         0         0        15        15         0         0         0        15
        15         0         0         0        15        15         0         0
         0        15        15         0         0         0        15        15
         0         0         0        15        15         0         0         0
        15        15         0         0         0        15        15         0
         0         0        15        15         0         0         0        15
        15         0         0         0        15        15         0         0
         0        15        15         0         0         0        15        15
         0         0         0        15        15         0         0         0
        15        15         0         0         0        15        15         0
         0         0        15        15         0         0         0        15
        15         0         0         0        15        15         0         0
         0        15        15         0         0         0        15        15
         0         0         0        15        15         0         0         0
        15        15         0         0         0        15        15         0
         0         0        15        15         0         0         0        15
        15         0         0         0        15        15         0         0
         0        15        15         0         0         0        15        15
         0         0         0        15        15         0         0         0
        15        15         0         0         0        15        15         0
         0         0        15        15         0         0         0        15
        15         0         0         0        15        15         0         0
         0        15        15         0         0         0        15        15
         0         0         0        15        15         0         0         0
        15        15         0         0         0        15        15         0
         0         0        15        15         0         0         0        15
        15         0         0         0        15        15         0         0
         0        15        15         0         0         0        15        15
         0         0         0        15        15         0         0         0
        15        15         0         0         0        15        15         0
         0         0        15        15         0         0         0        15
        15         0         0         0        15        15         0         0
         0        15        15         0         0         0        15        15
         0         0         0        15        15         0         0         0
        15        15         0         0         0        15        15         0
         0         0        15        15         0         0         0        15
        15         0         0         0        15        15         0         0
         0        15        15         0         0         0        15        15
         0         0         0        15        15         0         0         0
        15        15         0         0         0        15        15         0
         0         0        15        15         0         0         0        15
        15         0         0         0        15        15         0         0
         0        15        15         0         0         0        15        15
         0         0         0        15        15         0         0         0
        15        15         0         0         0        15        15         0
         0         0        15        15         0         0         0        15
        15         0         0         0        15        15         0         0
         0        15        15         0         0         0        15        15
         0         0         0        15        15         0         0         0
        15        15         0         0         0        15        15         0
         0         0        15        15         0         0         0        15
        15         0         0         0        15        15         0         0
         0        15        15         0         0         0        15        15
         0         0         0        15        15         0         0         0
        15        15         0         0         0        15        15         0
         0         0        15        15         0         0         0        15
        15         0         0         0        15        15         0         0
         0        15        15         0         0         0        15        15
         0         0         0        15        15         0         0         0
        15        15         0         0         0        15        15         0
         0         0        15        15         0         0         0        15
        15         0         0         0        15        15         0         0
         0        15        15         0         0         0        15        15
         0         0         0        15        15         0         0         0
        15        15         0         0         0        15        15         0
         0         0        15        15         0         0         0        15
        15         0         0         0        15        15         0         0
         0        15        15         0         0         0        15        15
         0         0         0        15        15         0         0         0
        15        15         0         0         0        15        15         0
         0         0        15        15         0         0         0        15
        15         0         0         0        15        15         0         0
         0        15        15         0         0         0        15        15
         0         0         0        15        15         0         0         0
        15        15         0         0         0        15        15         0
         0         0        15        15         0         0         0        15
        15         0         0         0        15        15         0         0
         0        15        15         0         0         0        15        15
         0         0         0        15        15         0         0         0
        15        15         0         0         0        15        15         0
         0         0        15        15         0         0         0        15
        15         0         0         0        15        15         0         0
         0        15        15         0         0         0        15        15
         0         0         0        15        15         0         0         0
        15        15         0         0         0        15        15         0
         0         0        15        15         0         0         0        15
        15         0         0         0        15        15         0         0
         0        15        15         0         0         0        15        15
         0         0         0        15        15         0         0         0
        15        15         0         0         0        15        15         0
         0         0        15        15         0         0         0        15
        15         0         0         0        15        15         0         0
         0        15        15         0         0         0        15        15
         0         0         0        15        15         0         0         0
        15        15         0         0         0        15        15         0
         0         0        15        15         0         0         0        15
        15         0         0         0        15        15         0         0
         0        15        15         0         0         0        15        15
         0         0         0        15        15         0         0         0
        15        15         0         0         0        15        15         0
         0         0        15        15         0         0         0        15
        15         0         0         0        15        15         0         0
         0        15        15         0         0         0        15        15
         0         0         0        15        15         0         0         0
        15        15         0         0         0        15        15         0
         0         0        15        15         0         0         0        15
        15         0         0         0        15        15         0         0
         0        15        15         0         0         0        15        15
         0         0         0        15        15         0         0         0
        15        15         0         0         0        15        15         0
         0         0        15        15         0         0         0        15
        15         0         0         0        15        15         0         0
         0        15        15         0         0         0        15        15
         0         0         0        15        15         0         0         0
        15        15         0         0         0        15        15         0
         0         0        15        15         0         0         0        15
        15         0         0         0        15        15         0         0
         0        15        15         0         0         0        15        15
         0         0         0        15        15         0         0         0
        15        15         0         0         0        15        15         0
         0         0        15        15         0         0         0        15
        15         0         0         0        15        15         0         0
         0        15        15         0         0         0        15        15
         0         0         0        15        15         0         0         0
        15        15         0         0         0        15        15         0
         0         0        15        15         0         0         0        15
        15         0         0         0        15        15         0         0
         0        15        15         0         0         0        15        15
         0         0         0        15        15         0         0         0
        15        15         0         0         0        15        15         0
         0         0        15        15         0         0         0        15
        15         0         0         0        15        15         0         0
         0        15        15         0         0         0        15        15
         0         0         0        15        15         0         0         0
        15        15         0         0         0        15        15         0
         0         0        15        15         0         0         0        15
        15         0         0         0        15        15         0         0
         0        15        15         0         0         0        15        15
         0         0         0        15        15         0         0         0
        15        15         0         0         0        15        15         0
         0         0        15        15         0         0         0        15
        15         0         0         0        15        15         0         0
         0        15        15         0         0         0        15        15
         0         0         0        15        15         0         0         0
        15        15         0         0         0        15        15         0
         0         0        15        15         0         0         0        15
        15         0         0         0        15        15         0         0
         0        15        15         0         0         0        15        15
         0         0         0        15        15         0         0         0
        15        15         0         0         0        15        15         0
         0         0        15        15         0         0         0        15
        15         0         0         0        15        15         0         0
         0        15        15         0         0         0        15        15
         0         0         0        15        15         0         0         0
        15        15         0         0         0        15        15         0
         0         0        15        15         0         0         0        15
        15         0         0         0        15        15         0         0
         0        15        15         0         0         0        15        15
         0         0         0        15        15         0         0         0
        15        15         0         0         0        15        15         0
         0         0        15        15         0         0         0        15
        15         0         0         0        15        15         0         0
         0        15        15         0         0         0        15        15
         0         0         0        15        15         0         0         0
        15        15         0         0         0        15        15         0
         0         0        15        15         0         0         0        15
        15         0         0         0        15        15         0         0
         0        15        15         0         0         0        15        15
         0         0         0        15        15         0         0         0
        15        15         0         0         0        15        15         0
         0         0        15        15         0         0         0        15
        15         0         0         0        15        15         0         0
         0        15        15         0         0         0        15        15
         0         0         0        15        15         0         0         0
        15        15         0         0         0        15        15         0
         0         0        15        15         0         0         0        15
        15         0         0         0        15        15         0         0
         0        15        15         0         0         0        15        15
         0         0         0        15        15         0         0         0
        15        15         0         0         0        15        15         0
         0         0        15        15         0         0         0        15
        15         0         0         0        15        15         0         0
         0        15        15         0         0         0        15        15
         0         0         0        15        15         0         0         0
        15        15         0         0         0        15        15         0
         0         0        15        15         0         0         0        15
        15         0         0         0        15        15         0         0
         0        15        15         0         0         0        15        15
         0         0         0        15        15         0         0         0
        15        15         0         0         0        15        15         0
         0         0        15        15         0         0         0        15
        15         0         0         0        15        15         0         0
         0        15        15         0         0         0        15        15
         0         0         0        15        15         0         0         0
        15        15         0         0         0        15        15         0
         0         0        15        15         0         0         0        15
        15         0         0         0        15        15         0         0
         0        15        15         0         0         0        15        15
         0         0         0        15        15         0         0         0
        15        15         0         0         0        15        15         0
         0         0        15        15         0         0         0        15
        15         0         0         0        15        15         0         0
         0        15        15         0         0         0        15        15
         0         0         0        15        15         0         0         0
        15        15         0         0         0        15        15         0
         0         0        15        15         0         0         0        15
        15         0         0         0        15        15         0         0
         0        15        15         0         0         0        15        15
         0         0         0        15        15         0         0         0
        15        15         0         0         0        15        15         0
         0         0        15        15         0         0         0        15
        15         0         0         0        15        15         0         0
         0        15        15         0         0         0        15        15
         0         0         0        15        15         0         0         0
        15        15         0         0         0        15        15         0
         0         0        15        15         0         0         0        15
        15         0         0         0        15        15         0         0
         0        15        15         0         0         0        15        15
         0         0         0        15        15         0         0         0
        15        15         0         0         0        15        15         0
         0         0        15        15         0         0         0        15
        15         0         0         0        15        15         0         0
         0        15        15         0         0         0        15        15
         0         0         0        15        15         0         0         0
        15        15         0         0         0        15        15         0
         0         0        15        15         0         0         0        15
        15         0         0         0        15        15         0         0
         0        15        15         0         0         0        15        15
         0         0         0        15        15         0         0         0
        15        15         0         0         0        15        15         0
         0         0        15        15         0         0         0        15
        15         0         0         0        15        15         0         0
         0        15        15         0         0         0        15        15
         0         0         0        15        15         0         0         0
        15        15         0         0         0        15        15         0
         0         0        15        15         0         0         0        15
        15         0         0         0        15        15         0         0
         0        15        15         0         0         0        15        15
         0         0         0        15        15         0         0         0
        15        15         0         0         0        15        15         0
         0         0        15        15         0         0         0        15
        15         0         0         0        15        15         0         0
         0        15        15         0         0         0        15        15
         0         0         0        15        15         0         0         0
        15        15         0         0         0        15        15         0
         0         0        15        15         0         0         0        15
        15         0         0         0        15        15         0         0
         0        15        15         0         0         0        15        15
         0         0         0        15        15         0         0         0
        15        15         0         0         0        15        15         0
         0         0        15        15         0         0         0        15
        15         0         0         0        15        15         0         0
         0        15        15         0         0         0        15        15
         0         0         0        15        15         0         0         0
        15        15         0         0         0        15        15         0
         0         0        15        15         0         0         0        15
        15         0         0         0        15        15         0         0
         0        15        15         0         0         0        15        15
         0         0         0        15        15         0         0         0
        15        15         0         0         0        15        15         0
         0         0        15        15         0         0         0        15
        15         0         0         0        15        15         0         0
         0        15        15         0         0         0        15        15
         0         0         0        15        15         0         0         0
        15        15         0         0         0        15        15         0
         0         0        15        15         0         0         0        15
        15         0         0         0        15        15         0         0
         0        15        15         0         0         0        15        15
         0         0         0        15        15         0         0         0
        15        15         0         0         0        15        15         0
         0         0        15        15         0         0         0        15
        15         0         0         0        15        15         0         0
         0        15        15         0         0         0        15        15
         0         0         0        15        15         0         0         0
        15        15         0         0         0        15        15         0
         0         0        15        15         0         0         0        15
        15         0         0         0        15        15         0         0
         0        15        15         0         0         0        15        15
         0         0         0        15        15         0         0         0
        15        15         0         0         0        15        15         0
         0         0        15        15         0         0         0        15
        15         0         0         0        15        15         0         0
         0        15        15         0         0         0        15        15
         0         0         0        15        15         0         0         0
        15        15         0         0         0        15        15         0
         0         0        15        15         0         0         0        15
        15         0         0         0        15        15         0         0
         0        15        15         0         0         0        15        15
         0         0         0        15        15         0         0         0
        15        15         0         0         0        15        15         0
         0         0        15        15         0         0         0        15
        15         0         0         0        15        15         0         0
         0        15        15         0         0         0        15        15
         0         0         0        15        15         0         0         0
        15        15         0         0         0        15        15         0
         0         0        15        15         0         0         0        15
        15         0         0         0        15        15         0         0
         0        15        15         0         0         0        15        15
         0         0         0        15        15         0         0         0
        15        15         0         0         0        15        15         0
         0         0        15        15         0         0         0        15
        15         0         0         0        15        15         0         0
         0        15        15         0         0         0        15        15
         0         0         0        15        15         0         0         0
        15        15         0         0         0        15        15         0
         0         0        15        15         0         0         0        15
        15         0         0         0        15        15         0         0
         0        15        15         0         0         0        15        15
         0         0         0        15        15         0         0         0
        15        15         0         0         0        15        15         0
         0         0        15        15         0         0         0        15
        15         0         0         0        15        15         0         0
         0        15        15         0         0         0        15        15
         0         0         0        15        15         0         0         0
        15        15         0         0         0        15        15         0
         0         0        15        15         0         0         0        15
        15         0         0         0        15        15         0         0
         0        15        15         0         0         0        15        15
         0         0         0        15        15         0         0         0
        15        15         0         0         0        15        15         0
         0         0        15        15         0         0         0        15
        15         0         0         0        15        15         0         0
         0        15        15         0         0         0        15        15
         0         0         0        15        15         0         0         0
        15        15         0         0         0        15        15         0
         0         0        15        15         0         0         0        15
        15         0         0         0        15        15         0         0
         0        15        15         0         0         0        15        15
         0         0         0        15        15         0         0         0
        15        15         0         0         0        15        15         0
         0         0        15        15         0         0         0        15
        15         0         0         0        15        15         0         0
         0        15        15         0         0         0        15        15
         0         0         0        15        15         0         0         0
        15        15         0         0         0        15        15         0
         0         0        15        15         0         0         0        15
        15         0         0         0        15        15         0         0
         0        15        15         0         0         0        15        15
         0         0         0        15        15         0         0         0
        15        15         0         0         0        15        15         0
         0         0        15        15         0         0         0        15
        15         0         0         0        15        15         0         0
         0        15        15         0         0         0        15        15
         0         0         0        15        15         0         0         0
        15        15         0         0         0        15        15         0
         0         0        15        15         0         0         0        15
        15         0         0         0        15        15         0         0
         0        15        15         0         0         0        15        15
         0         0         0        15        15         0         0         0
        15        15         0         0         0        15        15         0
         0         0        15        15         0         0         0        15
        15         0         0         0        15        15         0         0
         0        15        15         0         0         0        15        15
         0         0         0        15        15         0         0         0
        15        15         0         0         0        15        15         0
         0         0        15        15         0         0         0        15
        15         0         0         0        15        15         0         0
         0        15        15         0         0         0        15        15
         0         0         0        15        15         0         0         0
        15        15         0         0         0        15        15         0
         0         0        15        15         0         0         0        15
        15         0         0         0        15        15         0         0
         0        15        15         0         0         0        15        15
         0         0         0        15        15         0         0         0
        15        15         0         0         0        15        15         0
         0         0        15        15         0         0         0        15
        15         0         0         0        15        15         0         0
         0        15        15         0         0         0        15        15
         0         0         0        15        15         0         0         0
        15        15         0         0         0        15        15         0
         0         0        15        15         0         0         0        15
        15         0         0         0        15        15         0         0
         0        15        15         0         0         0        15        15
         0         0         0        15        15         0         0         0
        15        15         0         0         0        15        15         0
         0         0        15        15         0         0         0        15
        15         0         0         0        15        15         0         0
         0        15        15         0         0         0        15        15
         0         0         0        15        15         0         0         0
        15        15         0         0         0        15        15         0
         0         0        15        15         0         0         0        15
        15         0         0         0        15        15         0         0
         0        15        15         0         0         0        15        15
         0         0         0        15        15         0         0         0
        15        15         0         0         0        15        15         0
         0         0        15        15         0         0         0        15
        15         0         0         0        15        15         0         0
         0        15        15         0         0         0        15        15
         0         0         0        15        15         0         0         0
        15        15         0         0         0        15        15         0
         0         0        15        15         0         0         0        15
        15         0         0         0        15        15         0         0
         0        15        15         0         0         0        15        15
         0         0         0        15        15         0         0         0
        15        15         0         0         0        15        15         0
         0         0        15        15         0         0         0        15
        15         0         0         0        15        15         0         0
         0        15        15         0         0         0        15        15
         0         0         0        15        15         0         0         0
        15        15         0         0         0        15        15         0
         0         0        15        15         0         0         0        15
        15         0         0         0        15        15         0         0
         0        15        15         0         0         0        15        15
         0         0         0        15        15         0         0         0
        15        15         0         0         0        15        15         0
         0         0        15        15         0         0         0        15
        15         0         0         0        15        15         0         0
         0        15        15         0         0         0        15        15
         0         0         0        15        15         0         0         0
        15        15         0         0         0        15        15         0
         0         0        15        15         0         0         0        15
        15         0         0         0        15        15         0         0
         0        15        15         0         0         0        15        15
         0         0         0        15        15         0         0         0
        15        15         0         0         0        15        15         0
         0         0        15        15         0         0         0        15
        15         0         0         0        15        15         0         0
         0        15        15         0         0         0        15        15
         0         0         0        15        15         0         0         0
        15        15         0         0         0        15        15         0
         0         0        15        15         0         0         0        15
        15         0         0         0        15        15         0         0
         0        15        15         0         0         0        15        15
         0         0         0        15        15         0         0         0
        15        15         0         0         0        15        15         0
         0         0        15        15         0         0         0        15
        15         0         0         0        15        15         0         0
         0        15        15         0         0         0        15        15
         0         0         0        15        15         0         0         0
        15        15         0         0         0        15        15         0
         0         0        15        15         0         0         0        15
        15         0         0         0        15        15         0         0
         0        15        15         0         0         0        15        15
         0         0         0        15        15         0         0         0
        15        15         0         0         0        15        15         0
         0         0        15        15         0         0         0        15
        15         0         0         0        15        15         0         0
         0        15        15         0         0         0        15        15
         0         0         0        15        15         0         0         0
        15        15         0         0         0        15        15         0
         0         0        15        15         0         0         0        15
        15         0         0         0        15        15         0         0
         0        15        15         0         0         0        15        15
         0         0         0        15        15         0         0         0
        15        15         0         0         0        15        15         0
         0         0        15        15         0         0         0        15
        15         0         0         0        15        15         0         0
         0        15        15         0         0         0        15        15
         0         0         0        15        15         0         0         0
        15        15         0         0         0        15        15         0
         0         0        15        15         0         0         0        15
        15         0         0         0        15        15         0         0
         0        15        15         0         0         0        15        15
         0         0         0        15        15         0         0         0
        15        15         0         0         0        15        15         0
         0         0        15        15         0         0         0        15
        15         0         0         0        15        15         0         0
         0        15        15         0         0         0        15        15
         0         0         0        15        15         0         0         0
        15        15         0         0         0        15        15         0
         0         0        15        15         0         0         0        15
        15         0         0         0        15        15         0         0
         0        15        15         0         0         0        15        15
         0         0         0        15        15         0         0         0
        15        15         0         0         0        15        15         0
         0         0        15        15         0         0         0        15
        15         0         0         0        15        15         0         0
         0        15        15         0         0         0        15        15
         0         0         0        15        15         0         0         0
        15        15         0         0         0        15        15         0
         0         0        15        15         0         0         0        15
        15         0         0         0        15        15         0         0
         0        15        15         0         0         0        15        15
         0         0         0        15        15         0         0         0
        15        15         0         0         0        15        15         0
         0         0        15        15         0         0         0        15
        15         0         0         0        15        15         0         0
         0        15        15         0         0         0        15        15
         0         0         0        15        15         0         0         0
        15        15         0         0         0        15        15         0
         0         0        15        15         0         0         0        15
        15         0         0         0        15        15         0         0
         0        15        15         0         0         0        15        15
         0         0         0        15        15         0         0         0
        15        15         0         0         0        15        15         0
         0         0        15        15         0         0         0        15
        15         0         0         0        15        15         0         0
         0        15        15         0         0         0        15        15
         0         0         0        15        15         0         0         0
        15        15         0         0         0        15        15         0
         0         0        15        15         0         0         0        15
        15         0         0         0        15        15         0         0
         0        15        15         0         0         0        15        15
         0         0         0        15        15         0         0         0
        15        15         0         0         0        15        15         0
         0         0        15        15         0         0         0        15
        15         0         0         0        15        15         0         0
         0        15        15         0         0         0        15        15
         0         0         0        15        15         0         0         0
        15        15         0         0         0        15        15         0
         0         0        15        15         0         0         0        15
        15         0         0         0        15        15         0         0
         0        15        15         0         0         0        15        15
         0         0         0        15        15         0         0         0
        15        15         0         0         0        15        15         0
         0         0        15        15         0         0         0        15
        15         0         0         0        15        15         0         0
         0        15        15         0         0         0        15        15
         0         0         0        15        15         0         0         0
        15        15         0         0         0        15        15         0
         0         0        15        15         0         0         0        15
        15         0         0         0        15        15         0         0
         0        15        15         0         0         0        15        15
         0         0         0        15        15         0         0         0
        15        15         0         0         0        15        15         0
         0         0        15        15         0         0         0        15
        15         0         0         0        15        15         0         0
         0        15        15         0         0         0        15        15
         0         0         0        15        15         0         0         0
        15        15         0         0         0        15        15         0
         0         0        15        15         0         0         0        15
        15         0         0         0        15        15         0         0
         0        15        15         0         0         0        15        15
         0         0         0        15        15         0         0         0
        15        15         0         0         0        15        15         0
         0         0        15        15         0         0         0        15
        15         0         0         0        15        15         0         0
         0        15        15         0         0         0        15        15
         0         0         0        15        15         0         0         0
        15        15         0         0         0        15        15         0
         0         0        15        15         0         0         0        15
        15         0         0         0        15        15         0         0
         0        15        15         0         0         0        15        15
         0         0         0        15        15         0         0         0
        15        15         0         0         0        15        15         0
         0         0        15        15         0         0         0        15
        15         0         0         0        15        15         0         0
         0        15        15         0         0         0        15        15
         0         0         0        15        15         0         0         0
        15        15         0         0         0        15        15         0
         0         0        15        15         0         0         0        15
        15         0         0         0        15        15         0         0
         0        15        15         0         0         0        15        15
         0         0         0        15        15         0         0         0
        15        15         0         0         0        15        15         0
         0         0        15        15         0         0         0        15
        15         0         0         0        15        15         0         0
         0        15        15         0         0         0        15        15
         0         0         0        15        15         0         0         0
        15        15         0         0         0        15        15         0
         0         0        15        15         0         0         0        15
        15         0         0         0        15        15         0         0
         0        15        15         0         0         0        15        15
         0         0         0        15        15         0         0         0
        15        15         0         0         0        15        15         0
         0         0        15        15         0         0         0        15
        15         0         0         0        15        15         0         0
         0        15        15         0         0         0        15        15
         0         0         0        15        15         0         0         0
        15        15         0         0         0        15        15         0
         0         0        15        15         0         0         0        15
        15         0         0         0        15        15         0         0
         0        15        15         0         0         0        15        15
         0         0         0        15        15         0         0         0
        15        15         0         0         0        15        15         0
         0         0        15        15         0         0         0        15
        15         0         0         0        15        15         0         0
         0        15        15         0         0         0        15        15
         0         0         0        15        15         0         0         0
        15        15         0         0         0        15        15         0
         0         0        15        15         0         0         0        15
        15         0         0         0        15        15         0         0
         0        15        15         0         0         0        15        15
         0         0         0        15        15         0         0         0
        15        15         0         0         0        15        15         0
         0         0        15        15         0         0         0        15
        15         0         0         0        15        15         0         0
         0        15        15         0         0         0        15        15
         0         0         0        15        15         0         0         0
        15        15         0         0         0        15        15         0
         0         0        15        15         0         0         0        15
        15         0         0         0        15        15         0         0
         0        15        15         0         0         0        15        15
         0         0         0        15        15         0         0         0
        15        15         0         0         0        15        15         0
         0         0        15        15         0         0         0        15
        15         0         0         0        15        15         0         0
         0        15        15         0         0         0        15        15
         0         0         0        15        15         0         0         0
        15        15         0         0         0        15        15         0
         0         0        15        15         0         0         0        15
        15         0         0         0        15        15         0         0
         0        15        15         0         0         0        15        15
         0         0         0        15        15         0         0         0
        15        15         0         0         0        15        15         0
         0         0        15        15         0         0         0        15
        15         0         0         0        15        15         0         0
         0        15        15         0         0         0        15        15
         0         0         0        15        15         0         0         0
        15        15         0         0         0        15        15         0
         0         0        15        15         0         0         0        15
        15         0         0         0        15        15         0         0
         0        15        15         0         0         0        15        15
         0         0         0        15        15         0         0         0
        15        15         0         0         0        15        15         0
         0         0        15        15         0         0         0        15
        15         0         0         0        15        15         0         0
         0        15        15         0         0         0        15        15
         0         0         0        15        15         0         0         0
        15        15         0         0         0        15        15         0
         0         0        15        15         0         0         0        15
        15         0         0         0        15        15         0         0
         0        15        15         0         0         0        15        15
         0         0         0        15        15         0         0         0
        15        15         0         0         0        15        15         0
         0         0        15        15         0         0         0        15
        15         0         0         0        15        15         0         0
         0        15        15         0         0         0        15        15
         0         0         0        15        15         0         0         0
        15        15         0         0         0        15        15         0
         0         0        15        15         0         0         0        15
        15         0         0         0        15        15         0         0
         0        15        15         0         0         0        15        15
         0         0         0        15        15         0         0         0
        15        15         0         0         0        15        15         0
         0         0        15        15         0         0         0        15
        15         0         0         0        15        15         0         0
         0        15        15         0         0         0        15        15
         0         0         0        15        15         0         0         0
        15        15         0         0         0        15        15         0
         0         0        15        15         0         0         0        15
        15         0         0         0        15        15         0         0
         0        15        15         0         0         0        15        15
         0         0         0        15        15         0         0         0
        15        15         0         0         0        15        15         0
         0         0        15        15         0         0         0        15
        15         0         0         0        15        15         0         0
         0        15        15         0         0         0        15        15
         0         0         0        15        15         0         0         0
        15        15         0         0         0        15        15         0
         0         0        15        15         0         0         0        15
        15         0         0         0        15        15         0         0
         0        15        15         0         0         0        15        15
         0         0         0        15        15         0         0         0
        15        15         0         0         0        15        15         0
         0         0        15        15         0         0         0        15
        15         0         0         0        15        15         0         0
         0        15        15         0         0         0        15        15
         0         0         0        15        15         0         0         0
        15        15         0         0         0        15        15         0
         0         0        15        15         0         0         0        15
        15         0         0         0        15        15         0         0
         0        15        15         0         0         0        15        15
         0         0         0        15        15         0         0         0
        15        15         0         0         0        15        15         0
         0         0        15        15         0         0         0        15
        15         0         0         0        15        15         0         0
         0        15        15         0         0         0        15        15
         0         0         0        15        15         0         0         0
        15        15         0         0         0        15        15         0
         0         0        15        15         0         0         0        15
        15         0         0         0        15        15         0         0
         0        15        15         0         0         0        15        15
         0         0         0        15        15         0         0         0
        15        15         0         0         0        15        15         0
         0         0        15        15         0         0         0        15
        15         0         0         0        15        15         0         0
         0        15        15         0         0         0        15        15
         0         0         0        15        15         0         0         0
        15        15         0         0         0        15        15         0
         0         0        15        15         0         0         0        15
        15         0         0         0        15        15         0         0
         0        15        15         0         0         0        15        15
         0         0         0        15        15         0         0         0
        15        15         0         0         0        15        15         0
         0         0        15        15         0         0         0        15
        15         0         0         0        15        15         0         0
         0        15        15         0         0         0        15        15
         0         0         0        15        15         0         0         0
        15        15         0         0         0        15        15         0
         0         0        15        15         0         0         0        15
        15         0         0         0        15        15         0         0
         0        15        15         0         0         0        15        15
         0         0         0        15        15         0         0         0
        15        15         0         0         0        15        15         0
         0         0        15        15         0         0         0        15
        15         0         0         0        15        15         0         0
         0        15        15         0         0         0        15        15
         0         0         0        15        15         0         0         0
        15        15         0         0         0        15        15         0
         0         0        15        15         0         0         0        15
        15         0         0         0        15        15         0         0
         0        15        15         0         0         0        15        15
         0         0         0        15        15         0         0         0
        15        15         0         0         0        15        15         0
         0         0        15        15         0         0         0        15
        15         0         0         0        15        15         0         0
         0        15        15         0         0         0        15        15
         0         0         0        15        15         0         0         0
        15        15         0         0         0        15        15         0
         0         0        15        15         0         0         0        15
        15         0         0         0        15        15         0         0
         0        15        15         0         0         0        15        15
         0         0         0        15        15         0         0         0
        15        15         0         0         0        15        15         0
         0         0        15        15         0         0         0        15
        15         0         0         0        15        15         0         0
         0        15        15         0         0         0        15        15
         0         0         0        15        15         0         0         0
        15        15         0         0         0        15        15         0
         0         0        15        15         0         0         0        15
        15         0         0         0        15        15         0         0
         0        15        15         0         0         0        15        15
         0         0         0        15        15         0         0         0
        15        15         0         0         0        15        15         0
         0         0        15        15         0         0         0        15
        15         0         0         0        15        15         0         0
         0        15        15         0         0         0        15        15
         0         0         0        15        15         0         0         0
        15        15         0         0         0        15        15         0
         0         0        15        15         0         0         0        15
        15         0         0         0        15        15         0         0
         0        15        15         0         0         0        15        15
         0         0         0        15        15         0         0         0
        15        15         0         0         0        15        15         0
         0         0        15        15         0         0         0        15
        15         0         0         0        15        15         0         0
         0        15        15         0         0         0        15        15
         0         0         0        15        15         0         0         0
        15        15         0         0         0        15        15         0
         0         0        15        15         0         0         0        15
        15         0         0         0        15        15         0         0
         0        15        15         0         0         0        15        15
         0         0         0        15        15         0         0         0
        15        15         0         0         0        15        15         0
         0         0        15        15         0         0         0        15
        15         0         0         0        15        15         0         0
         0        15        15         0         0         0        15        15
         0         0         0        15        15         0         0         0
        15        15         0         0         0        15        15         0
         0         0        15        15         0         0         0        15
        15         0         0         0        15        15         0         0
         0        15        15         0         0         0        15        15
         0         0         0        15        15         0         0         0
        15        15         0         0         0        15        15         0
         0         0        15        15         0         0         0        15
        15         0         0         0        15        15         0         0
         0        15        15         0         0         0        15        15
         0         0         0        15        15         0         0         0
        15        15         0         0         0        15        15         0
         0         0        15        15         0         0         0        15
        15         0         0         0        15        15         0         0
         0        15        15         0         0         0        15        15
         0         0         0        15        15         0         0         0
        15        15         0         0         0        15        15         0
         0         0        15        15         0         0         0        15
        15         0         0         0        15        15         0         0
         0        15        15         0         0         0        15        15
         0         0         0        15        15         0         0         0
        15        15         0         0         0        15        15         0
         0         0        15        15         0         0         0        15
        15         0         0         0        15        15         0         0
         0        15        15         0         0         0        15        15
         0         0         0        15        15         0         0         0
        15        15         0         0         0        15        15         0
         0         0        15        15         0         0         0        15
        15         0         0         0        15        15         0         0
         0        15        15         0         0         0        15        15
         0         0         0        15        15         0         0         0
        15        15         0         0         0        15        15         0
         0         0        15        15         0         0         0        15
        15         0         0         0        15        15         0         0
         0        15        15         0         0         0        15        15
         0         0         0        15        15         0         0         0
        15        15         0         0         0        15        15         0
         0         0        15        15         0         0         0        15
        15         0         0         0        15        15         0         0
         0        15        15         0         0         0        15        15
         0         0         0        15        15         0         0         0
        15        15         0         0         0        15        15         0
         0         0        15        15         0         0         0        15
        15         0         0         0        15        15         0         0
         0        15        15         0         0         0        15        15
         0         0         0        15        15         0         0         0
        15        15         0         0         0        15        15         0
         0         0        15        15         0         0         0        15
        15         0         0         0        15        15         0         0
         0        15        15         0         0         0        15        15
         0         0         0        15        15         0         0         0
        15        15         0         0         0        15        15         0
         0         0        15        15         0         0         0        15
        15         0         0         0        15        15         0         0
         0        15        15         0         0         0        15        15
         0         0         0        15        15         0         0         0
        15        15         0         0         0        15        15         0
         0         0        15        15         0         0         0        15
        15         0         0         0        15        15         0         0
         0        15        15         0         0         0        15        15
         0         0         0        15        15         0         0         0
        15        15         0         0         0        15        15         0
         0         0        15        15         0         0         0        15
        15         0         0         0        15        15         0         0
         0        15        15         0         0         0        15        15
         0         0         0        15        15         0         0         0
        15        15         0         0         0        15        15         0
         0         0        15        15         0         0         0        15
        15         0         0         0        15        15         0         0
         0        15        15         0         0         0        15        15
         0         0         0        15        15         0         0         0
        15        15         0         0         0        15        15         0
         0         0        15        15         0         0         0        15
        15         0         0         0        15        15         0         0
         0        15        15         0         0         0        15        15
         0         0         0        15        15         0         0         0
        15        15         0         0         0        15        15         0
         0         0        15        15         0         0         0        15
        15         0         0         0        15        15         0         0
         0        15        15         0         0         0        15        15
         0         0         0        15        15         0         0         0
        15        15         0         0         0        15        15         0
         0         0        15        15         0         0         0        15
        15         0         0         0        15        15         0         0
         0        15        15         0         0         0        15        15
         0         0         0        15        15         0         0         0
        15        15         0         0         0        15        15         0
         0         0        15        15         0         0         0        15
        15         0         0         0        15        15         0         0
         0        15        15         0         0         0        15        15
         0         0         0        15        15         0         0         0
        15        15         0         0         0        15        15         0
         0         0        15        15         0         0         0        15
        15         0         0         0        15        15         0         0
         0        15        15         0         0         0        15        15
         0         0         0        15        15         0         0         0
        15        15         0         0         0        15        15         0
         0         0        15        15         0         0         0        15
        15         0         0         0        15        15         0         0
         0        15        15         0         0         0        15        15
         0         0         0        15        15         0         0         0
        15        15         0         0         0        15        15         0
         0         0        15        15         0         0         0        15
        15         0         0         0        15        15         0         0
         0        15        15         0         0         0        15        15
         0         0         0        15        15         0         0         0
        15        15         0         0         0        15        15         0
         0         0        15        15         0         0         0        15
        15         0         0         0        15        15         0         0
         0        15        15         0         0         0        15        15
         0         0         0        15        15         0         0         0
        15        15         0         0         0        15        15         0
         0         0        15        15         0         0         0        15
        15         0         0         0        15        15         0         0
         0        15        15         0         0         0        15        15
         0         0         0        15        15         0         0         0
        15        15         0         0         0        15        15         0
         0         0        15        15         0         0         0        15
        15         0         0         0        15        15         0         0
         0        15        15         0         0         0        15        15
         0         0         0        15        15         0         0         0
        15        15         0         0         0        15        15         0
         0         0        15        15         0         0         0        15
        15         0         0         0        15        15         0         0
         0        15        15         0         0         0        15        15
         0         0         0        15        15         0         0         0
        15        15         0         0         0        15        15         0
         0         0        15        15         0         0         0        15
        15         0         0         0        15        15         0         0
         0        15        15         0         0         0        15        15
         0         0         0        15        15         0         0         0
        15        15         0         0         0        15        15         0
         0         0        15        15         0         0         0        15
        15         0         0         0        15        15         0         0
         0        15        15         0         0         0        15        15
         0         0         0        15        15         0         0         0
        15        15         0         0         0        15        15         0
         0         0        15        15         0         0         0        15
        15         0         0         0        15        15         0         0
         0        15        15         0         0         0        15        15
         0         0         0        15        15         0         0         0
        15        15         0         0         0        15        15         0
         0         0        15        15         0         0         0        15
        15         0         0         0        15        15         0         0
         0        15        15         0         0         0        15        15
         0         0         0        15        15         0         0         0
        15        15         0         0         0        15        15         0
         0         0        15        15         0         0         0        15
        15         0         0         0        15        15         0         0
         0        15        15         0         0         0        15        15
         0         0         0        15        15         0         0         0
        15        15         0         0         0        15        15         0
         0         0        15        15         0         0         0        15
        15         0         0         0        15        15         0         0
         0        15        15         0         0         0        15        15
         0         0         0        15        15         0         0         0
        15        15         0         0         0        15        15         0
         0         0        15        15         0         0         0        15
        15         0         0         0        15        15         0         0
         0        15        15         0         0         0        15        15
         0         0         0        15        15         0         0         0
        15        15         0         0         0        15        15         0
         0         0        15        15         0         0         0        15
        15         0         0         0        15        15         0         0
         0        15        15         0         0         0        15        15
         0         0         0        15        15         0         0         0
        15        15         0         0         0        15        15         0
         0         0        15        15         0         0         0        15
        15         0         0         0        15        15         0         0
         0        15        15         0         0         0        15        15
         0         0         0        15        15         0         0         0
        15        15         0         0         0        15        15         0
         0         0        15        15         0         0         0        15
        15         0         0         0        15        15         0         0
         0        15        15         0         0         0        15        15
         0         0         0        15        15         0         0         0
        15        15         0         0         0        15        15         0
         0         0        15        15         0         0         0        15
        15         0         0         0        15        15         0         0
         0        15        15         0         0         0        15        15
         0         0         0        15        15         0         0         0
        15        15         0         0         0        15        15         0
         0         0        15        15         0         0         0        15
        15         0         0         0        15        15         0         0
         0        15        15         0         0         0        15        15
         0         0         0        15        15         0         0         0
        15        15         0         0         0        15        15         0
         0         0        15        15         0         0         0        15
        15         0         0         0        15        15         0         0
         0        15        15         0         0         0        15        15
         0         0         0        15        15         0         0         0
        15        15         0         0         0        15        15         0
         0         0        15        15         0         0         0        15
        15         0         0         0        15        15         0         0
         0        15        15         0         0         0        15        15
         0         0         0        15        15         0         0         0
        15        15         0         0         0        15        15         0
         0         0        15        15         0         0         0        15
        15         0         0         0        15        15         0         0
         0        15        15         0         0         0        15        15
         0         0         0        15        15         0         0         0
        15        15         0         0         0        15        15         0
         0         0        15        15         0         0         0        15
        15         0         0         0        15        15         0         0
         0        15        15         0         0         0        15        15
         0         0         0        15        15         0         0         0
        15        15         0         0         0        15        15         0
         0         0        15        15         0         0         0        15
        15         0         0         0        15        15         0         0
         0        15        15         0         0         0        15        15
         0         0         0        15        15         0         0         0
        15        15         0         0         0        15        15         0
         0         0        15        15         0         0         0        15
        15         0         0         0        15        15         0         0
         0        15        15         0         0         0        15        15
         0         0         0        15        15         0         0         0
        15        15         0         0         0        15        15         0
         0         0        15        15         0         0         0        15
        15         0         0         0        15        15         0         0
         0        15        15         0         0         0        15        15
         0         0         0        15        15         0         0         0
        15        15         0         0         0        15        15         0
         0         0        15        15         0         0         0        15
        15         0         0         0        15        15         0         0
         0        15        15         0         0         0        15        15
         0         0         0        15        15         0         0         0
        15        15         0         0         0        15        15         0
         0         0        15        15         0         0         0        15
        15         0         0         0        15        15         0         0
         0        15        15         0         0         0        15        15
         0         0         0        15        15         0         0         0
        15        15         0         0         0        15        15         0
         0         0        15        15         0         0         0        15
        15         0         0         0        15        15         0         0
         0        15        15         0         0         0        15        15
         0         0         0        15        15         0         0         0
        15        15         0         0         0        15        15         0
         0         0        15        15         0         0         0        15
        15         0         0         0        15        15         0         0
         0        15        15         0         0         0        15        15
         0         0         0        15        15         0         0         0
        15        15         0         0         0        15        15         0
         0         0        15        15         0         0         0        15
        15         0         0         0        15        15         0         0
         0        15        15         0         0         0        15        15
         0         0         0        15        15         0         0         0
        15        15         0         0         0        15        15         0
         0         0        15        15         0         0         0        15
        15         0         0         0        15        15         0         0
         0        15        15         0         0         0        15        15
         0         0         0        15        15         0         0         0
        15        15         0         0         0        15        15         0
         0         0        15        15         0         0         0        15
        15         0         0         0        15        15         0         0
         0        15        15         0         0         0        15        15
         0         0         0        15        15         0         0         0
        15        15         0         0         0        15        15         0
         0         0        15        15         0         0         0        15
        15         0         0         0        15        15         0         0
         0        15        15         0         0         0        15        15
         0         0         0        15        15         0         0         0
        15        15         0         0         0        15        15         0
         0         0        15        15         0         0         0        15
        15         0         0         0        15        15         0         0
         0        15        15         0         0         0        15        15
         0         0         0        15        15         0         0         0
        15        15         0         0         0        15        15         0
         0         0        15        15         0         0         0        15
        15         0         0         0        15        15         0         0
         0        15        15         0         0         0        15        15
         0         0         0        15        15         0         0         0
        15        15         0         0         0        15        15         0
         0         0        15        15         0         0         0        15
        15         0         0         0        15        15         0         0
         0        15        15         0         0         0        15        15
         0         0         0        15        15         0         0         0
        15        15         0         0         0        15        15         0
         0         0        15        15         0         0         0        15
        15         0         0         0        15        15         0         0
         0        15        15         0         0         0        15        15
         0         0         0        15        15         0         0         0
        15        15         0         0         0        15        15         0
         0         0        15        15         0         0         0        15
        15         0         0         0        15        15         0         0
         0        15        15         0         0         0        15        15
         0         0         0        15        15         0         0         0
        15        15         0         0         0        15        15         0
         0         0        15        15         0         0         0        15
        15         0         0         0        15        15         0         0
         0        15        15         0         0         0        15        15
         0         0         0        15        15         0         0         0
        15        15         0         0         0        15        15         0
         0         0        15        15         0         0         0        15
        15         0         0         0        15        15         0         0
         0        15        15         0         0         0        15        15
         0         0         0        15        15         0         0         0
        15        15         0         0         0        15        15         0
         0         0        15        15         0         0         0        15
        15         0         0         0        15        15         0         0
         0        15        15         0         0         0        15        15
         0         0         0        15        15         0         0         0
        15        15         0         0         0        15        15         0
         0         0        15        15         0         0         0        15
        15         0         0         0        15        15         0         0
         0        15        15         0         0         0        15        15
         0         0         0        15        15         0         0         0
        15        15         0         0         0        15        15         0
         0         0        15        15         0         0         0        15
        15         0         0         0        15        15         0         0
         0        15        15         0         0         0        15        15
         0         0         0        15        15         0         0         0
        15        15         0         0         0        15        15         0
         0         0        15        15         0         0         0        15
        15         0         0         0        15        15         0         0
         0        15        15         0         0         0        15        15
         0         0         0        15        15         0         0         0
        15        15         0         0         0        15        15         0
         0         0        15        15         0         0         0        15
        15         0         0         0        15        15         0         0
         0        15        15         0         0         0        15        15
         0         0         0        15        15         0         0         0
        15        15         0         0         0        15        15         0
         0         0        15        15         0         0         0        15
        15         0         0         0        15        15         0         0
         0        15        15         0         0         0        15        15
         0         0         0        15        15         0         0         0
        15        15         0         0         0        15        15         0
         0         0        15        15         0         0         0        15
        15         0         0         0        15        15         0         0
         0        15        15         0         0         0        15        15
         0         0         0        15        15         0         0         0
        15        15         0         0         0        15        15         0
         0         0        15        15         0         0         0        15
        15         0         0         0        15        15         0         0
         0        15        15         0         0         0        15        15
         0         0         0        15        15         0         0         0
        15        15         0         0         0        15        15         0
         0         0        15        15         0         0         0        15
        15         0         0         0        15        15         0         0
         0        15        15         0         0         0        15        15
         0         0         0        15        15         0         0         0
        15        15         0         0         0        15        15         0
         0         0        15        15         0         0         0        15
        15         0         0         0        15        15         0         0
         0        15        15         0         0         0        15        15
         0         0         0        15        15         0         0         0
        15        15         0         0         0        15        15         0
         0         0        15        15         0         0         0        15
        15         0         0         0        15        15         0         0
         0        15        15         0         0         0        15        15
         0         0         0        15        15         0         0         0
        15        15         0         0         0        15        15         0
         0         0        15        15         0         0         0        15
        15         0         0         0        15        15         0         0
         0        15        15         0         0         0        15        15
         0         0         0        15        15         0         0         0
        15        15         0         0         0        15        15         0
         0         0        15        15         0         0         0        15
        15         0         0         0        15        15         0         0
         0        15        15         0         0         0        15        15
         0         0         0        15        15         0         0         0
        15        15         0         0         0        15        15         0
         0         0        15        15         0         0         0        15
        15         0         0         0        15        15         0         0
         0        15        15         0         0         0        15        15
         0         0         0        15        15         0         0         0
        15        15         0         0         0        15        15         0
         0         0        15        15         0         0         0        15
        15         0         0         0        15        15         0         0
         0        15        15         0         0         0        15        15
         0         0         0        15        15         0         0         0
        15        15         0         0         0        15        15         0
         0         0        15        15         0         0         0        15
        15         0         0         0        15        15         0         0
         0        15        15         0         0         0        15        15
         0         0         0        15        15         0         0         0
        15        15         0         0         0        15        15         0
         0         0        15        15         0         0         0        15
        15         0         0         0        15        15         0         0
         0        15        15         0         0         0        15        15
         0         0         0        15        15         0         0         0
        15        15         0         0         0        15        15         0
         0         0        15        15         0         0         0        15
        15         0         0         0        15        15         0         0
         0        15        15         0         0         0        15        15
         0         0         0        15        15         0         0         0
        15        15         0         0         0        15        15         0
         0         0        15        15         0         0         0        15
        15         0         0         0        15        15         0         0
         0        15        15         0         0         0        15        15
         0         0         0        15        15         0         0         0
        15        15         0         0         0        15        15         0
         0         0        15        15         0         0         0        15
        15         0         0         0        15        15         0         0
         0        15        15         0         0         0        15        15
         0         0         0        15        15         0         0         0
        15        15         0         0         0        15        15         0
         0         0        15        15         0         0         0        15
        15         0         0         0        15        15         0         0
         0        15        15         0         0         0        15        15
         0         0         0        15        15         0         0         0
        15        15         0         0         0        15        15         0
         0         0        15        15         0         0         0        15
        15         0         0         0        15        15         0         0
         0        15        15         0         0         0        15        15
         0         0         0        15        15         0         0         0
        15        15         0         0         0        15        15         0
         0         0        15        15         0         0         0        15
        15         0         0         0        15        15         0         0
         0        15        15         0         0         0        15        15
         0         0         0        15        15         0         0         0
        15        15         0         0         0        15        15         0
         0         0        15        15         0         0         0        15
        15         0         0         0        15        15         0         0
         0        15        15         0         0         0        15        15
         0         0         0        15        15         0         0         0
        15        15         0         0         0        15        15         0
         0         0        15        15         0         0         0        15
        15         0         0         0        15        15         0         0
         0        15        15         0         0         0        15        15
         0         0         0        15        15         0         0         0
        15        15         0         0         0        15        15         0
         0         0        15        15         0         0         0        15
        15         0         0         0        15        15         0         0
         0        15        15         0         0         0        15        15
         0         0         0        15        15         0         0         0
        15        15         0         0         0        15        15         0
         0         0        15        15         0         0         0        15
        15         0         0         0        15        15         0         0
         0        15        15         0         0         0        15        15
         0         0         0        15        15         0         0         0
        15        15         0         0         0        15        15         0
         0         0        15        15         0         0         0        15
        15         0         0         0        15        15         0         0
         0        15        15         0         0         0        15        15
         0         0         0        15        15         0         0         0
        15        15         0         0         0        15        15         0
         0         0        15        15         0         0         0        15
        15         0         0         0        15        15         0         0
         0        15        15         0         0         0        15        15
         0         0         0        15        15         0         0         0
        15        15         0         0         0        15        15         0
         0         0        15        15         0         0         0        15
        15         0         0         0        15        15         0         0
         0        15        15         0         0         0        15        15
         0         0         0        15        15         0         0         0
        15        15         0         0         0        15        15         0
         0         0        15        15         0         0         0        15
        15         0         0         0        15        15         0         0
         0        15        15         0         0         0        15        15
         0         0         0        15        15         0         0         0
        15        15         0         0         0        15        15         0
         0         0        15        15         0         0         0        15
        15         0         0         0        15        15         0         0
         0        15        15         0         0         0        15        15
         0         0         0        15        15         0         0         0
        15        15         0         0         0        15        15         0
         0         0        15        15         0         0         0        15
        15         0         0         0        15        15         0         0
         0        15        15         0         0         0        15        15
         0         0         0        15        15         0         0         0
        15        15         0         0         0        15        15         0
         0         0        15        15         0         0         0        15
        15         0         0         0        15        15         0         0
         0        15        15         0         0         0        15        15
         0         0         0        15        15         0         0         0
        15        15         0         0         0        15        15         0
         0         0        15        15         0         0         0        15
        15         0         0         0        15        15         0         0
         0        15        15         0         0         0        15        15
         0         0         0        15        15         0         0         0
        15        15         0         0         0        15        15         0
         0         0        15        15         0         0         0        15
        15         0         0         0        15        15         0         0
         0        15        15         0         0         0        15        15
         0         0         0        15        15         0         0         0
        15        15         0         0         0        15        15         0
         0         0        15        15         0         0         0        15
        15         0         0         0        15        15         0         0
         0        15        15         0         0         0        15        15
         0         0         0        15        15         0         0         0
        15        15         0         0         0        15        15         0
         0         0        15        15         0         0         0        15
        15         0         0         0        15        15         0         0
         0        15        15         0         0         0        15        15
         0         0         0        15        15         0         0         0
        15        15         0         0         0        15        15         0
         0         0        15        15         0         0         0        15
        15         0         0         0        15        15         0         0
         0        15        15         0         0         0        15        15
         0         0         0        15        15         0         0         0
        15        15         0         0         0        15        15         0
         0         0        15        15         0         0         0        15
        15         0         0         0        15        15         0         0
         0        15        15         0         0         0        15        15
         0         0         0        15        15         0         0         0
        15        15         0         0         0        15        15         0
         0         0        15        15         0         0         0        15
        15         0         0         0        15        15         0         0
         0        15        15         0         0         0        15        15
         0         0         0        15        15         0         0         0
        15        15         0         0         0        15        15         0
         0         0        15        15         0         0         0        15
        15         0         0         0        15        15         0         0
         0        15        15         0         0         0        15        15
         0         0         0        15        15         0         0         0
        15        15         0         0         0        15        15         0
         0         0        15        15         0         0         0        15
        15         0         0         0        15        15         0         0
         0        15        15         0         0         0        15        15
         0         0         0        15        15         0         0         0
        15        15         0         0         0        15        15         0
         0         0        15        15         0         0         0        15
        15         0         0         0        15        15         0         0
         0        15        15         0         0         0        15        15
         0         0         0        15        15         0         0         0
        15        15         0         0         0        15        15         0
         0         0        15        15         0         0         0        15
        15         0         0         0        15        15         0         0
         0        15        15         0         0         0        15        15
         0         0         0        15        15         0         0         0
        15        15         0         0         0        15        15         0
         0         0        15        15         0         0         0        15
        15         0         0         0        15        15         0         0
         0        15        15         0         0         0        15        15
         0         0         0        15        15         0         0         0
        15        15         0         0         0        15        15         0
         0         0        15        15         0         0         0        15
        15         0         0         0        15        15         0         0
         0        15        15         0         0         0        15        15
         0         0         0        15        15         0         0         0
        15        15         0         0         0        15        15         0
         0         0        15        15         0         0         0        15
        15         0         0         0        15        15         0         0
         0        15        15         0         0         0        15        15
         0         0         0        15        15         0         0         0
        15        15         0         0         0        15        15         0
         0         0        15        15         0         0         0        15
        15         0         0         0        15        15         0         0
         0        15        15         0         0         0        15        15
         0         0         0        15        15         0         0         0
        15        15         0         0         0        15        15         0
         0         0        15        15         0         0         0        15
        15         0         0         0        15        15         0         0
         0        15        15         0         0         0        15        15
         0         0         0        15        15         0         0         0
        15        15         0         0         0        15        15         0
         0         0        15        15         0         0         0        15
        15         0         0         0        15        15         0         0
         0        15        15         0         0         0        15        15
         0         0         0        15        15         0         0         0
        15        15         0         0         0        15        15         0
         0         0        15        15         0         0         0        15
        15         0         0         0        15        15         0         0
         0        15        15         0         0         0        15        15
         0         0         0        15        15         0         0         0
        15        15         0         0         0        15        15         0
         0         0        15        15         0         0         0        15
        15         0         0         0        15        15         0         0
         0        15        15         0         0         0        15        15
         0         0         0        15        15         0         0         0
        15        15         0         0         0        15        15         0
         0         0        15        15         0         0         0        15
        15         0         0         0        15        15         0         0
         0        15        15         0         0         0        15        15
         0         0         0        15        15         0         0         0
        15        15         0         0         0        15        15         0
         0         0        15        15         0         0         0        15
        15         0         0         0        15        15         0         0
         0        15        15         0         0         0        15        15
         0         0         0        15        15         0         0         0
        15        15         0         0         0        15        15         0
         0         0        15        15         0         0         0        15
        15         0         0         0        15        15         0         0
         0        15        15         0         0         0        15        15
         0         0         0        15        15         0         0         0
        15        15         0         0         0        15        15         0
         0         0        15        15         0         0         0        15
        15         0         0         0        15        15         0         0
         0        15        15         0         0         0        15        15
         0         0         0        15        15         0         0         0
        15        15         0         0         0        15        15         0
         0         0        15        15         0         0         0        15
        15         0         0         0        15        15         0         0
         0        15        15         0         0         0        15        15
         0         0         0        15        15         0         0         0
        15        15         0         0         0        15        15         0
         0         0        15        15         0         0         0        15
        15         0         0         0        15        15         0         0
         0        15        15         0         0         0        15        15
         0         0         0        15        15         0         0         0
        15        15         0         0         0        15        15         0
         0         0        15        15         0         0         0        15
        15         0         0         0        15        15         0         0
         0        15        15         0         0         0        15        15
         0         0         0        15        15         0         0         0
        15        15         0         0         0        15        15         0
         0         0        15        15         0         0         0        15
        15         0         0         0        15        15         0         0
         0        15        15         0         0         0        15        15
         0         0         0        15        15         0         0         0
        15        15         0         0         0        15        15         0
         0         0        15        15         0         0         0        15
        15         0         0         0        15        15         0         0
         0        15        15         0         0         0        15        15
         0         0         0        15        15         0         0         0
        15        15         0         0         0        15        15         0
         0         0        15        15         0         0         0        15
        15         0         0         0        15        15         0         0
         0        15        15         0         0         0        15        15
         0         0         0        15        15         0         0         0
        15        15         0         0         0        15        15         0
         0         0        15        15         0         0         0        15
        15         0         0         0        15        15         0         0
         0        15        15         0         0         0        15        15
         0         0         0        15        15         0         0         0
        15        15         0         0         0        15        15         0
         0         0        15        15         0         0         0        15
        15         0         0         0        15        15         0         0
         0        15        15         0         0         0        15        15
         0         0         0        15        15         0         0         0
        15        15         0         0         0        15        15         0
         0         0        15        15         0         0         0        15
        15         0         0         0        15        15         0         0
         0        15        15         0         0         0        15        15
         0         0         0        15        15         0         0         0
        15        15         0         0         0        15        15         0
         0         0        15        15         0         0         0        15
        15         0         0         0        15        15         0         0
         0        15        15         0         0         0        15        15
         0         0         0        15        15         0         0         0
        15        15         0         0         0        15        15         0
         0         0        15        15         0         0         0        15
        15         0         0         0        15        15         0         0
         0        15        15         0         0         0        15        15
         0         0         0        15        15         0         0         0
        15        15         0         0         0        15        15         0
         0         0        15        15         0         0         0        15
        15         0         0         0        15        15         0         0
         0        15        15         0         0         0        15        15
         0         0         0        15        15         0         0         0
        15        15         0         0         0        15        15         0
         0         0        15        15         0         0         0        15
        15         0         0         0        15        15         0         0
         0        15        15         0         0         0        15        15
         0         0         0        15        15         0         0         0
        15        15         0         0         0        15        15         0
         0         0        15        15         0         0         0        15
        15         0         0         0        15        15         0         0
         0        15        15         0         0         0        15        15
         0         0         0        15        15         0         0         0
        15        15         0         0         0        15        15         0
         0         0        15        15         0         0         0        15
        15         0         0         0        15        15         0         0
         0        15        15         0         0         0        15        15
         0         0         0        15        15         0         0         0
        15        15         0         0         0        15        15         0
         0         0        15        15         0         0         0        15
        15         0         0         0        15        15         0         0
         0        15        15         0         0         0        15        15
         0         0         0        15        15         0         0         0
        15        15         0         0         0        15        15         0
         0         0        15        15         0         0         0        15
        15         0         0         0        15        15         0         0
         0        15        15         0         0         0        15        15
         0         0         0        15        15         0         0         0
        15        15         0         0         0        15        15         0
         0         0        15        15         0         0         0        15
        15         0         0         0        15        15         0         0
         0        15        15         0         0         0        15        15
         0         0         0        15        15         0         0         0
        15        15         0         0         0        15        15         0
         0         0        15        15         0         0         0        15
        15         0         0         0        15        15         0         0
         0        15        15         0         0         0        15        15
         0         0         0        15        15         0         0         0
        15        15         0         0         0        15        15         0
         0         0        15        15         0         0         0        15
        15         0         0         0        15        15         0         0
         0        15        15         0         0         0        15        15
         0         0         0        15        15         0         0         0
        15        15         0         0         0        15        15         0
         0         0        15        15         0         0         0        15
        15         0         0         0        15        15         0         0
         0        15        15         0         0         0        15        15
         0         0         0        15        15         0         0         0
        15        15         0         0         0        15        15         0
         0         0        15        15         0         0         0        15
        15         0         0         0        15        15         0         0
         0        15        15         0         0         0        15        15
         0         0         0        15        15         0         0         0
        15        15         0         0         0        15        15         0
         0         0        15        15         0         0         0        15
        15         0         0         0        15        15         0         0
         0        15        15         0         0         0        15        15
         0         0         0        15        15         0         0         0
        15        15         0         0         0        15        15         0
         0         0        15        15         0         0         0        15
        15         0         0         0        15        15         0         0
         0        15        15         0         0         0        15        15
         0         0         0        15        15         0         0         0
        15        15         0         0         0        15        15         0
         0         0        15        15         0         0         0        15
        15         0         0         0        15        15         0         0
         0        15        15         0         0         0        15        15
         0         0         0        15        15         0         0         0
        15        15         0         0         0        15        15         0
         0         0        15        15         0         0         0        15
        15         0         0         0        15        15         0         0
         0        15        15         0         0         0        15        15
         0         0         0        15        15         0         0         0
        15        15         0         0         0        15        15         0
         0         0        15        15         0         0         0        15
        15         0         0         0        15        15         0         0
         0        15        15         0         0         0        15        15
         0         0         0        15        15         0         0         0
        15        15         0         0         0        15        15         0
         0         0        15        15         0         0         0        15
        15         0         0         0        15        15         0         0
         0        15        15         0         0         0        15        15
         0         0         0        15        15         0         0         0
        15        15         0         0         0        15        15         0
         0         0        15        15         0         0         0        15
        15         0         0         0        15        15         0         0
         0        15        15         0         0         0        15        15
         0         0         0        15        15         0         0         0
        15        15         0         0         0        15        15         0
         0         0        15        15         0         0         0        15
        15         0         0         0        15        15         0         0
         0        15        15         0         0         0        15        15
         0         0         0        15        15         0         0         0
        15        15         0         0         0        15        15         0
         0         0        15        15         0         0         0        15
        15         0         0         0        15        15         0         0
         0        15        15         0         0         0        15        15
         0         0         0        15        15         0         0         0
        15        15         0         0         0        15        15         0
         0         0        15        15         0         0         0        15
        15         0         0         0        15        15         0         0
         0        15        15         0         0         0        15        15
         0         0         0        15        15         0         0         0
        15        15         0         0         0        15        15         0
         0         0        15        15         0         0         0        15
        15         0         0         0        15        15         0         0
         0        15        15         0         0         0        15        15
         0         0         0        15        15         0         0         0
        15        15         0         0         0        15        15         0
         0         0        15        15         0         0         0        15
        15         0         0         0        15        15         0         0
         0        15        15         0         0         0        15        15
         0         0         0        15        15         0         0         0
        15        15         0         0         0        15        15         0
         0         0        15        15         0         0         0        15
        15         0         0         0        15        15         0         0
         0        15        15         0         0         0        15        15
         0         0         0        15        15         0         0         0
        15        15         0         0         0        15        15         0
         0         0        15        15         0         0         0        15
        15         0         0         0        15        15         0         0
         0        15        15         0         0         0        15        15
         0         0         0        15        15         0         0         0
        15        15         0         0         0        15        15         0
         0         0        15        15         0         0         0        15
        15         0         0         0        15        15         0         0
         0         0         0         0         0         0         0         0
         0         0         0         0         0         0         0         0
         0         0         0         0         0         0         0         0
         0         0         0         0         0         0         0         0
         0         0         0         0         0         0         0         0
         0         0         0         0         0         0         0         0
         0         0         0         0         0         0         0         0
         0         0         0         0         0         0         0         0
         0         0         0         0         0         0         0         0
         0         0         0         0         0         0         0         0
         0         0         0         0         0         0         0         0
         0         0         0         0         0         0         0         0
         0         0         0         0         0         0         0         0
         0         0         0         0         0         0         0         0
         0         0         0         0         0         0         0         0
         0         0         0         0         0         0         0         0
         0         0         0         0         0         0         0         0
         0         0         0         0         0         0         0         0
         0         0         0         0         0         0         0         0
         0         0         0         0         0         0         0         0
         0         0         0         0         0         0         0         0
         0         0         0         0         0         0         0         0
         0         0         0         0         0         0         0         0
         0         0         0         0         0         0         0         0
         0         0         0         0         0         0         0         0
         0         0         0         0         0         0         0         0
         0         0         0         0         0         0         0         0
         0         0         0         0         0         0         0         0
         0         0         0         0         0         0         0         0
         0         0         0         0         0         0         0         0
         0         0         0         0         0         0         0         0
         0         0         0         0         0         0         0         0
         0         0         0         0         0         0         0         0
         0         0         0         0         0         0         0         0
         0         0         0         0         0         0         0         0
         0         0         0         0         0         0         0         0
         0         0         0         0         0         0         0         0
         0         0         0         0         0         0         0         0
         0         0         0         0         0         0         0         0
         0         0         0         0         0         0         0         0
         0         0         0         0         0         0         0         0
         0         0         0         0         0         0         0         0
         0         0         0         0         0         0         0         0
         0         0         0         0         0         0         0         0
         0         0         0         0         0         0         0         0
         0         0         0         0         0         0         0         0
         0         0         0         0         0         0         0         0
         0         0         0         0         0         0         0         0
         0         0         0         0         0         0         0         0
         0         0         0         0         0         0         0         0
         0         0         0         0         0         0         0         0
         0         0         0         0         0         0         0         0
         0         0         0         0         0         0         0         0
         0         0         0         0         0         0         0         0
         0         0         0         0         0         0         0         0
         0         0         0         0         0         0         0         0
         0         0         0         0         0         0         0         0
         0         0         0         0         0         0         0         0
         0         0         0         0         0         0         0         0
         0         0         0         0         0         0         0         0
         0         0         0         0         0         0         0         0
         0         0         0         0         0         0         0         0
         0         0         0         0         0         0         0         0
         0         0         0         0         0         0         0         0
         0         0         0         0         0         0         0         0
         0         0         0         0         0         0         0         0
         0         0         0         0         0         0         0         0
         0         0         0         0         0         0         0         0
         0         0         0         0         0         0         0         0
         0         0         0         0         0         0         0         0
         0         0         0         0         0         0         0         0
         0         0         0         0         0         0         0         0
         0         0         0         0         0         0         0         0
         0         0         0         0         0         0         0         0
         0         0         0         0         0         0         0         0
         0         0         0         0         0         0         0         0
         0         0         0         0         0         0         0         0
         0         0         0         0         0         0         0         0
         0         0         0         0         0         0         0         0
         0         0         0         0         0         0         0         0
         0         0         0         0         0         0         0         0
         0         0         0         0         0         0         0         0
         0         0         0         0         0         0         0         0
         0         0         0         0         0         0         0         0
         0         0         0         0         0         0         0         0
         0         0         0         0         0         0         0         0
         0         0         0         0         0         0         0         0
         0         0         0         0         0         0         0         0
         0         0         0         0         0         0         0         0
         0         0         0         0         0         0         0         0
         0         0         0         0         0         0         0         0
         0         0         0         0         0         0         0         0
         0         0         0         0         0         0         0         0
         0         0         0         0         0         0         0         0
         0         0         0         0         0         0         0         0
         0         0         0         0         0         0         0         0
         0         0         0         0         0         0         0         0
         0         0         0         0         0         0         0         0
         0         0         0         0         0         0         0         0
         0         0         0         0         0         0         0         0
         0         0         0         0         0         0         0         0
         0         0         0         0         0         0         0         0
         0         0         0         0         0         0         0         0
         0         0         0         0         0         0         0         0
         0         0         0         0         0         0         0         0
         0         0         0         0         0         0         0         0
         0         0         0         0         0         0         0         0
         0         0         0         0         0         0         0         0
         0         0         0         0         0         0         0         0
         0         0         0         0         0         0         0         0
         0         0         0         0         0         0         0         0
         0         0         0         0         0         0         0         0
         0         0         0         0         0         0         0         0
         0         0         0         0         0         0         0         0
         0         0         0         0         0         0         0         0
         0         0         0         0         0         0         0         0
         0         0         0         0         0         0         0         0
         0         0         0         0         0         0         0         0
         0         0         0         0         0         0         0         0
         0         0         0         0         0         0         0         0
         0         0         0         0         0         0         0         0
         0         0         0         0         0         0         0         0
         0         0         0         0         0         0         0         0
         0         0         0         0         0         0         0         0
         0         0         0         0         0         0         0         0
         0         0         0         0         0         0         0         0
         0         0         0         0         0         0         0         0
         0         0         0         0         0         0         0         0
         0         0         0         0         0         0         0         0
         0         0         0         0         0         0         0         0
         0         0         0         0         0         0         0         0
         0         0         0         0         0         0         0         0
         0         0         0         0         0         0         0         0
         0         0         0         0         0         0         0         0
         0         0         0         0         0         0         0         0
         0         0         0         0         0         0         0         0
         0         0         0         0         0         0         0         0
         0         0         0         0         0         0         0         0
         0         0         0         0         0         0         0         0
         0         0         0         0         0         0         0         0
         0         0         0         0         0         0         0         0
         0         0         0         0         0         0         0         0
         0         0         0         0         0         0         0         0
         0         0         0         0         0         0         0         0
         0         0         0         0         0         0         0         0
         0         0         0         0         0         0         0         0
         0         0         0         0         0         0         0         0
         0         0         0         0         0         0         0         0
         0         0         0         0         0         0         0         0
         0         0         0         0         0         0         0         0
         0         0         0         0         0         0         0         0
         0         0         0         0         0         0         0         0
         0         0         0         0         0         0         0         0
         0         0         0         0         0         0         0         0
         0         0         0         0         0         0         0         0
         0         0         0         0         0         0         0         0
         0         0         0         0         0         0         0         0
         0         0         0         0         0         0         0         0
         0         0         0         0         0         0         0         0
         0         0         0         0         0         0         0         0
         0         0         0         0         0         0         0         0
         0         0         0         0         0         0         0         0
         0         0         0         0         0         0         0         0
         0         0         0         0         0         0         0         0
         0         0         0         0         0         0         0         0
         0         0         0         0         0         0         0         0
         0         0         0         0         0         0         0         0
         0         0         0         0         0         0         0         0
         0         0         0         0         0         0         0         0
         0         0         0         0         0         0         0         0
         0         0         0         0         0         0         0         0
         0         0         0         0         0         0         0         0
         0         0         0         0         0         0         0         0
         0         0         0         0         0         0         0         0
         0         0         0         0         0         0         0         0
         0         0         0         0         0         0         0         0
         0         0         0         0         0         0         0         0
         0         0         0         0         0         0         0         0
         0         0         0         0         0         0         0         0
         0         0         0         0         0         0         0         0
         0         0         0         0         0         0         0         0
         0         0         0         0         0         0         0         0
         0         0         0         0         0         0         0         0
         0         0         0         0         0         0         0         0
         0         0         0         0         0         0         0         0
         0         0         0         0         0         0         0         0
         0         0         0         0         0         0         0         0
         0         0         0         0         0         0         0         0
         0         0         0         0         0         0         0         0
         0         0         0         0         0         0         0         0
         0         0         0         0         0         0         0         0
         0         0         0         0         0         0         0         0
         0         0         0         0         0         0         0         0
         0         0         0         0         0         0         0         0
         0         0         0         0         0         0         0         0
         0         0         0         0         0         0         0         0
         0         0         0         0         0         0         0         0
         0         0         0         0         0         0         0         0
         0         0         0         0         0         0         0         0
         0         0         0         0         0         0         0         0
         0         0         0         0         0         0         0         0
         0         0         0         0         0         0         0         0
         0         0         0         0         0         0         0         0
         0         0         0         0         0         0         0         0
         0         0         0         0         0         0         0         0
         0         0         0         0         0         0         0         0
         0         0         0         0         0         0         0         0
         0         0         0         0         0         0         0         0
         0         0         0         0         0         0         0         0
         0         0         0         0         0         0         0         0
         0         0         0         0         0         0         0         0
         0         0         0         0         0         0         0         0
         0         0         0         0         0         0         0         0
         0         0         0         0         0         0         0         0
         0         0         0         0         0         0         0         0
         0         0         0         0         0         0         0         0
         0         0         0         0         0         0         0         0
         0         0         0         0         0         0         0         0
         0         0         0         0         0         0         0         0
         0         0         0         0         0         0         0         0
         0         0         0         0         0         0         0         0
         0         0         0         0         0         0         0         0
         0         0         0         0         0         0         0         0
         0         0         0         0         0         0         0         0
         0         0         0         0         0         0         0         0
         0         0         0         0         0         0         0         0
         0         0         0         0         0         0         0         0
         0         0         0         0         0         0         0         0
         0         0         0         0         0         0         0         0
         0         0         0         0         0         0         0         0
         0         0         0         0         0         0         0         0
         0         0         0         0         0         0         0         0
         0         0         0         0         0         0         0         0
         0         0         0         0         0         0         0         0
         0         0         0         0         0         0         0         0
         0         0         0         0         0         0         0         0
         0         0         0         0         0         0         0         0
         0         0         0         0         0         0         0         0
         0         0         0         0         0         0         0         0
         0         0         0         0         0         0         0         0
         0         0         0         0         0         0         0         0
         0         0         0         0         0         0         0         0
         0         0         0         0         0         0         0         0
         0         0         0         0         0         0         0         0
         0         0         0         0         0         0         0         0
         0         0         0         0         0         0         0         0
         0         0         0         0         0         0         0         0
         0         0         0         0         0         0         0         0
         0         0         0         0         0         0         0         0
         0         0         0         0         0         0         0         0
         0         0         0         0         0         0         0         0
         0         0         0         0         0         0         0         0
         0         0         0         0         0         0         0         0
         0         0         0         0         0         0         0         0
         0         0         0         0         0         0         0         0
         0         0         0         0         0         0         0         0
         0         0         0         0         0         0         0         0
         0         0         0         0         0         0         0         0
         0         0         0         0         0         0         0         0
         0         0         0         0         0         0         0         0
         0         0         0         0         0         0         0         0
         0         0         0         0         0         0         0         0
         0         0         0         0         0         0         0         0
         0         0         0         0         0         0         0         0
         0         0         0         0         0         0         0         0
         0         0         0         0         0         0         0         0
         0         0         0         0         0         0         0         0
         0         0         0         0         0         0         0         0
         0         0         0         0         0         0         0         0
         0         0         0         0         0         0         0         0
         0         0         0         0         0         0         0         0
         0         0         0         0         0         0         0         0
         0         0         0         0         0         0         0         0
         0         0         0         0         0         0         0         0
         0         0         0         0         0         0         0         0
         0         0         0         0         0         0         0         0
         0         0         0         0         0         0         0         0
         0         0         0         0         0         0         0         0
         0         0         0         0         0         0         0         0
         0         0         0         0         0         0         0         0
         0         0         0         0         0         0         0         0
         0         0         0         0         0         0         0         0
         0         0         0         0         0         0         0         0
         0         0         0         0         0         0         0         0
         0         0         0         0         0         0         0         0
         0         0         0         0         0         0         0         0
         0         0         0         0         0         0         0         0
         0         0         0         0         0         0         0         0
         0         0         0         0         0         0         0         0
         0         0         0         0         0         0         0         0
         0         0         0         0         0         0         0         0
         0         0         0         0         0         0         0         0
         0         0         0         0         0         0         0         0
         0         0         0         0         0         0         0         0
         0         0         0         0         0         0         0         0
         0         0         0         0         0         0         0         0
         0         0         0         0         0         0         0         0
         0         0         0         0         0         0         0         0
         0         0         0         0         0         0         0         0
         0         0         0         0         0         0         0         0
         0         0         0         0         0         0         0         0
         0         0         0         0         0         0         0         0
         0         0         0         0         0         0         0         0
         0         0         0         0         0         0         0         0
         0         0         0         0         0         0         0         0
         0         0         0         0         0         0         0         0
         0         0         0         0         0         0         0         0
         0         0         0         0         0         0         0         0
         0         0         0         0         0         0         0         0
         0         0         0         0         0         0         0         0
         0         0         0         0         0         0         0         0
         0         0         0         0         0         0         0         0
         0         0         0         0         0         0         0         0
         0         0         0         0         0         0         0         0
         0         0         0         0         0         0         0         0
         0         0         0         0         0         0         0         0
         0         0         0         0         0         0         0         0
         0         0         0         0         0         0         0         0
         0         0         0         0         0         0         0         0
         0         0         0         0         0         0         0         0
         0         0         0         0         0         0         0         0
         0         0         0         0         0         0         0         0
         0         0         0         0         0         0         0         0
         0         0         0         0         0         0         0         0
         0         0         0         0         0         0         0         0
         0         0         0         0         0         0         0         0
         0         0         0         0         0         0         0         0
         0         0         0         0         0         0         0         0
         0         0         0         0         0         0         0         0
         0         0         0         0         0         0         0         0
         0         0         0         0         0         0         0         0
         0         0         0         0         0         0         0         0
         0         0         0         0         0         0         0         0
         0         0         0         0         0         0         0         0
         0         0         0         0         0         0         0         0
         0         0         0         0         0         0         0         0
         0         0         0         0         0         0         0         0
         0         0         0         0         0         0         0         0
         0         0         0         0         0         0         0         0
         0         0         0         0         0         0         0         0
         0         0         0         0         0         0         0         0
         0         0         0         0         0         0         0         0
         0         0         0         0         0         0         0         0
         0         0         0         0         0         0         0         0
         0         0         0         0         0         0         0         0
         0         0         0         0         0         0         0         0
         0         0         0         0         0         0         0         0
         0         0         0         0         0         0         0         0
         0         0         0         0         0         0         0         0
         0         0         0         0         0         0         0         0
         0         0         0         0         0         0         0         0
         0         0         0         0         0         0         0         0
         0         0         0         0         0         0         0         0
         0         0         0         0         0         0         0         0
         0         0         0         0         0         0         0         0
         0         0         0         0         0         0         0         0
         0         0         0         0         0         0         0         0
         0         0         0         0         0         0         0         0
         0         0         0         0         0         0         0         0
         0         0         0         0         0         0         0         0
         0         0         0         0         0         0         0         0
         0         0         0         0         0         0         0         0
         0         0         0         0         0         0         0         0
         0         0         0         0         0         0         0         0
         0         0         0         0         0         0         0         0
         0         0         0         0         0         0         0         0
         0         0         0         0         0         0         0         0
         0         0         0         0         0         0         0         0
         0         0         0         0         0         0         0         0
         0         0         0         0         0         0         0         0
         0         0         0         0         0         0         0         0
         0         0         0         0         0         0         0         0
         0         0         0         0         0         0         0         0
         0         0         0         0         0         0         0         0
         0         0         0         0         0         0         0         0
         0         0         0         0         0         0         0         0
         0         0         0         0         0         0         0         0
         0         0         0         0         0         0         0         0
         0         0         0         0         0         0         0         0
         0         0         0         0         0         0         0         0
         0         0         0         0         0         0         0         0
         0         0         0         0         0         0         0         0
         0         0         0         0         0         0         0         0
         0         0         0         0         0         0         0         0
         0         0         0         0         0         0         0         0
         0         0         0         0         0         0         0         0
         0         0         0         0         0         0         0         0
         0         0         0         0         0         0         0         0
         0         0         0         0         0         0         0         0
         0         0         0         0         0         0         0         0
         0         0         0         0         0         0         0         0
         0         0         0         0         0         0         0         0
         0         0         0         0         0         0         0         0
         0         0         0         0         0         0         0         0
         0         0         0         0         0         0         0         0
         0         0         0         0         0         0         0         0
         0         0         0         0         0         0         0         0
         0         0         0         0         0         0         0         0
         0         0         0         0         0         0         0         0
         0         0         0         0         0         0         0         0
         0         0         0         0         0         0         0         0
         0         0         0         0         0         0         0         0
         0         0         0         0         0         0         0         0
         0         0         0         0         0         0         0         0
         0         0         0         0         0         0         0         0
         0         0         0         0         0         0         0         0
         0         0         0         0         0         0         0         0
         0         0         0         0         0         0         0         0
         0         0         0         0         0         0         0         0
         0         0         0         0         0         0         0         0
         0         0         0         0         0         0         0         0
         0         0         0         0         0         0         0         0
         0         0         0         0         0         0         0         0
         0         0         0         0         0         0         0         0
         0         0         0         0         0         0         0         0
         0         0         0         0         0         0         0         0
         0         0         0         0         0         0         0         0
         0         0         0         0         0         0         0         0
         0         0         0         0         0         0         0         0
         0         0         0         0         0         0         0         0
         0         0         0         0         0         0         0         0
         0         0         0         0         0         0         0         0
         0         0         0         0         0         0         0         0
         0         0         0         0         0         0         0         0
         0         0         0         0         0         0         0         0
         0         0         0         0         0         0         0         0
         0         0         0         0         0         0         0         0
         0         0         0         0         0         0         0         0
         0         0         0         0         0         0         0         0
         0         0         0         0         0         0         0         0
         0         0         0         0         0         0         0         0
         0         0         0         0         0         0         0         0
         0         0         0         0         0         0         0         0
         0         0         0         0         0         0         0         0
         0         0         0         0         0         0         0         0
         0         0         0         0         0         0         0         0
         0         0         0         0         0         0         0         0
         0         0         0         0         0         0         0         0
         0         0         0         0         0         0         0         0
         0         0         0         0         0         0         0         0
         0         0         0         0         0         0         0         0
         0         0         0         0         0         0         0         0
         0         0         0         0         0         0         0         0
         0         0         0         0         0         0         0         0
         0         0         0         0         0         0         0         0
         0         0         0         0         0         0         0         0
         0         0         0         0         0         0         0         0
         0         0         0         0         0         0         0         0
         0         0         0         0         0         0         0         0
         0         0         0         0         0         0         0         0
         0         0         0         0         0         0         0         0
         0         0         0         0         0         0         0         0
         0         0         0         0         0         0         0         0
         0         0         0         0         0         0         0         0
         0         0         0         0         0         0         0         0
         0         0         0         0         0         0         0         0
         0         0         0         0         0         0         0         0
         0         0         0         0         0         0         0         0
         0         0         0         0         0         0         0         0
         0         0         0         0         0         0         0         0
         0         0         0         0         0         0         0         0
         0         0         0         0         0         0         0         0
         0         0         0         0         0         0         0         0
         0         0         0         0         0         0         0         0
         0         0         0         0         0         0         0         0
         0         0         0         0         0         0         0         0
         0         0         0         0         0         0         0         0
         0         0         0         0         0         0         0         0
         0         0         0         0         0         0         0         0
         0         0         0         0         0         0         0         0
         0         0         0         0         0         0         0         0
         0         0         0         0         0         0         0         0
         0         0         0         0         0         0         0         0
         0         0         0         0         0         0         0         0
         0         0         0         0         0         0         0         0
         0         0         0         0         0         0         0         0
         0         0         0         0         0         0         0         0
         0         0         0         0         0         0         0         0
         0         0         0         0         0         0         0         0
         0         0         0         0         0         0         0         0
         0         0         0         0         0         0         0         0
         0         0         0         0         0         0         0         0
         0         0         0         0         0         0         0         0
         0         0         0         0         0         0         0         0
         0         0         0         0         0         0         0         0
         0         0         0         0         0         0         0         0
         0         0         0         0         0         0         0         0
         0         0         0         0         0         0         0         0
         0         0         0         0         0         0         0         0
         0         0         0         0         0         0         0         0
         0         0         0         0         0         0         0         0
         0         0         0         0         0         0         0         0
         0         0         0         0         0         0         0         0
         0         0         0         0         0         0         0         0
         0         0         0         0         0         0         0         0
         0         0         0         0         0         0         0         0
         0         0         0         0         0         0         0         0
         0         0         0         0         0         0         0         0
         0         0         0         0         0         0         0         0
         0         0         0         0         0         0         0         0
         0         0         0         0         0         0         0         0
         0         0         0         0         0         0         0         0
         0         0         0         0         0         0         0         0
         0         0         0         0         0         0         0         0
         0         0         0         0         0         0         0         0
         0         0         0         0         0         0         0         0
         0         0         0         0         0         0         0         0
         0         0         0         0         0         0         0         0
         0         0         0         0         0         0         0         0
         0         0         0         0         0         0         0         0
         0         0         0         0         0         0         0         0
         0         0         0         0         0         0         0         0
         0         0         0         0         0         0         0         0
         0         0         0         0         0         0         0         0
         0         0         0         0         0         0         0         0
         0         0         0         0         0         0         0         0
         0         0         0         0         0         0         0         0
         0         0         0         0         0         0         0         0
         0         0         0         0         0         0         0         0
         0         0         0         0         0         0         0         0
         0         0         0         0         0         0         0         0
         0         0         0         0         0         0         0         0
         0         0         0         0         0         0         0         0
         0         0         0         0         0         0         0         0
         0         0         0         0         0         0         0         0
         0         0         0         0         0         0         0         0
         0         0         0         0         0         0         0         0
         0         0         0         0         0         0         0         0
         0         0         0         0         0         0         0         0
         0         0         0         0         0         0         0         0
         0         0         0         0         0         0         0         0
         0         0         0         0         0         0         0         0
         0         0         0         0         0         0         0         0
         0         0         0         0         0         0         0         0
         0         0         0         0         0         0         0         0
         0         0         0         0         0         0         0         0
         0         0         0         0         0         0         0         0
         0         0         0         0         0         0         0         0
         0         0         0         0         0         0         0         0
         0         0         0         0         0         0         0         0
         0         0         0         0         0         0         0         0
         0         0         0         0         0         0         0         0
         0         0         0         0         0         0         0         0
         0         0         0         0         0         0         0         0
         0         0         0         0         0         0         0         0
         0         0         0         0         0         0         0         0
         0         0         0         0         0         0         0         0
         0         0         0         0         0         0         0         0
         0         0         0         0         0         0         0         0
         0         0         0         0         0         0         0         0
         0         0         0         0         0         0         0         0
         0         0         0         0         0         0         0         0
         0         0         0         0         0         0         0         0
         0         0         0         0         0         0         0         0
         0         0         0         0         0         0         0         0
         0         0         0         0         0         0         0         0
         0         0         0         0         0         0         0         0
         0         0         0         0         0         0         0         0
         0         0         0         0         0         0         0         0
         0         0         0         0         0         0         0         0
         0         0         0         0         0         0         0         0
         0         0         0         0         0         0         0         0
         0         0         0         0         0         0         0         0
         0         0         0         0         0         0         0         0
         0         0         0         0         0         0         0         0
         0         0         0         0         0         0         0         0
         0         0         0         0         0         0         0         0
         0         0         0         0         0         0         0         0
         0         0         0         0         0         0         0         0
         0         0         0         0         0         0         0         0
         0         0         0         0         0         0         0         0
         0         0         0         0         0         0         0         0
         0         0         0         0         0         0         0         0
         0         0         0         0         0         0         0         0
         0         0         0         0         0         0         0         0
         0         0         0         0         0         0         0         0
         0         0         0         0         0         0         0         0
         0         0         0         0         0         0         0         0
         0         0         0         0         0         0         0         0
         0         0         0         0         0         0         0         0
         0         0         0         0         0         0         0         0
         0         0         0         0         0         0         0         0
         0         0         0         0         0         0         0         0
         0         0         0         0         0         0         0         0
         0         0         0         0         0         0         0         0
         0         0         0         0         0         0         0         0
         0         0         0         0         0         0         0         0
         0         0         0         0         0         0         0         0
         0         0         0         0         0         0         0         0
         0         0         0         0         0         0         0         0
         0         0         0         0         0         0         0         0
         0         0         0         0         0         0         0         0
         0         0         0         0         0         0         0         0
         0         0         0         0         0         0         0         0
         0         0         0         0         0         0         0         0
         0         0         0         0         0         0         0         0
         0         0         0         0         0         0         0         0
         0         0         0         0         0         0         0         0
         0         0         0         0         0         0         0         0
         0         0         0         0         0         0         0         0
         0         0         0         0         0         0         0         0
         0         0         0         0         0         0         0         0
         0         0         0         0         0         0         0         0
         0         0         0         0         0         0         0         0
         0         0         0         0         0         0         0         0
         0         0         0         0         0         0         0         0
         0         0         0         0         0         0         0         0
         0         0         0         0         0         0         0         0
         0         0         0         0         0         0         0         0
         0         0         0         0         0         0         0         0
         0         0         0         0         0         0         0         0
         0         0         0         0         0         0         0         0
         0         0         0         0         0         0         0         0
         0         0         0         0         0         0         0         0
         0         0         0         0         0         0         0         0
         0         0         0         0         0         0         0         0
         0         0         0         0         0         0         0         0
         0         0         0         0         0         0         0         0
         0         0         0         0         0         0         0         0
         0         0         0         0         0         0         0         0
         0         0         0         0         0         0         0         0
         0         0         0         0         0         0         0         0
         0         0         0         0         0         0         0         0
         0         0         0         0         0         0         0         0
         0         0         0         0         0         0         0         0
         0         0         0         0         0         0         0         0
         0         0         0         0         0         0         0         0
         0         0         0         0         0         0         0         0
         0         0         0         0         0         0         0         0
         0         0         0         0         0         0         0         0
         0         0         0         0         0         0         0         0
         0         0         0         0         0         0         0         0
         0         0         0         0         0         0         0         0
         0         0         0         0         0         0         0         0
         0         0         0         0         0         0         0         0
         0         0         0         0         0         0         0         0
         0         0         0         0         0         0         0         0
         0         0         0         0         0         0         0         0
         0         0         0         0         0         0         0         0
         0         0         0         0         0         0         0         0
         0         0         0         0         0         0         0         0
         0         0         0         0         0         0         0         0
         0         0         0         0         0         0         0         0
         0         0         0         0         0         0         0         0
         0         0         0         0         0         0         0         0
         0         0         0         0         0         0         0         0
         0         0         0         0         0         0         0         0
         0         0         0         0         0         0         0         0
         0         0         0         0         0         0         0         0
         0         0         0         0         0         0         0         0
         0         0         0         0         0         0         0         0
         0         0         0         0         0         0         0         0
         0         0         0         0         0         0         0         0
         0         0         0         0         0         0         0         0
         0         0         0         0         0         0         0         0
         0         0         0         0         0         0         0         0
         0         0         0         0         0         0         0         0
         0         0         0         0         0         0         0         0
         0         0         0         0         0         0         0         0
         0         0         0         0         0         0         0         0
         0         0         0         0         0         0         0         0
         0         0         0         0         0         0         0         0
         0         0         0         0         0         0         0         0
         0         0         0         0         0         0         0         0
         0         0         0         0         0         0         0         0
         0         0         0         0         0         0         0         0
         0         0         0         0         0         0         0         0
         0         0         0         0         0         0         0         0
         0         0         0         0         0         0         0         0
         0         0         0         0         0         0         0         0
         0         0         0         0         0         0         0         0
         0         0         0         0         0         0         0         0
         0         0         0         0         0         0         0         0
         0         0         0         0         0         0         0         0
         0         0         0         0         0         0         0         0
         0         0         0         0         0         0         0         0
         0         0         0         0         0         0         0         0
         0         0         0         0         0         0         0         0
         0         0         0         0         0         0         0         0
         0         0         0         0         0         0         0         0
         0         0         0         0         0         0         0         0
         0         0         0         0         0         0         0         0
         0         0         0         0         0         0         0         0
         0         0         0         0         0         0         0         0
         0         0         0         0         0         0         0         0
         0         0         0         0         0         0         0         0
         0         0         0         0         0         0         0         0
         0         0         0         0         0         0         0         0
         0         0         0         0         0         0         0         0
         0         0         0         0         0         0         0         0
         0         0         0         0         0         0         0         0
         0         0         0         0         0         0         0         0
         0         0         0         0         0         0         0         0
         0         0         0         0         0         0         0         0
         0         0         0         0         0         0         0         0
         0         0         0         0         0         0         0         0
         0         0         0         0         0         0         0         0
         0         0         0         0         0         0         0         0
         0         0         0         0         0         0         0         0
         0         0         0         0         0         0         0         0
         0         0         0         0         0         0         0         0
         0         0         0         0         0         0         0         0
         0         0         0         0         0         0         0         0
         0         0         0         0         0         0         0         0
         0         0         0         0         0         0         0         0
         0         0         0         0         0         0         0         0
         0         0         0         0         0         0         0         0
         0         0         0         0         0         0         0         0
         0         0         0         0         0         0         0         0
         0         0         0         0         0         0         0         0
         0         0         0         0         0         0         0         0
         0         0         0         0         0         0         0         0
         0         0         0         0         0         0         0         0
         0         0         0         0         0         0         0         0
         0         0         0         0         0         0         0         0
         0         0         0         0         0         0         0         0
         0         0         0         0         0         0         0         0
         0         0         0         0         0         0         0         0
         0         0         0         0         0         0         0         0
         0         0         0         0         0         0         0         0
         0         0         0         0         0         0         0         0
         0         0         0         0         0         0         0         0
         0         0         0         0         0         0         0         0
         0         0         0         0         0         0         0         0
         0         0         0         0         0         0         0         0
         0         0         0         0         0         0         0         0
         0         0         0         0         0         0         0         0
         0         0         0         0         0         0         0         0
         0         0         0         0         0         0         0         0
         0         0         0         0         0         0         0         0
         0         0         0         0         0         0         0         0
         0         0         0         0         0         0         0         0
         0         0         0         0         0         0         0         0
         0         0         0         0         0         0         0         0
         0         0         0         0         0         0         0         0
         0         0         0         0         0         0         0         0
         0         0         0         0         0         0         0         0
         0         0         0         0         0         0         0         0
         0         0         0         0         0         0         0         0
         0         0         0         0         0         0         0         0
         0         0         0         0         0         0         0         0
         0         0         0         0         0         0         0         0
         0         0         0         0         0         0         0         0
         0         0         0         0         0         0         0         0
         0         0         0         0         0         0         0         0
         0         0         0         0         0         0         0         0
         0         0         0         0         0         0         0         0
         0         0         0         0         0         0         0         0
         0         0         0         0         0         0         0         0
         0         0         0         0         0         0         0         0
         0         0         0         0         0         0         0         0
         0         0         0         0         0         0         0         0
         0         0         0         0         0         0         0         0
         0         0         0         0         0         0         0         0
         0         0         0         0         0         0         0         0
         0         0         0         0         0         0         0         0
         0         0         0         0         0         0         0         0
         0         0         0         0         0         0         0         0
         0         0         0         0         0         0         0         0
         0         0         0         0         0         0         0         0
         0         0         0         0         0         0         0         0
         0         0         0         0         0         0         0         0
         0         0         0         0         0         0         0         0
         0         0         0         0         0         0         0         0
         0         0         0         0         0         0         0         0
         0         0         0         0         0         0         0         0
         0         0         0         0         0         0         0         0
         0         0         0         0         0         0         0         0
         0         0         0         0         0         0         0         0
         0         0         0         0         0         0         0         0
         0         0         0         0         0         0         0         0
         0         0         0         0         0         0         0         0
         0         0         0         0         0         0         0         0
         0         0         0         0         0         0         0         0
         0         0         0         0         0         0         0         0
         0         0         0         0         0         0         0         0
         0         0         0         0         0         0         0         0
         0         0         0         0         0         0         0         0
         0         0         0         0         0         0         0         0
         0         0         0         0         0         0         0         0
         0         0         0         0         0         0         0         0
         0         0         0         0         0         0         0         0
         0         0         0         0         0         0         0         0
         0         0         0         0         0         0         0         0
         0         0         0         0         0         0         0         0
         0         0         0         0         0         0         0         0
         0         0         0         0         0         0         0         0
         0         0         0         0         0         0         0         0
         0         0         0         0         0         0         0         0
         0         0         0         0         0         0         0         0
         0         0         0         0         0         0         0         0
         0         0         0         0         0         0         0         0
         0         0         0         0         0         0         0         0
         0         0         0         0         0         0         0         0
         0         0         0         0         0         0         0         0
         0         0         0         0         0         0         0         0
         0         0         0         0         0         0         0         0
         0         0         0         0         0         0         0         0
         0         0         0         0         0         0         0         0
         0         0         0         0         0         0         0         0
         0         0         0         0         0         0         0         0
         0         0         0         0         0         0         0         0
         0         0         0         0         0         0         0         0
         0         0         0         0         0         0         0         0
         0         0         0         0         0         0         0         0
         0         0         0         0         0         0         0         0
         0         0         0         0         0         0         0         0
         0         0         0         0         0         0         0         0
         0         0         0         0         0         0         0         0
         0         0         0         0         0         0         0         0
         0         0         0         0         0         0         0         0
         0         0         0         0         0         0         0         0
         0         0         0         0         0         0         0         0
         0         0         0         0         0         0         0         0
         0         0         0         0         0         0         0         0
         0         0         0         0         0         0         0         0
         0         0         0         0         0         0         0         0
         0         0         0         0         0         0         0         0
         0         0         0         0         0         0         0         0
         0         0         0         0         0         0         0         0
         0         0         0         0         0         0         0         0
         0         0         0         0         0         0         0         0
         0         0         0         0         0         0         0         0
         0         0         0         0         0         0         0         0
         0         0         0         0         0         0         0         0
         0         0         0         0         0         0         0         0
         0         0         0         0         0         0         0         0
         0         0         0         0         0         0         0         0
         0         0         0         0         0         0         0         0
         0         0         0         0         0         0         0         0
         0         0         0         0         0         0         0         0
         0         0         0         0         0         0         0         0
         0         0         0         0         0         0         0         0
         0         0         0         0         0         0         0         0
         0         0         0         0         0         0         0         0
         0         0         0         0         0         0         0         0
         0         0         0         0         0         0         0         0
         0         0         0         0         0         0         0         0
         0         0         0         0         0         0         0         0
         0         0         0         0         0         0         0         0
         0         0         0         0         0         0         0         0
         0         0         0         0         0         0         0         0
         0         0         0         0         0         0         0         0
         0         0         0         0         0         0         0         0
         0         0         0         0         0         0         0         0
         0         0         0         0         0         0         0         0
         0         0         0         0         0         0         0         0
         0         0         0         0         0         0         0         0
         0         0         0         0         0         0         0         0
         0         0         0         0         0         0         0         0
         0         0         0         0         0         0         0         0
         0         0         0         0         0         0         0         0
         0         0         0         0         0         0         0         0
         0         0         0         0         0         0         0         0
         0         0         0         0         0         0         0         0
         0         0         0         0         0         0         0         0
         0         0         0         0         0         0         0         0
         0         0         0         0         0         0         0         0
         0         0         0         0         0         0         0         0
         0         0         0         0         0         0         0         0
         0         0         0         0         0         0         0         0
         0         0         0         0         0         0         0         0
         0         0         0         0         0         0         0         0
         0         0         0         0         0         0         0         0
         0         0         0         0         0         0         0         0
         0         0         0         0         0         0         0         0
         0         0         0         0         0         0         0         0
         0         0         0         0         0         0         0         0
         0         0         0         0         0         0         0         0
         0         0         0         0         0         0         0         0
         0         0         0         0         0         0         0         0
         0         0         0         0         0         0         0         0
         0         0         0         0         0         0         0         0
         0         0         0         0         0         0         0         0
         0         0         0         0         0         0         0         0
         0         0         0         0         0         0         0         0
         0         0         0         0         0         0         0         0
         0         0         0         0         0         0         0         0
         0         0         0         0         0         0         0         0
         0         0         0         0         0         0         0         0
         0         0         0         0         0         0         0         0
         0         0         0         0         0         0         0         0
         0         0         0         0         0         0         0         0
         0         0         0         0         0         0         0         0
         0         0         0         0         0         0         0         0
         0         0         0         0         0         0         0         0
         0         0         0         0         0         0         0         0
         0         0         0         0         0         0         0         0
         0         0         0         0         0         0         0         0
         0         0         0         0         0         0         0         0
         0         0         0         0         0         0         0         0
         0         0         0         0         0         0         0         0
         0         0         0         0         0         0         0         0
         0         0         0         0         0         0         0         0
         0         0         0         0         0         0         0         0
         0         0         0         0         0         0         0         0
         0         0         0         0         0         0         0         0
         0         0         0         0         0         0         0         0
         0         0         0         0         0         0         0         0
         0         0         0         0         0         0         0         0
         0         0         0         0         0         0         0         0
         0         0         0         0         0         0         0         0
         0         0         0         0         0         0         0         0
         0         0         0         0         0         0         0         0
         0         0         0         0         0         0         0         0
         0         0         0         0         0         0         0         0
         0         0         0         0         0         0         0         0
         0         0         0         0         0         0         0         0
         0         0         0         0         0         0         0         0
         0         0         0         0         0         0         0         0
         0         0         0         0         0         0         0         0
         0         0         0         0         0         0         0         0
         0         0         0         0         0         0         0         0
         0         0         0         0         0         0         0         0
         0         0         0         0         0         0         0         0
         0         0         0         0         0         0         0         0
         0         0         0         0         0         0         0         0
         0         0         0         0         0         0         0         0
         0         0         0         0         0         0         0         0
         0         0         0         0         0         0         0         0
         0         0         0         0         0         0         0         0
         0         0         0         0         0         0         0         0
         0         0         0         0         0         0         0         0
         0         0         0         0         0         0         0         0
         0         0         0         0         0         0         0         0
         0         0         0         0         0         0         0         0
         0         0         0         0         0         0         0         0
         0         0         0         0         0         0         0         0
         0         0         0         0         0         0         0         0
         0         0         0         0         0         0         0         0
         0         0         0         0         0         0         0         0
         0         0         0         0         0         0         0         0
         0         0         0         0         0         0         0         0
         0         0         0         0         0         0         0         0
         0         0         0         0         0         0         0         0
         0         0         0         0         0         0         0         0
         0         0         0         0         0         0         0         0
         0         0         0         0         0         0         0         0
         0         0         0         0         0         0         0         0
         0         0         0         0         0         0         0         0
         0         0         0         0         0         0         0         0
         0         0         0         0         0         0         0         0
         0         0         0         0         0         0         0         0
         0         0         0         0         0         0         0         0
         0         0         0         0         0         0         0         0
         0         0         0         0         0         0         0         0
         0         0         0         0         0         0         0         0
         0         0         0         0         0         0         0         0
         0         0         0         0         0         0         0         0
         0         0         0         0         0         0         0         0
         0         0         0         0         0         0         0         0
         0         0         0         0         0         0         0         0
         0         0         0         0         0         0         0         0
         0         0         0         0         0         0         0         0
         0         0         0         0         0         0         0         0
         0         0         0         0         0         0         0         0
         0         0         0         0         0         0         0         0
         0         0         0         0         0         0         0         0
         0         0         0         0         0         0         0         0
         0         0         0         0         0         0         0         0
         0         0         0         0         0         0         0         0
         0         0         0         0         0         0         0         0
         0         0         0         0         0         0         0         0
         0         0         0         0         0         0         0         0
         0         0         0         0         0         0         0         0
         0         0         0         0         0         0         0         0
         0         0         0         0         0         0         0         0
         0         0         0         0         0         0         0         0
         0         0         0         0         0         0         0         0
         0         0         0         0         0         0         0         0
         0         0         0         0         0         0         0         0
         0         0         0         0         0         0         0         0
         0         0         0         0         0         0         0         0
         0         0         0         0         0         0         0         0
         0         0         0         0         0         0         0         0
         0         0         0         0         0         0         0         0
         0         0         0         0         0         0         0         0
         0         0         0         0         0         0         0         0
         0         0         0         0         0         0         0         0
         0         0         0         0         0         0         0         0
         0         0         0         0         0         0         0         0
         0         0         0         0         0         0         0         0
         0         0         0         0         0         0         0         0
         0         0         0         0         0         0         0         0
         0         0         0         0         0         0         0         0
         0         0         0         0         0         0         0         0
         0         0         0         0         0         0         0         0
         0         0         0         0         0         0         0         0
         0         0         0         0         0         0         0         0
         0         0         0         0         0         0         0         0
         0         0         0         0         0         0         0         0
         0         0         0         0         0         0         0         0
         0         0         0         0         0         0         0         0
         0         0         0         0         0         0         0         0
         0         0         0         0         0         0         0         0
         0         0         0         0         0         0         0         0
         0         0         0         0         0         0         0         0
         0         0         0         0         0         0         0         0
         0         0         0         0         0         0         0         0
         0         0         0         0         0         0         0         0
         0         0         0         0         0         0         0         0
         0         0         0         0         0         0         0         0
         0         0         0         0         0         0         0         0
         0         0         0         0         0         0         0         0
         0         0         0         0         0         0         0         0
         0         0         0         0         0         0         0         0
         0         0         0         0         0         0         0         0
         0         0         0         0         0         0         0         0
         0         0         0         0         0         0         0         0
         0         0         0         0         0         0         0         0
         0         0         0         0         0         0         0         0
         0         0         0         0         0         0         0         0
         0         0         0         0         0         0         0         0
         0         0         0         0         0         0         0         0
         0         0         0         0         0         0         0         0
         0         0         0         0         0         0         0         0
         0         0         0         0         0         0         0         0
         0         0         0         0         0         0         0         0
         0         0         0         0         0         0         0         0
         0         0         0         0         0         0         0         0
         0         0         0         0         0         0         0         0
         0         0         0         0         0         0         0         0
         0         0         0         0         0         0         0         0
         0         0         0         0         0         0         0         0
         0         0         0         0         0         0         0         0
         0         0         0         0         0         0         0         0
         0         0         0         0         0         0         0         0
         0         0         0         0         0         0         0         0
         0         0         0         0         0         0         0         0
         0         0         0         0         0         0         0         0
         0         0         0         0         0         0         0         0
         0         0         0         0         0         0         0         0
         0         0         0         0         0         0         0         0
         0         0         0         0         0         0         0         0
         0         0         0         0         0         0         0         0
         0         0         0         0         0         0         0         0
         0         0         0         0         0         0         0         0
         0         0         0         0         0         0         0         0
         0         0         0         0         0         0         0         0
         0         0         0         0         0         0         0         0
         0         0         0         0         0         0         0         0
         0         0         0         0         0         0         0         0
         0         0         0         0         0         0         0         0
         0         0         0         0         0         0         0         0
         0         0         0         0         0         0         0         0
         0         0         0         0         0         0         0         0
         0         0         0         0         0         0         0         0
         0         0         0         0         0         0         0         0
         0         0         0         0         0         0         0         0
         0         0         0         0         0         0         0         0
         0         0         0         0         0         0         0         0
         0         0         0         0         0         0         0         0
         0         0         0         0         0         0         0         0
         0         0         0         0         0         0         0         0
         0         0         0         0         0         0         0         0
         0         0         0         0         0         0         0         0
         0         0         0         0         0         0         0         0
         0         0         0         0         0         0         0         0
         0         0         0         0         0         0         0         0
         0         0         0         0         0         0         0         0
         0         0         0         0         0         0         0         0
         0         0         0         0         0         0         0         0
         0         0         0         0         0         0         0         0
         0         0         0         0         0         0         0         0
         0         0         0         0         0         0         0         0
         0         0         0         0         0         0         0         0
         0         0         0         0         0         0         0         0
         0         0         0         0         0         0         0         0
         0         0         0         0         0         0         0         0
         0         0         0         0         0         0         0         0
         0         0         0         0         0         0         0         0
         0         0         0         0         0         0         0         0
         0         0         0         0         0         0         0         0
         0         0         0         0         0         0         0         0
         0         0         0         0         0         0         0         0
         0         0         0         0         0         0         0         0
         0         0         0         0         0         0         0         0
         0         0         0         0         0         0         0         0
         0         0         0         0         0         0         0         0
         0         0         0         0         0         0         0         0
         0         0         0         0         0         0         0         0
         0         0         0         0         0         0         0         0
         0         0         0         0         0         0         0         0
         0         0         0         0         0         0         0         0
         0         0         0         0         0         0         0         0
         0         0         0         0         0         0         0         0
         0         0         0         0         0         0         0         0
         0         0         0         0         0         0         0         0
         0         0         0         0         0         0         0         0
         0         0         0         0         0         0         0         0
         0         0         0         0         0         0         0         0
         0         0         0         0         0         0         0         0
         0         0         0         0         0         0         0         0
         0         0         0         0         0         0         0         0
         0         0         0         0         0         0         0         0
         0         0         0         0         0         0         0         0
         0         0         0         0         0         0         0         0
         0         0         0         0         0         0         0         0
         0         0         0         0         0         0         0         0
         0         0         0         0         0         0         0         0
         0         0         0         0         0         0         0         0
         0         0         0         0         0         0         0         0
         0         0         0         0         0         0         0         0
         0         0         0         0         0         0         0         0
         0         0         0         0         0         0         0         0
         0         0         0         0         0         0         0         0
         0         0         0         0         0         0         0         0
         0         0         0         0         0         0         0         0
         0         0         0         0         0         0         0         0
         0         0         0         0         0         0         0         0
         0         0         0         0         0         0         0         0
         0         0         0         0         0         0         0         0
         0         0         0         0         0         0         0         0
         0         0         0         0         0         0         0         0
         0         0         0         0         0         0         0         0
         0         0         0         0         0         0         0         0
         0         0         0         0         0         0         0         0
         0         0         0         0         0         0         0         0
         0         0         0         0         0         0         0         0
         0         0         0         0         0         0         0         0
         0         0         0         0         0         0         0         0
         0         0         0         0         0         0         0         0
         0         0         0         0         0         0         0         0
         0         0         0         0         0         0         0         0
         0         0         0         0         0         0         0         0
         0         0         0         0         0         0         0         0
         0         0         0         0         0         0         0         0
         0         0         0         0         0         0         0         0
         0         0         0         0         0         0         0         0
         0         0         0         0         0         0         0         0
         0         0         0         0         0         0         0         0
         0         0         0         0         0         0         0         0
         0         0         0         0         0         0         0         0
         0         0         0         0         0         0         0         0
         0         0         0         0         0         0         0         0
         0         0         0         0         0         0         0         0
         0         0         0         0         0         0         0         0
         0         0         0         0         0         0         0         0
         0         0         0         0         0         0         0         0
         0         0         0         0         0         0         0         0
         0         0         0         0         0         0         0         0
         0         0         0         0         0         0         0         0
         0         0         0         0         0         0         0         0
         0         0         0         0         0         0         0         0
         0         0         0         0         0         0         0         0
         0         0         0         0         0         0         0         0
         0         0         0         0         0         0         0         0
         0         0         0         0         0         0         0         0
         0         0         0         0         0         0         0         0
         0         0         0         0         0         0         0         0
         0         0         0         0         0         0         0         0
         0         0         0         0         0         0         0         0
         0         0         0         0         0         0         0         0
         0         0         0         0         0         0         0         0
         0         0         0         0         0         0         0         0
         0         0         0         0         0         0         0         0
         0         0         0         0         0         0         0         0
         0         0         0         0         0         0         0         0
         0         0         0         0         0         0         0         0
         0         0         0         0         0         0         0         0
         0         0         0         0         0         0         0         0
         0         0         0         0         0         0         0         0
         0         0         0         0         0         0         0         0
         0         0         0         0         0         0         0         0
         0         0         0         0         0         0         0         0
         0         0         0         0         0         0         0         0
         0         0         0         0         0         0         0         0
         0         0         0         0         0         0         0         0
         0         0         0         0         0         0         0         0
         0         0         0         0         0         0         0         0
         0         0         0         0         0         0         0         0
         0         0         0         0         0         0         0         0
         0         0         0         0         0         0         0         0
         0         0         0         0         0         0         0         0
         0         0         0         0         0         0         0         0
         0         0         0         0         0         0         0         0
         0         0         0         0         0         0         0         0
         0         0         0         0         0         0         0         0
         0         0         0         0         0         0         0         0
         0         0         0         0         0         0         0         0
         0         0         0         0         0         0         0         0
         0         0         0         0         0         0         0         0
         0         0         0         0         0         0         0         0
         0         0         0         0         0         0         0         0
         0         0         0         0         0         0         0         0
         0         0         0         0         0         0         0         0
         0         0         0         0         0         0         0         0
         0         0         0         0         0         0         0         0
         0         0         0         0         0         0         0         0
         0         0         0         0         0         0         0         0
         0         0         0         0         0         0         0         0
         0         0         0         0         0         0         0         0
         0         0         0         0         0         0         0         0
         0         0         0         0         0         0         0         0
         0         0         0         0         0         0         0         0
         0         0         0         0         0         0         0         0
         0         0         0         0         0         0         0         0
         0         0         0         0         0         0         0         0
         0         0         0         0         0         0         0         0
         0         0         0         0         0         0         0         0
         0         0         0         0         0         0         0         0
         0         0         0         0         0         0         0         0
         0         0         0         0         0         0         0         0
         0         0         0         0         0         0         0         0
         0         0         0         0         0         0         0         0
         0         0         0         0         0         0         0         0
         0         0         0         0         0         0         0         0
         0         0         0         0         0         0         0         0
         0         0         0         0         0         0         0         0
         0         0         0         0         0         0         0         0
         0         0         0         0         0         0         0         0
         0         0         0         0         0         0         0         0
         0         0         0         0         0         0         0         0
         0         0         0         0         0         0         0         0
         0         0         0         0         0         0         0         0
         0         0         0         0         0         0         0         0
         0         0         0         0         0         0         0         0
         0         0         0         0         0         0         0         0
         0         0         0         0         0         0         0         0
         0         0         0         0         0         0         0         0
         0         0         0         0         0         0         0         0
         0         0         0         0         0         0         0         0
         0         0         0         0         0         0         0         0
         0         0         0         0         0         0         0         0
         0         0         0         0         0         0         0         0
         0         0         0         0         0         0         0         0
         0         0         0         0         0         0         0         0
         0         0         0         0         0         0         0         0
         0         0         0         0         0         0         0         0
         0         0         0         0         0         0         0         0
         0         0         0         0         0         0         0         0
         0         0         0         0         0         0         0         0
         0         0         0         0         0         0         0         0
         0         0         0         0         0         0         0         0
         0         0         0         0         0         0         0         0
         0         0         0         0         0         0         0         0
         0         0         0         0         0         0         0         0
         0         0         0         0         0         0         0         0
         0         0         0         0         0         0         0         0
         0         0         0         0         0         0         0         0
         0         0         0         0         0         0         0         0
         0         0         0         0         0         0         0         0
         0         0         0         0         0         0         0         0
         0         0         0         0         0         0         0         0
         0         0         0         0         0         0         0         0
         0         0         0         0         0         0         0         0
         0         0         0         0         0         0         0         0
         0         0         0         0         0         0         0         0
         0         0         0         0         0         0         0         0
         0         0         0         0         0         0         0         0
         0         0         0         0         0         0         0         0
         0         0         0         0         0         0         0         0
         0         0         0         0         0         0         0         0
         0         0         0         0         0         0         0         0
         0         0         0         0         0         0         0         0
         0         0         0         0         0         0         0         0
         0         0         0         0         0         0         0         0
         0         0         0         0         0         0         0         0
         0         0         0         0         0         0         0         0
         0         0         0         0         0         0         0         0
         0         0         0         0         0         0         0         0
         0         0         0         0         0         0         0         0
         0         0         0         0         0         0         0         0
         0         0         0         0         0         0         0         0
         0         0         0         0         0         0         0         0
         0         0         0         0         0         0         0         0
         0         0         0         0         0         0         0         0
         0         0         0         0         0         0         0         0
         0         0         0         0         0         0         0         0
         0         0         0         0         0         0         0         0
         0         0         0         0         0         0         0         0
         0         0         0         0         0         0         0         0
         0         0         0         0         0         0         0         0
         0         0         0         0         0         0         0         0
         0         0         0         0         0         0         0         0
         0         0         0         0         0         0         0         0
         0         0         0         0         0         0         0         0
         0         0         0         0         0         0         0         0
         0         0         0         0         0         0         0         0
         0         0         0         0         0         0         0         0
         0         0         0         0         0         0         0         0
         0         0         0         0         0         0         0         0
         0         0         0         0         0         0         0         0
         0         0         0         0         0         0         0         0
         0         0         0         0         0         0         0         0
         0         0         0         0         0         0         0         0
         0         0         0         0         0         0         0         0
         0         0         0         0         0         0         0         0
         0         0         0         0         0         0         0         0
         0         0         0         0         0         0         0         0
         0         0         0         0         0         0         0         0
         0         0         0         0         0         0         0         0
         0         0         0         0         0         0         0         0
         0         0         0         0         0         0         0         0
         0         0         0         0         0         0         0         0
         0         0         0         0         0         0         0         0
         0         0         0         0         0         0         0         0
         0         0         0         0         0         0         0         0
         0         0         0         0         0         0         0         0
         0         0         0         0         0         0         0         0
         0         0         0         0         0         0         0         0
         0         0         0         0         0         0         0         0
         0         0         0         0         0         0         0         0
         0         0         0         0         0         0         0         0
         0         0         0         0         0         0         0         0
         0         0         0         0         0         0         0         0
         0         0         0         0         0         0         0         0
         0         0         0         0         0         0         0         0
         0         0         0         0         0         0         0         0
         0         0         0         0         0         0         0         0
         0         0         0         0         0         0         0         0
         0         0         0         0         0         0         0         0
         0         0         0         0         0         0         0         0
         0         0         0         0         0         0         0         0
         0         0         0         0         0         0         0         0
         0         0         0         0         0         0         0         0
         0         0         0         0         0         0         0         0
         0         0         0         0         0         0         0         0
         0         0         0         0         0         0         0         0
         0         0         0         0         0         0         0         0
         0         0         0         0         0         0         0         0
         0         0         0         0         0         0         0         0
         0         0         0         0         0         0         0         0
         0         0         0         0         0         0         0         0
         0         0         0         0         0         0         0         0
         0         0         0         0         0         0         0         0
         0         0         0         0         0         0         0         0
         0         0         0         0         0         0         0         0
         0         0         0         0         0         0         0         0
         0         0         0         0         0         0         0         0
         0         0         0         0         0         0         0         0
         0         0         0         0         0         0         0         0
         0         0         0         0         0         0         0         0
         0         0         0         0         0         0         0         0
         0         0         0         0         0         0         0         0
         0         0         0         0         0         0         0         0
         0         0         0         0         0         0         0         0
         0         0         0         0         0         0         0         0
         0         0         0         0         0         0         0         0
         0         0         0         0         0         0         0         0
         0         0         0         0         0         0         0         0
         0         0         0         0         0         0         0         0
         0         0         0         0         0         0         0         0
         0         0         0         0         0         0         0         0
         0         0         0         0         0         0         0         0
         0         0         0         0         0         0         0         0
         0         0         0         0         0         0         0         0
         0         0         0         0         0         0         0         0
         0         0         0         0         0         0         0         0
         0         0         0         0         0         0         0         0
         0         0         0         0         0         0         0         0
         0         0         0         0         0         0         0         0
         0         0         0         0         0         0         0         0
         0         0         0         0         0         0         0         0
         0         0         0         0         0         0         0         0
         0         0         0         0         0         0         0         0
         0         0         0         0         0         0         0         0
         0         0         0         0         0         0         0         0
         0         0         0         0         0         0         0         0
         0         0         0         0         0         0         0         0
         0         0         0         0         0         0         0         0
         0         0         0         0         0         0         0         0
         0         0         0         0         0         0         0         0
         0         0         0         0         0         0         0         0
         0         0         0         0         0         0         0         0
         0         0         0         0         0         0         0         0
         0         0         0         0         0         0         0         0
         0         0         0         0         0         0         0         0
         0         0         0         0         0         0         0         0
         0         0         0         0         0         0         0         0
         0         0         0         0         0         0         0         0
         0         0         0         0         0         0         0         0
         0         0         0         0         0         0         0         0
         0         0         0         0         0         0         0         0
         0         0         0         0         0         0         0         0
         0         0         0         0         0         0         0         0
         0         0         0         0         0         0         0         0
         0         0         0         0         0         0         0         0
         0         0         0         0         0         0         0         0
         0         0         0         0         0         0         0         0
         0         0         0         0         0         0         0         0
         0         0         0         0         0         0         0         0
         0         0         0         0         0         0         0         0
         0         0         0         0         0         0         0         0
         0         0         0         0         0         0         0         0
         0         0         0         0         0         0         0         0
         0         0         0         0         0         0         0         0
         0         0         0         0         0         0         0         0
         0         0         0         0         0         0         0         0
         0         0         0         0         0         0         0         0
         0         0         0         0         0         0         0         0
         0         0         0         0         0         0         0         0
         0         0         0         0         0         0         0         0
         0         0         0         0         0         0         0         0
         0         0         0         0         0         0         0         0
         0         0         0         0         0         0         0         0
         0         0         0         0         0         0         0         0
         0         0         0         0         0         0         0         0
         0         0         0         0         0         0         0         0
         0         0         0         0         0         0         0         0
         0         0         0         0         0         0         0         0
         0         0         0         0         0         0         0         0
         0         0         0         0         0         0         0         0
         0         0         0         0         0         0         0         0
         0         0         0         0         0         0         0         0
         0         0         0         0         0         0         0         0
         0         0         0         0         0         0         0         0
         0         0         0         0         0         0         0         0
         0         0         0         0         0         0         0         0
         0         0         0         0         0         0         0         0
         0         0         0         0         0         0         0         0
         0         0         0         0         0         0         0         0
         0         0         0         0         0         0         0         0
         0         0         0         0         0         0         0         0
         0         0         0         0         0         0         0         0
         0         0         0         0         0         0         0         0
         0         0         0         0         0         0         0         0
         0         0         0         0         0         0         0         0
         0         0         0         0         0         0         0         0
         0         0         0         0         0         0         0         0
         0         0         0         0         0         0         0         0
         0         0         0         0         0         0         0         0
         0         0         0         0         0         0         0         0
         0         0         0         0         0         0         0         0
         0         0         0         0         0         0         0         0
         0         0         0         0         0         0         0         0
         0         0         0         0         0         0         0         0
         0         0         0         0         0         0         0         0
         0         0         0         0         0         0         0         0
         0         0         0         0         0         0         0         0
         0         0         0         0         0         0         0         0
         0         0         0         0         0         0         0         0
         0         0         0         0         0         0         0         0
         0         0         0         0         0         0         0         0
         0         0         0         0         0         0         0         0
         0         0         0         0         0         0         0         0
         0         0         0         0         0         0         0         0
         0         0         0         0         0         0         0         0
         0         0         0         0         0         0         0         0
         0         0         0         0         0         0         0         0
         0         0         0         0         0         0         0         0
         0         0         0         0         0         0         0         0
         0         0         0         0         0         0         0         0
         0         0         0         0         0         0         0         0
         0         0         0         0         0         0         0         0
         0         0         0         0         0         0         0         0
         0         0         0         0         0         0         0         0
         0         0         0         0         0         0         0         0
         0         0         0         0         0         0         0         0
         0         0         0         0         0         0         0         0
         0         0         0         0         0         0         0         0
         0         0         0         0         0         0         0         0
         0         0         0         0         0         0         0         0
         0         0         0         0         0         0         0         0
         0         0         0         0         0         0         0         0
         0         0         0         0         0         0         0         0
         0         0         0         0         0         0         0         0
         0         0         0         0         0         0         0         0
         0         0         0         0         0         0         0         0
         0         0         0         0         0         0         0         0
         0         0         0         0         0         0         0         0
         0         0         0         0         0         0         0         0
         0         0         0         0         0         0         0         0
         0         0         0         0         0         0         0         0
         0         0         0         0         0         0         0         0
         0         0         0         0         0         0         0         0
         0         0         0         0         0         0         0         0
         0         0         0         0         0         0         0         0
         0         0         0         0         0         0         0         0
         0         0         0         0         0         0         0         0
         0         0         0         0         0         0         0         0
         0         0         0         0         0         0         0         0
         0         0         0         0         0         0         0         0
         0         0         0         0         0         0         0         0
         0         0         0         0         0         0         0         0
         0         0         0         0         0         0         0         0
         0         0         0         0         0         0         0         0
         0         0         0         0         0         0         0         0
         0         0         0         0         0         0         0         0
         0         0         0         0         0         0         0         0
         0         0         0         0         0         0         0         0
         0         0         0         0         0         0         0         0
         0         0         0         0         0         0         0         0
         0         0         0         0         0         0         0         0
         0         0         0         0         0         0         0         0
         0         0         0         0         0         0         0         0
         0         0         0         0         0         0         0         0
         0         0         0         0         0         0         0         0
         0         0         0         0         0         0         0         0
         0         0         0         0         0         0         0         0
         0         0         0         0         0         0         0         0
         0         0         0         0         0         0         0         0
         0         0         0         0         0         0         0         0
         0         0         0         0         0         0         0         0
         0         0         0         0         0         0         0         0
         0         0         0         0         0         0         0         0
         0         0         0         0         0         0         0         0
         0         0         0         0         0         0         0         0
         0         0         0         0         0         0         0         0
         0         0         0         0         0         0         0         0
         0         0         0         0         0         0         0         0
         0         0         0         0         0         0         0         0
         0         0         0         0         0         0         0         0
         0         0         0         0         0         0         0         0
         0         0         0         0         0         0         0         0
         0         0         0         0         0         0         0         0
         0         0         0         0         0         0         0         0
         0         0         0         0         0         0         0         0
         0         0         0         0         0         0         0         0
         0         0         0         0         0         0         0         0
         0         0         0         0         0         0         0         0
         0         0         0         0         0         0         0         0
         0         0         0         0         0         0         0         0
         0         0         0         0         0         0         0         0
         0         0         0         0         0         0         0         0
         0         0         0         0         0         0         0         0
         0         0         0         0         0         0         0         0
         0         0         0         0         0         0         0         0
         0         0         0         0         0         0         0         0
         0         0         0         0         0         0         0         0
         0         0         0         0         0         0         0         0
         0         0         0         0         0         0         0         0
         0         0         0         0         0         0         0         0
         0         0         0         0         0         0         0         0
         0         0         0         0         0         0         0         0
         0         0         0         0         0         0         0         0
         0         0         0         0         0         0         0         0
         0         0         0         0         0         0         0         0
         0         0         0         0         0         0         0         0
         0         0         0         0         0         0         0         0
         0         0         0         0         0         0         0         0
         0         0         0         0         0         0         0         0
         0         0         0         0         0         0         0         0
         0         0         0         0         0         0         0         0
         0         0         0         0         0         0         0         0
         0         0         0         0         0         0         0         0
         0         0         0         0         0         0         0         0
         0         0         0         0         0         0         0         0
         0         0         0         0         0         0         0         0
         0         0         0         0         0         0         0         0
         0         0         0         0         0         0         0         0
         0         0         0         0         0         0         0         0
         0         0         0         0         0         0         0         0
         0         0         0         0         0         0         0         0
         0         0         0         0         0         0         0         0
         0         0         0         0         0         0         0         0
         0         0         0         0         0         0         0         0
         0         0         0         0         0         0         0         0
         0         0         0         0         0         0         0         0
         0         0         0         0         0         0         0         0
         0         0         0         0         0         0         0         0
         0         0         0         0         0         0         0         0
         0         0         0         0         0         0         0         0
         0         0         0         0         0         0         0         0
         0         0         0         0         0         0         0         0
         0         0         0         0         0         0         0         0
         0         0         0         0         0         0         0         0
         0         0         0         0         0         0         0         0
         0         0         0         0         0         0         0         0
         0         0         0         0         0         0         0         0
         0         0         0         0         0         0         0         0
         0         0         0         0         0         0         0         0
         0         0         0         0         0         0         0         0
         0         0         0         0         0         0         0         0
         0         0         0         0         0         0         0         0
         0         0         0         0         0         0         0         0
         0         0         0         0         0         0         0         0
         0         0         0         0         0         0         0         0
         0         0         0         0         0         0         0         0
         0         0         0         0         0         0         0         0
         0         0         0         0         0         0         0         0
         0         0         0         0         0         0         0         0
         0         0         0         0         0         0         0         0
         0         0         0         0         0         0         0         0
         0         0         0         0         0         0         0         0
         0         0         0         0         0         0         0         0
         0         0         0         0         0         0         0         0
         0         0         0         0         0         0         0         0
         0         0         0         0         0         0         0         0
         0         0         0         0         0         0         0         0
         0         0         0         0         0         0         0         0
         0         0         0         0         0         0         0         0
         0         0         0         0         0         0         0         0
         0         0         0         0         0         0         0         0
         0         0         0         0         0         0         0         0
         0         0         0         0         0         0         0         0
         0         0         0         0         0         0         0         0
         0         0         0         0         0         0         0         0
         0         0         0         0         0         0         0         0
         0         0         0         0         0         0         0         0
         0         0         0         0         0         0         0         0
         0         0         0         0         0         0         0         0
         0         0         0         0         0         0         0         0
         0         0         0         0         0         0         0         0
         0         0         0         0         0         0         0         0
         0         0         0         0         0         0         0         0
         0         0         0         0         0         0         0         0
         0         0         0         0         0         0         0         0
         0         0         0         0         0         0         0         0
         0         0         0         0         0         0         0         0
         0         0         0         0         0         0         0         0
         0         0         0         0         0         0         0         0
         0         0         0         0         0         0         0         0
         0         0         0         0         0         0         0         0
         0         0         0         0         0         0         0         0
         0         0         0         0         0         0         0         0
         0         0         0         0         0         0         0         0
         0         0         0         0         0         0         0         0
         0         0         0         0         0         0         0         0
         0         0         0         0         0         0         0         0
         0         0         0         0         0         0         0         0
         0         0         0         0         0         0         0         0
         0         0         0         0         0         0         0         0
         0         0         0         0         0         0         0         0
         0         0         0         0         0         0         0         0
         0         0         0         0         0         0         0         0
         0         0         0         0         0         0         0         0
         0         0         0         0         0         0         0         0
         0         0         0         0         0         0         0         0
         0         0         0         0         0         0         0         0
         0         0         0         0         0         0         0         0
         0         0         0         0         0         0         0         0
         0         0         0         0         0         0         0         0
         0         0         0         0         0         0         0         0
         0         0         0         0         0         0         0         0
         0         0         0         0         0         0         0         0
         0         0         0         0         0         0         0         0
         0         0         0         0         0         0         0         0
         0         0         0         0         0         0         0         0
         0         0         0         0         0         0         0         0
         0         0         0         0         0         0         0         0
         0         0         0         0         0         0         0         0
         0         0         0         0         0         0         0         0
         0         0         0         0         0         0         0         0
         0         0         0         0         0         0         0         0
         0         0         0         0         0         0         0         0
         0         0         0         0         0         0         0         0
         0         0         0         0         0         0         0         0
         0         0         0         0         0         0         0         0
         0         0         0         0         0         0         0         0
         0         0         0         0         0         0         0         0
         0         0         0         0         0         0         0         0
         0         0         0         0         0         0         0         0
         0         0         0         0         0         0         0         0
         0         0         0         0         0         0         0         0
         0         0         0         0         0         0         0         0
         0         0         0         0         0         0         0         0
         0         0         0         0         0         0         0         0
         0         0         0         0         0         0         0         0
         0         0         0         0         0         0         0         0
         0         0         0         0         0         0         0         0
         0         0         0         0         0         0         0         0
         0         0         0         0         0         0         0         0
         0         0         0         0         0         0         0         0
         0         0         0         0         0         0         0         0
         0         0         0         0         0         0         0         0
         0         0         0         0         0         0         0         0
         0         0         0         0         0         0         0         0
         0         0         0         0         0         0         0         0
         0         0         0         0         0         0         0         0
         0         0         0         0         0         0         0         0
         0         0         0         0         0         0         0         0
         0         0         0         0         0         0         0         0
         0         0         0         0         0         0         0         0
         0         0         0         0         0         0         0         0
         0         0         0         0         0         0         0         0
         0         0         0         0         0         0         0         0
         0         0         0         0         0         0         0         0
         0         0         0         0         0         0         0         0
         0         0         0         0         0         0         0         0
         0         0         0         0         0         0         0         0
         0         0         0         0         0         0         0         0
         0         0         0         0         0         0         0         0
         0         0         0         0         0         0         0         0
         0         0         0         0         0         0         0         0
         0         0         0         0         0         0         0         0
         0         0         0         0         0         0         0         0
         0         0         0         0         0         0         0         0
         0         0         0         0         0         0         0         0
         0         0         0         0         0         0         0         0
         0         0         0         0         0         0         0         0
         0         0         0         0         0         0         0         0
         0         0         0         0         0         0         0         0
         0         0         0         0         0         0         0         0
         0         0         0         0         0         0         0         0
         0         0         0         0         0         0         0         0
         0         0         0         0         0         0         0         0
         0         0         0         0         0         0         0         0
         0         0         0         0         0         0         0         0
         0         0         0         0         0         0         0         0
         0         0         0         0         0         0         0         0
         0         0         0         0         0         0         0         0
         0         0         0         0         0         0         0         0
         0         0         0         0         0         0         0         0
         0         0         0         0         0         0         0         0
         0         0         0         0         0         0         0         0
         0         0         0         0         0         0         0         0
         0         0         0         0         0         0         0         0
         0         0         0         0         0         0         0         0
         0         0         0         0         0         0         0         0
         0         0         0         0         0         0         0         0
         0         0         0         0         0         0         0         0
         0         0         0         0         0         0         0         0
         0         0         0         0         0         0         0         0
         0         0         0         0         0         0         0         0
         0         0         0         0         0         0         0         0
         0         0         0         0         0         0         0         0
         0         0         0         0         0         0         0         0
         0         0         0         0         0         0         0         0
         0         0         0         0         0         0         0         0
         0         0         0         0         0         0         0         0
         0         0         0         0         0         0         0         0
         0         0         0         0         0         0         0         0
         0         0         0         0         0         0         0         0
         0         0         0         0         0         0         0         0
         0         0         0         0         0         0         0         0
         0         0         0         0         0         0         0         0
         0         0         0         0         0         0         0         0
         0         0         0         0         0         0         0         0
         0         0         0         0         0         0         0         0
         0         0         0         0         0         0         0         0
         0         0         0         0         0         0         0         0
         0         0         0         0         0         0         0         0
         0         0         0         0         0         0         0         0
         0         0         0         0         0         0         0         0
         0         0         0         0         0         0         0         0
         0         0         0         0         0         0         0         0
         0         0         0         0         0         0         0         0
         0         0         0         0         0         0         0         0
         0         0         0         0         0         0         0         0
         0         0         0         0         0         0         0         0
         0         0         0         0         0         0         0         0
         0         0         0         0         0         0         0         0
         0         0         0         0         0         0         0         0
         0         0         0         0         0         0         0         0
         0         0         0         0         0         0         0         0
         0         0         0         0         0         0         0         0
         0         0         0         0         0         0         0         0
         0         0         0         0         0         0         0         0
         0         0         0         0         0         0         0         0
         0         0         0         0         0         0         0         0
         0         0         0         0         0         0         0         0
         0         0         0         0         0         0         0         0
         0         0         0         0         0         0         0         0
         0         0         0         0         0         0         0         0
         0         0         0         0         0         0         0         0
         0         0         0         0         0         0         0         0
         0         0         0         0         0         0         0         0
         0         0         0         0         0         0         0         0
         0         0         0         0         0         0         0         0
         0         0         0         0         0         0         0         0
         0         0         0         0         0         0         0         0
         0         0         0         0         0         0         0         0
         0         0         0         0         0         0         0         0
         0         0         0         0         0         0         0         0
         0         0         0         0         0         0         0         0
         0         0         0         0         0         0         0         0
         0         0         0         0         0         0         0         0
         0         0         0         0         0         0         0         0
         0         0         0         0         0         0         0         0
         0         0         0         0         0         0         0         0
         0         0         0         0         0         0         0         0
         0         0         0         0         0         0         0         0
         0         0         0         0         0         0         0         0
         0         0         0         0         0         0         0         0
         0         0         0         0         0         0         0         0
         0         0         0         0         0         0         0         0
         0         0         0         0         0         0         0         0
         0         0         0         0         0         0         0         0
         0         0         0         0         0         0         0         0
         0         0         0         0         0         0         0         0
         0         0         0         0         0         0         0         0
         0         0         0         0         0         0         0         0
         0         0         0         0         0         0         0         0
         0         0         0         0         0         0         0         0
         0         0         0         0         0         0         0         0
         0         0         0         0         0         0         0         0
         0         0         0         0         0         0         0         0
         0         0         0         0         0         0         0         0
         0         0         0         0         0         0         0         0
         0         0         0         0         0         0         0         0
         0         0         0         0         0         0         0         0
         0         0         0         0         0         0         0         0
         0         0         0         0         0         0         0         0
         0         0         0         0         0         0         0         0
         0         0         0         0         0         0         0         0
         0         0         0         0         0         0         0         0
         0         0         0         0         0         0         0         0
         0         0         0         0         0         0         0         0
         0         0         0         0         0         0         0         0
         0         0         0         0         0         0         0         0
         0         0         0         0         0         0         0         0
         0         0         0         0         0         0         0         0
         0         0         0         0         0         0         0         0
         0         0         0         0         0         0         0         0
         0         0         0         0         0         0         0         0
         0         0         0         0         0         0         0         0
         0         0         0         0         0         0         0         0
         0         0         0         0         0         0         0         0
         0         0         0         0         0         0         0         0
         0         0         0         0         0         0         0         0
         0         0         0         0         0         0         0         0
         0         0         0         0         0         0         0         0
         0         0         0         0         0         0         0         0
         0         0         0         0         0         0         0         0
         0         0         0         0         0         0         0         0
         0         0         0         0         0         0         0         0
         0         0         0         0         0         0         0         0
         0         0         0         0         0         0         0         0
         0         0         0         0         0         0         0         0
         0         0         0         0         0         0         0         0
         0         0         0         0         0         0         0         0
         0         0         0         0         0         0         0         0
         0         0         0         0         0         0         0         0
         0         0         0         0         0         0         0         0
         0         0         0         0         0         0         0         0
         0         0         0         0         0         0         0         0
         0         0         0         0         0         0         0         0
         0         0         0         0         0         0         0         0
         0         0         0         0         0         0         0         0
         0         0         0         0         0         0         0         0
         0         0         0         0         0         0         0         0
         0         0         0         0         0         0         0         0
         0         0         0         0         0         0         0         0
         0         0         0         0         0         0         0         0
         0         0         0         0         0         0         0         0
         0         0         0         0         0         0         0         0
         0         0         0         0         0         0         0         0
         0         0         0         0         0         0         0         0
         0         0         0         0         0         0         0         0
         0         0         0         0         0         0         0         0
         0         0         0         0         0         0         0         0
         0         0         0         0         0         0         0         0
         0         0         0         0         0         0         0         0
         0         0         0         0         0         0         0         0
         0         0         0         0         0         0         0         0
         0         0         0         0         0         0         0         0
         0         0         0         0         0         0         0         0
         0         0         0         0         0         0         0         0
         0         0         0         0         0         0         0         0
         0         0         0         0         0         0         0         0
         0         0         0         0         0         0         0         0
         0         0         0         0         0         0         0         0
         0         0         0         0         0         0         0         0
         0         0         0         0         0         0         0         0
         0         0         0         0         0         0         0         0
         0         0         0         0         0         0         0         0
         0         0         0         0         0         0         0         0
         0         0         0         0         0         0         0         0
         0         0         0         0         0         0         0         0
         0         0         0         0         0         0         0         0
         0         0         0         0         0         0         0         0
         0         0         0         0         0         0         0         0
         0         0         0         0         0         0         0         0
         0         0         0         0         0         0         0         0
         0         0         0         0         0         0         0         0
         0         0         0         0         0         0         0         0
         0         0         0         0         0         0         0         0
         0         0         0         0         0         0         0         0
         0         0         0         0         0         0         0         0
         0         0         0         0         0         0         0         0
         0         0         0         0         0         0         0         0
         0         0         0         0         0         0         0         0
         0         0         0         0         0         0         0         0
         0         0         0         0         0         0         0         0
         0         0         0         0         0         0         0         0
         0         0         0         0         0         0         0         0
         0         0         0         0         0         0         0         0
         0         0         0         0         0         0         0         0
         0         0         0         0         0         0         0         0
         0         0         0         0         0         0         0         0
         0         0         0         0         0         0         0         0
         0         0         0         0         0         0         0         0
         0         0         0         0         0         0         0         0
         0         0         0         0         0         0         0         0
         0         0         0         0         0         0         0         0
         0         0         0         0         0         0         0         0
         0         0         0         0         0         0         0         0
         0         0         0         0         0         0         0         0
         0         0         0         0         0         0         0         0
         0         0         0         0         0         0         0         0
         0         0         0         0         0         0         0         0
         0         0         0         0         0         0         0         0
         0         0         0         0         0         0         0         0
         0         0         0         0         0         0         0         0
         0         0         0         0         0         0         0         0
         0         0         0         0         0         0         0         0
         0         0         0         0         0         0         0         0
         0         0         0         0         0         0         0         0
         0         0         0         0         0         0         0         0
         0         0         0         0         0         0         0         0
         0         0         0         0         0         0         0         0
         0         0         0         0         0         0         0         0
         0         0         0         0         0         0         0         0
         0         0         0         0         0         0         0         0
         0         0         0         0         0         0         0         0
         0         0         0         0         0         0         0         0
         0         0         0         0         0         0         0         0
         0         0         0         0         0         0         0         0
         0         0         0         0         0         0         0         0
         0         0         0         0         0         0         0         0
         0         0         0         0         0         0         0         0
         0         0         0         0         0         0         0         0
         0         0         0         0         0         0         0         0
         0         0         0         0         0         0         0         0
         0         0         0         0         0         0         0         0
         0         0         0         0         0         0         0         0
         0         0         0         0         0         0         0         0
         0         0         0         0         0         0         0         0
         0         0         0         0         0         0         0         0
         0         0         0         0         0         0         0         0
         0         0         0         0         0         0         0         0
         0         0         0         0         0         0         0         0
         0         0         0         0         0         0         0         0
         0         0         0         0         0         0         0         0
         0         0         0         0         0         0         0         0
         0         0         0         0         0         0         0         0
         0         0         0         0         0         0         0         0
         0         0         0         0         0         0         0         0
         0         0         0         0         0         0         0         0
         0         0         0         0         0         0         0         0
         0         0         0         0         0         0         0         0
         0         0         0         0         0         0         0         0
         0         0         0         0         0         0         0         0
         0         0         0         0         0         0         0         0
         0         0         0         0         0         0         0         0
         0         0         0         0         0         0         0         0
         0         0         0         0         0         0         0         0
         0         0         0         0         0         0         0         0
         0         0         0         0         0         0         0         0
         0         0         0         0         0         0         0         0
         0         0         0         0         0         0         0         0
         0         0         0         0         0         0         0         0
         0         0         0         0         0         0         0         0
         0         0         0         0         0         0         0         0
         0         0         0         0         0         0         0         0
         0         0         0         0         0         0         0         0
         0         0         0         0         0         0         0         0
         0         0         0         0         0         0         0         0
         0         0         0         0         0         0         0         0
         0         0         0         0         0         0         0         0
         0         0         0         0         0         0         0         0
         0         0         0         0         0         0         0         0
         0         0         0         0         0         0         0         0
         0         0         0         0         0         0         0         0
         0         0         0         0         0         0         0         0
         0         0         0         0         0         0         0         0
         0         0         0         0         0         0         0         0
         0         0         0         0         0         0         0         0
         0         0         0         0         0         0         0         0
         0         0         0         0         0         0         0         0
         0         0         0         0         0         0         0         0
         0         0         0         0         0         0         0         0
         0         0         0         0         0         0         0         0
         0         0         0         0         0         0         0         0
         0         0         0         0         0         0         0         0
         0         0         0         0         0         0         0         0
         0         0         0         0         0         0         0         0
         0         0         0         0         0         0         0         0
         0         0         0         0         0         0         0         0
         0         0         0         0         0         0         0         0
         0         0         0         0         0         0         0         0
         0         0         0         0         0         0         0         0
         0         0         0         0         0         0         0         0
         0         0         0         0         0         0         0         0
         0         0         0         0         0         0         0         0
         0         0         0         0         0         0         0         0
         0         0         0         0         0         0         0         0
         0         0         0         0         0         0         0         0
         0         0         0         0         0         0         0         0
         0         0         0         0         0         0         0         0
         0         0         0         0         0         0         0         0
         0         0         0         0         0         0         0         0
         0         0         0         0         0         0         0         0
         0         0         0         0         0         0         0         0
         0         0         0         0         0         0         0         0
         0         0         0         0         0         0         0         0
         0         0         0         0         0         0         0         0
         0         0         0         0         0         0         0         0
         0         0         0         0         0         0         0         0
         0         0         0         0         0         0         0         0
         0         0         0         0         0         0         0         0
         0         0         0         0         0         0         0         0
         0         0         0         0         0         0         0         0
         0         0         0         0         0         0         0         0
         0         0         0         0         0         0         0         0
         0         0         0         0         0         0         0         0
         0         0         0         0         0         0         0         0
         0         0         0         0         0         0         0         0
         0         0         0         0         0         0         0         0
         0         0         0         0         0         0         0         0
         0         0         0         0         0         0         0         0
         0         0         0         0         0         0         0         0
         0         0         0         0         0         0         0         0
         0         0         0         0         0         0         0         0
         0         0         0         0         0         0         0         0
         0         0         0         0         0         0         0         0
         0         0         0         0         0         0         0         0
         0         0         0         0         0         0         0         0
         0         0         0         0         0         0         0         0
         0         0         0         0         0         0         0         0
         0         0         0         0         0         0         0         0
         0         0         0         0         0         0         0         0
         0         0         0         0         0         0         0         0
         0         0         0         0         0         0         0         0
         0         0         0         0         0         0         0         0
         0         0         0         0         0         0         0         0
         0         0         0         0         0         0         0         0
         0         0         0         0         0         0         0         0
         0         0         0         0         0         0         0         0
         0         0         0         0         0         0         0         0
         0         0         0         0         0         0         0         0
         0         0         0         0         0         0         0         0
         0         0         0         0         0         0         0         0
         0         0         0         0         0         0         0         0
         0         0         0         0         0         0         0         0
         0         0         0         0         0         0         0         0
         0         0         0         0         0         0         0         0
         0         0         0         0         0         0         0         0
         0         0         0         0         0         0         0         0
         0         0         0         0         0         0         0         0
         0         0         0         0         0         0         0         0
         0         0         0         0         0         0         0         0
         0         0         0         0         0         0         0         0
         0         0         0         0         0         0         0         0
         0         0         0         0         0         0         0         0
         0         0         0         0         0         0         0         0
         0         0         0         0         0         0         0         0
         0         0         0         0         0         0         0         0
         0         0         0         0         0         0         0         0
         0         0         0         0         0         0         0         0
         0         0         0         0         0         0         0         0
         0         0         0         0         0         0         0         0
         0         0         0         0         0         0         0         0
         0         0         0         0         0         0         0         0
         0         0         0         0         0         0         0         0
         0         0         0         0         0         0         0         0
         0         0         0         0         0         0         0         0
         0         0         0         0         0         0         0         0
         0         0         0         0         0         0         0         0
         0         0         0         0         0         0         0         0
         0         0         0         0         0         0         0         0
         0         0         0         0         0         0         0         0
         0         0         0         0         0         0         0         0
         0         0         0         0         0         0         0         0
         0         0         0         0         0         0         0         0
         0         0         0         0         0         0         0         0
         0         0         0         0         0         0         0         0
         0         0         0         0         0         0         0         0
         0         0         0         0         0         0         0         0
         0         0         0         0         0         0         0         0
         0         0         0         0         0         0         0         0
         0         0         0         0         0         0         0         0
         0         0         0         0         0         0         0         0
         0         0         0         0         0         0         0         0
         0         0         0         0         0         0         0         0
         0         0         0         0         0         0         0         0
         0         0         0         0         0         0         0         0
         0         0         0         0         0         0         0         0
         0         0         0         0         0         0         0         0
         0         0         0         0         0         0         0         0
         0         0         0         0         0         0         0         0
         0         0         0         0         0         0         0         0
         0         0         0         0         0         0         0         0
         0         0         0         0         0         0         0         0
         0         0         0         0         0         0         0         0
         0         0         0         0         0         0         0         0
         0         0         0         0         0         0         0         0
         0         0         0         0         0         0         0         0
         0         0         0         0         0         0         0         0
         0         0         0         0         0         0         0         0
         0         0         0         0         0         0         0         0
         0         0         0         0         0         0         0         0
         0         0         0         0         0         0         0         0
         0         0         0         0         0         0         0         0
         0         0         0         0         0         0         0         0
         0         0         0         0         0         0         0         0
         0         0         0         0         0         0         0         0
         0         0         0         0         0         0         0         0
         0         0         0         0         0         0         0         0
         0         0         0         0         0         0         0         0
         0         0         0         0         0         0         0         0
         0         0         0         0         0         0         0         0
         0         0         0         0         0         0         0         0
         0         0         0         0         0         0         0         0
         0         0         0         0         0         0         0         0
         0         0         0         0         0         0         0         0
         0         0         0         0         0         0         0         0
         0         0         0         0         0         0         0         0
         0         0         0         0         0         0         0         0
         0         0         0         0         0         0         0         0
         0         0         0         0         0         0         0         0
         0         0         0         0         0         0         0         0
         0         0         0         0         0         0         0         0
         0         0         0         0         0         0         0         0
         0         0         0         0         0         0         0         0
         0         0         0         0         0         0         0         0
         0         0         0         0         0         0         0         0
         0         0         0         0         0         0         0         0
         0         0         0         0         0         0         0         0
         0         0         0         0         0         0         0         0
         0         0         0         0         0         0         0         0
         0         0         0         0         0         0         0         0
         0         0         0         0         0         0         0         0
         0         0         0         0         0         0         0         0
         0         0         0         0         0         0         0         0
         0         0         0         0         0         0         0         0
         0         0         0         0         0         0         0         0
         0         0         0         0         0         0         0         0
         0         0         0         0         0         0         0         0
         0         0         0         0         0         0         0         0
         0         0         0         0         0         0         0         0
         0         0         0         0         0         0         0         0
         0         0         0         0         0         0         0         0
         0         0         0         0         0         0         0         0
         0         0         0         0         0         0         0         0
         0         0         0         0         0         0         0         0
         0         0         0         0         0         0         0         0
         0         0         0         0         0         0         0         0
         0         0         0         0         0         0         0         0
         0         0         0         0         0         0         0         0
         0         0         0         0         0         0         0         0
         0         0         0         0         0         0         0         0
         0         0         0         0         0         0         0         0
         0         0         0         0         0         0         0         0
         0         0         0         0         0         0         0         0
         0         0         0         0         0         0         0         0
         0         0         0         0         0         0         0         0
         0         0         0         0         0         0         0         0
         0         0         0         0         0         0         0         0
         0         0         0         0         0         0         0         0
         0         0         0         0         0         0         0         0
         0         0         0         0         0         0         0         0
         0         0         0         0         0         0         0         0
         0         0         0         0         0         0         0         0
         0         0         0         0         0         0         0         0
         0         0         0         0         0         0         0         0
         0         0         0         0         0         0         0         0
         0         0         0         0         0         0         0         0
         0         0         0         0         0         0         0         0
         0         0         0         0         0         0         0         0
         0         0         0         0         0         0         0         0
         0         0         0         0         0         0         0         0
         0         0         0         0         0         0         0         0
         0         0         0         0         0         0         0         0
         0         0         0         0         0         0         0         0
         0         0         0         0         0         0         0         0
         0         0         0         0         0         0         0         0
         0         0         0         0         0         0         0         0
         0         0         0         0         0         0         0         0
         0         0         0         0         0         0         0         0
         0         0         0         0         0         0         0         0
         0         0         0         0         0         0         0         0
         0         0         0         0         0         0         0         0
         0         0         0         0         0         0         0         0
         0         0         0         0         0         0         0         0
         0         0         0         0         0         0         0         0
         0         0         0         0         0         0         0         0
         0         0         0         0         0         0         0         0
         0         0         0         0         0         0         0         0
         0         0         0         0         0         0         0         0
         0         0         0         0         0         0         0         0
         0         0         0         0         0         0         0         0
         0         0         0         0         0         0         0         0
         0         0         0         0         0         0         0         0
         0         0         0         0         0         0         0         0
         0         0         0         0         0         0         0         0
         0         0         0         0         0         0         0         0
         0         0         0         0         0         0         0         0
         0         0         0         0         0         0         0         0
         0         0         0         0         0         0         0         0
         0         0         0         0         0         0         0         0
         0         0         0         0         0         0         0         0
         0         0         0         0         0         0         0         0
         0         0         0         0         0         0         0         0
         0         0         0         0         0         0         0         0
         0         0         0         0         0         0         0         0
         0         0         0         0         0         0         0         0
         0         0         0         0         0         0         0         0
         0         0         0         0         0         0         0         0
         0         0         0         0         0         0         0         0
         0         0         0         0         0         0         0         0
         0         0         0         0         0         0         0         0
         0         0         0         0         0         0         0         0
         0         0         0         0         0         0         0         0
         0         0         0         0         0         0         0         0
         0         0         0         0         0         0         0         0
         0         0         0         0         0         0         0         0
         0         0         0         0         0         0         0         0
         0         0         0         0         0         0         0         0
         0         0         0         0         0         0         0         0
         0         0         0         0         0         0         0         0
         0         0         0         0         0         0         0         0
         0         0         0         0         0         0         0         0
         0         0         0         0         0         0         0         0
         0         0         0         0         0         0         0         0
         0         0         0         0         0         0         0         0
         0         0         0         0         0         0         0         0
         0         0         0         0         0         0         0         0
         0         0         0         0         0         0         0         0
         0         0         0         0         0         0         0         0
         0         0         0         0         0         0         0         0
         0         0         0         0         0         0         0         0
         0         0         0         0         0         0         0         0
         0         0         0         0         0         0         0         0
         0         0         0         0         0         0         0         0
         0         0         0         0         0         0         0         0
         0         0         0         0         0         0         0         0
         0         0         0         0         0         0         0         0
         0         0         0         0         0         0         0         0
         0         0         0         0         0         0         0         0
         0         0         0         0         0         0         0         0
         0         0         0         0         0         0         0         0
         0         0         0         0         0         0         0         0
         0         0         0         0         0         0         0         0
         0         0         0         0         0         0         0         0
         0         0         0         0         0         0         0         0
         0         0         0         0         0         0         0         0
         0         0         0         0         0         0         0         0
         0         0         0         0         0         0         0         0
         0         0         0         0         0         0         0         0
         0         0         0         0         0         0         0         0
         0         0         0         0         0         0         0         0
         0         0         0         0         0         0         0         0
         0         0         0         0         0         0         0         0
         0         0         0         0         0         0         0         0
         0         0         0         0         0         0         0         0
         0         0         0         0         0         0         0         0
         0         0         0         0         0         0         0         0
         0         0         0         0         0         0         0         0
         0         0         0         0         0         0         0         0
         0         0         0         0         0         0         0         0
         0         0         0         0         0         0         0         0
         0         0         0         0         0         0         0         0
         0         0         0         0         0         0         0         0
         0         0         0         0         0         0         0         0
         0         0         0         0         0         0         0         0
         0         0         0         0         0         0         0         0
         0         0         0         0         0         0         0         0
         0         0         0         0         0         0         0         0
         0         0         0         0         0         0         0         0
         0         0         0         0         0         0         0         0
         0         0         0         0         0         0         0         0
         0         0         0         0         0         0         0         0
         0         0         0         0         0         0         0         0
         0         0         0         0         0         0         0         0
         0         0         0         0         0         0         0         0
         0         0         0         0         0         0         0         0
         0         0         0         0         0         0         0         0
         0         0         0         0         0         0         0         0
         0         0         0         0         0         0         0         0
         0         0         0         0         0         0         0         0
         0         0         0         0         0         0         0         0
         0         0         0         0         0         0         0         0
         0         0         0         0         0         0         0         0
         0         0         0         0         0         0         0         0
         0         0         0         0         0         0         0         0
         0         0         0         0         0         0         0         0
         0         0         0         0         0         0         0         0
         0         0         0         0         0         0         0         0
         0         0         0         0         0         0         0         0
         0         0         0         0         0         0         0         0
         0         0         0         0         0         0         0         0
         0         0         0         0         0         0         0         0
         0         0         0         0         0         0         0         0
         0         0         0         0         0         0         0         0
         0         0         0         0         0         0         0         0
         0         0         0         0         0         0         0         0
         0         0         0         0         0         0         0         0
         0         0         0         0         0         0         0         0
         0         0         0         0         0         0         0         0
         0         0         0         0         0         0         0         0
         0         0         0         0         0         0         0         0
         0         0         0         0         0         0         0         0
         0         0         0         0         0         0         0         0
         0         0         0         0         0         0         0         0
         0         0         0         0         0         0         0         0
         0         0         0         0         0         0         0         0
         0         0         0         0         0         0         0         0
         0         0         0         0         0         0         0         0
         0         0         0         0         0         0         0         0
         0         0         0         0         0         0         0         0
         0         0         0         0         0         0         0         0
         0         0         0         0         0         0         0         0
         0         0         0         0         0         0         0         0
         0         0         0         0         0         0         0         0
         0         0         0         0         0         0         0         0
         0         0         0         0         0         0         0         0
         0         0         0         0         0         0         0         0
         0         0         0         0         0         0         0         0
         0         0         0         0         0         0         0         0
         0         0         0         0         0         0         0         0
         0         0         0         0         0         0         0         0
         0         0         0         0         0         0         0         0
         0         0         0         0         0         0         0         0
         0         0         0         0         0         0         0         0
         0         0         0         0         0         0         0         0
         0         0         0         0         0         0         0         0
         0         0         0         0         0         0         0         0
         0         0         0         0         0         0         0         0
         0         0         0         0         0         0         0         0
         0         0         0         0         0         0         0         0
         0         0         0         0         0         0         0         0
         0         0         0         0         0         0         0         0
         0         0         0         0         0         0         0         0
         0         0         0         0         0         0         0         0
         0         0         0         0         0         0         0         0
         0         0         0         0         0         0         0         0
         0         0         0         0         0         0         0         0
         0         0         0         0         0         0         0         0
         0         0         0         0         0         0         0         0
         0         0         0         0         0         0         0         0
         0         0         0         0         0         0         0         0
         0         0         0         0         0         0         0         0
         0         0         0         0         0         0         0         0
         0         0         0         0         0         0         0         0
         0         0         0         0         0         0         0         0
         0         0         0         0         0         0         0         0
         0         0         0         0         0         0         0         0
         0         0         0         0         0         0         0         0
         0         0         0         0         0         0         0         0
         0         0         0         0         0         0         0         0
         0         0         0         0         0         0         0         0
         0         0         0         0         0         0         0         0
         0         0         0         0         0         0         0         0
         0         0         0         0         0         0         0         0
         0         0         0         0         0         0         0         0
         0         0         0         0         0         0         0         0
         0         0         0         0         0         0         0         0
         0         0         0         0         0         0         0         0
         0         0         0         0         0         0         0         0
         0         0         0         0         0         0         0         0
         0         0         0         0         0         0         0         0
         0         0         0         0         0         0         0         0
         0         0         0         0         0         0         0         0
         0         0         0         0         0         0         0         0
         0         0         0         0         0         0         0         0
         0         0         0         0         0         0         0         0
         0         0         0         0         0         0         0         0
         0         0         0         0         0         0         0         0
         0         0         0         0         0         0         0         0
         0         0         0         0         0         0         0         0
         0         0         0         0         0         0         0         0
         0         0         0         0         0         0         0         0
         0         0         0         0         0         0         0         0
         0         0         0         0         0         0         0         0
         0         0         0         0         0         0         0         0
         0         0         0         0         0         0         0         0
         0         0         0         0         0         0         0         0
         0         0         0         0         0         0         0         0
         0         0         0         0         0         0         0         0
         0         0         0         0         0         0         0         0
         0         0         0         0         0         0         0         0
         0         0         0         0         0         0         0         0
         0         0         0         0         0         0         0         0
         0         0         0         0         0         0         0         0
         0         0         0         0         0         0         0         0
         0         0         0         0         0         0         0         0
         0         0         0         0         0         0         0         0
         0         0         0         0         0         0         0         0
         0         0         0         0         0         0         0         0
         0         0         0         0         0         0         0         0
         0         0         0         0         0         0         0         0
         0         0         0         0         0         0         0         0
         0         0         0         0         0         0         0         0
         0         0         0         0         0         0         0         0
         0         0         0         0         0         0         0         0
         0         0         0         0         0         0         0         0
         0         0         0         0         0         0         0         0
         0         0         0         0         0         0         0         0
         0         0         0         0         0         0         0         0
         0         0         0         0         0         0         0         0
         0         0         0         0         0         0         0         0
         0         0         0         0         0         0         0         0
         0         0         0         0         0         0         0         0
         0         0         0         0         0         0         0         0
         0         0         0         0         0         0         0         0
         0         0         0         0         0         0         0         0
         0         0         0         0         0         0         0         0
         0         0         0         0         0         0         0         0
         0         0         0         0         0         0         0         0
         0         0         0         0         0         0         0         0
         0         0         0         0         0         0         0         0
         0         0         0         0         0         0         0         0
         0         0         0         0         0         0         0         0
         0         0         0         0         0         0         0         0
         0         0         0         0         0         0         0         0
         0         0         0         0         0         0         0         0
         0         0         0         0         0         0         0         0
         0         0         0         0         0         0         0         0
         0         0         0         0         0         0         0         0
         0         0         0         0         0         0         0         0
         0         0         0         0         0         0         0         0
         0         0         0         0         0         0         0         0
         0         0         0         0         0         0         0         0
         0         0         0         0         0         0         0         0
         0         0         0         0         0         0         0         0
         0         0         0         0         0         0         0         0
         0         0         0         0         0         0         0         0
         0         0         0         0         0         0         0         0
         0         0         0         0         0         0         0         0
         0         0         0         0         0         0         0         0
         0         0         0         0         0         0         0         0
         0         0         0         0         0         0         0         0
         0         0         0         0         0         0         0         0
         0         0         0         0         0         0         0         0
         0         0         0         0         0         0         0         0
         0         0         0         0         0         0         0         0
         0         0         0         0         0         0         0         0
         0         0         0         0         0         0         0         0
         0         0         0         0         0         0         0         0
         0         0         0         0         0         0         0         0
         0         0         0         0         0         0         0         0
         0         0         0         0         0         0         0         0
         0         0         0         0         0         0         0         0
         0         0         0         0         0         0         0         0
         0         0         0         0         0         0         0         0
         0         0         0         0         0         0         0         0
         0         0         0         0         0         0         0         0
         0         0         0         0         0         0         0         0
         0         0         0         0         0         0         0         0
         0         0         0         0         0         0         0         0
         0         0         0         0         0         0         0         0
         0         0         0         0         0         0         0         0
         0         0         0         0         0         0         0         0
         0         0         0         0         0         0         0         0
         0         0         0         0         0         0         0         0
         0         0         0         0         0         0         0         0
         0         0         0         0         0         0         0         0
         0         0         0         0         0         0         0         0
         0         0         0         0         0         0         0         0
         0         0         0         0         0         0         0         0
         0         0         0         0         0         0         0         0
         0         0         0         0         0         0         0         0
         0         0         0         0         0         0         0         0
         0         0         0         0         0         0         0         0
         0         0         0         0         0         0         0         0
         0         0         0         0         0         0         0         0
         0         0         0         0         0         0         0         0
         0         0         0         0         0         0         0         0
         0         0         0         0         0         0         0         0
         0         0         0         0         0         0         0         0
         0         0         0         0         0         0         0         0
         0         0         0         0         0         0         0         0
         0         0         0         0         0         0         0         0
         0         0         0         0         0         0         0         0
         0         0         0         0         0         0         0         0
         0         0         0         0         0         0         0         0
         0         0         0         0         0         0         0         0
         0         0         0         0         0         0         0         0
         0         0         0         0         0         0         0         0
         0         0         0         0         0         0         0         0
         0         0         0         0         0         0         0         0
         0         0         0         0         0         0         0         0
         0         0         0         0         0         0         0         0
         0         0         0         0         0         0         0         0
         0         0         0         0         0         0         0         0
         0         0         0         0         0         0         0         0
         0         0         0         0         0         0         0         0
         0         0         0         0         0         0         0         0
         0         0         0         0         0         0         0         0
         0         0         0         0         0         0         0         0
         0         0         0         0         0         0         0         0
         0         0         0         0         0         0         0         0
         0         0         0         0         0         0         0         0
         0         0         0         0         0         0         0         0
         0         0         0         0         0         0         0         0
         0         0         0         0         0         0         0         0
         0         0         0         0         0         0         0         0
         0         0         0         0         0         0         0         0
         0         0         0         0         0         0         0         0
         0         0         0         0         0         0         0         0
         0         0         0         0         0         0         0         0
         0         0         0         0         0         0         0         0
         0         0         0         0         0         0         0         0
         0         0         0         0         0         0         0         0
         0         0         0         0         0         0         0         0
         0         0         0         0         0         0         0         0
         0         0         0         0         0         0         0         0
         0         0         0         0         0         0         0         0
         0         0         0         0         0         0         0         0
         0         0         0         0         0         0         0         0
         0         0         0         0         0         0         0         0
         0         0         0         0         0         0         0         0
         0         0         0         0         0         0         0         0
         0         0         0         0         0         0         0         0
         0         0         0         0         0         0         0         0
         0         0         0         0         0         0         0         0
         0         0         0         0         0         0         0         0
         0         0         0         0         0         0         0         0
         0         0         0         0         0         0         0         0
         0         0         0         0         0         0         0         0
         0         0         0         0         0         0         0         0
         0         0         0         0         0         0         0         0
         0         0         0         0         0         0         0         0
         0         0         0         0         0         0         0         0
         0         0         0         0         0         0         0         0
         0         0         0         0         0         0         0         0
         0         0         0         0         0         0         0         0
         0         0         0         0         0         0         0         0
         0         0         0         0         0         0         0         0
         0         0         0         0         0         0         0         0
         0         0         0         0         0         0         0         0
         0         0         0         0         0         0         0         0
         0         0         0         0         0         0         0         0
         0         0         0         0         0         0         0         0
         0         0         0         0         0         0         0         0
         0         0         0         0         0         0         0         0
         0         0         0         0         0         0         0         0
         0         0         0         0         0         0         0         0
         0         0         0         0         0         0         0         0
         0         0         0         0         0         0         0         0
         0         0         0         0         0         0         0         0
         0         0         0         0         0         0         0         0
         0         0         0         0         0         0         0         0
         0         0         0         0         0         0         0         0
         0         0         0         0         0         0         0         0
         0         0         0         0         0         0         0         0
         0         0         0         0         0         0         0         0
         0         0         0         0         0         0         0         0
         0         0         0         0         0         0         0         0
         0         0         0         0         0         0         0         0
         0         0         0         0         0         0         0         0
         0         0         0         0         0         0         0         0
         0         0         0         0         0         0         0         0
         0         0         0         0         0         0         0         0
         0         0         0         0         0         0         0         0
         0         0         0         0         0         0         0         0
         0         0         0         0         0         0         0         0
         0         0         0         0         0         0         0         0
         0         0         0         0         0         0         0         0
         0         0         0         0         0         0         0         0
         0         0         0         0         0         0         0         0
         0         0         0         0         0         0         0         0
         0         0         0         0         0         0         0         0
         0         0         0         0         0         0         0         0
         0         0         0         0         0         0         0         0
         0         0         0         0         0         0         0         0
         0         0         0         0         0         0         0         0
         0         0         0         0         0         0         0         0
         0         0         0         0         0         0         0         0
         0         0         0         0         0         0         0         0
         0         0         0         0         0         0         0         0
         0         0         0         0         0         0         0         0
         0         0         0         0         0         0         0         0
         0         0         0         0         0         0         0         0
         0         0         0         0         0         0         0         0
         0         0         0         0         0         0         0         0
         0         0         0         0         0         0         0         0
         0         0         0         0         0         0         0         0
         0         0         0         0         0         0         0         0
         0         0         0         0         0         0         0         0
         0         0         0         0         0         0         0         0
         0         0         0         0         0         0         0         0
         0         0         0         0         0         0         0         0
         0         0         0         0         0         0         0         0
         0         0         0         0         0         0         0         0
         0         0         0         0         0         0         0         0
         0         0         0         0         0         0         0         0
         0         0         0         0         0         0         0         0
         0         0         0         0         0         0         0         0
         0         0         0         0         0         0         0         0
         0         0         0         0         0         0         0         0
         0         0         0         0         0         0         0         0
         0         0         0         0         0         0         0         0
         0         0         0         0         0         0         0         0
         0         0         0         0         0         0         0         0
         0         0         0         0         0         0         0         0
         0         0         0         0         0         0         0         0
         0         0         0         0         0         0         0         0
         0         0         0         0         0         0         0         0
         0         0         0         0         0         0         0         0
         0         0         0         0         0         0         0         0
         0         0         0         0         0         0         0         0
         0         0         0         0         0         0         0         0
         0         0         0         0         0         0         0         0
         0         0         0         0         0         0         0         0
         0         0         0         0         0         0         0         0
         0         0         0         0         0         0         0         0
         0         0         0         0         0         0         0         0
         0         0         0         0         0         0         0         0
         0         0         0         0         0         0         0         0
         0         0         0         0         0         0         0         0
         0         0         0         0         0         0         0         0
         0         0         0         0         0         0         0         0
         0         0         0         0         0         0         0         0
         0         0         0         0         0         0         0         0
         0         0         0         0         0         0         0         0
         0         0         0         0         0         0         0         0
         0         0         0         0         0         0         0         0
         0         0         0         0         0         0         0         0
         0         0         0         0         0         0         0         0
         0         0         0         0         0         0         0         0
         0         0         0         0         0         0         0         0
         0         0         0         0         0         0         0         0
         0         0         0         0         0         0         0         0
         0         0         0         0         0         0         0         0
         0         0         0         0         0         0         0         0
         0         0         0         0         0         0         0         0
         0         0         0         0         0         0         0         0
         0         0         0         0         0         0         0         0
         0         0         0         0         0         0         0         0
         0         0         0         0         0         0         0         0
         0         0         0         0         0         0         0         0
         0         0         0         0         0         0         0         0
         0         0         0         0         0         0         0         0
         0         0         0         0         0         0         0         0
         0         0         0         0         0         0         0         0
         0         0         0         0         0         0         0         0
         0         0         0         0         0         0         0         0
         0         0         0         0         0         0         0         0
         0         0         0         0         0         0         0         0
         0         0         0         0         0         0         0         0
         0         0         0         0         0         0         0         0
         0         0         0         0         0         0         0         0
         0         0         0         0         0         0         0         0
         0         0         0         0         0         0         0         0
         0         0         0         0         0         0         0         0
         0         0         0         0         0         0         0         0
         0         0         0         0         0         0         0         0
         0         0         0         0         0         0         0         0
         0         0         0         0         0         0         0         0
         0         0         0         0         0         0         0         0
         0         0         0         0         0         0         0         0
         0         0         0         0         0         0         0         0
         0         0         0         0         0         0         0         0
         0         0         0         0         0         0         0         0
         0         0         0         0         0         0         0         0
         0         0         0         0         0         0         0         0
         0         0         0         0         0         0         0         0
         0         0         0         0         0         0         0         0
         0         0         0         0         0         0         0         0
         0         0         0         0         0         0         0         0
         0         0         0         0         0         0         0         0
         0         0         0         0         0         0         0         0
         0         0         0         0         0         0         0         0
         0         0         0         0         0         0         0         0
         0         0         0         0         0         0         0         0
         0         0         0         0         0         0         0         0
         0         0         0         0         0         0         0         0
         0         0         0         0         0         0         0         0
         0         0         0         0         0         0         0         0
         0         0         0         0         0         0         0         0
         0         0         0         0         0         0         0         0
         0         0         0         0         0         0         0         0
         0         0         0         0         0         0         0         0
         0         0         0         0         0         0         0         0
         0         0         0         0         0         0         0         0
         0         0         0         0         0         0         0         0
         0         0         0         0         0         0         0         0
         0         0         0         0         0         0         0         0
         0         0         0         0         0         0         0         0
         0         0         0         0         0         0         0         0
         0         0         0         0         0         0         0         0
         0         0         0         0         0         0         0         0
         0         0         0         0         0         0         0         0
         0         0         0         0         0         0         0         0
         0         0         0         0         0         0         0         0
         0         0         0         0         0         0         0         0
         0         0         0         0         0         0         0         0
         0         0         0         0         0         0         0         0
         0         0         0         0         0         0         0         0
         0         0         0         0         0         0         0         0
         0         0         0         0         0         0         0         0
         0         0         0         0         0         0         0         0
         0         0         0         0         0         0         0         0
         0         0         0         0         0         0         0         0
         0         0         0         0         0         0         0         0
         0         0         0         0         0         0         0         0
         0         0         0         0         0         0         0         0
         0         0         0         0         0         0         0         0
         0         0         0         0         0         0         0         0
         0         0         0         0         0         0         0         0
         0         0         0         0         0         0         0         0
         0         0         0         0         0         0         0         0
         0         0         0         0         0         0         0         0
         0         0         0         0         0         0         0         0
         0         0         0         0         0         0         0         0
         0         0         0         0         0         0         0         0
         0         0         0         0         0         0         0         0
         0         0         0         0         0         0         0         0
         0         0         0         0         0         0         0         0
         0         0         0         0         0         0         0         0
         0         0         0         0         0         0         0         0
         0         0         0         0         0         0         0         0
         0         0         0         0         0         0         0         0
         0         0         0         0         0         0         0         0
         0         0         0         0         0         0         0         0
         0         0         0         0         0         0         0         0
         0         0         0         0         0         0         0         0
         0         0         0         0         0         0         0         0
         0         0         0         0         0         0         0         0
         0         0         0         0         0         0         0         0
         0         0         0         0         0         0         0         0
         0         0         0         0         0         0         0         0
         0         0         0         0         0         0         0         0
         0         0         0         0         0         0         0         0
         0         0         0         0         0         0         0         0
         0         0         0         0         0         0         0         0
         0         0         0         0         0         0         0         0
         0         0         0         0         0         0         0         0
         0         0         0         0         0         0         0         0
         0         0         0         0         0         0         0         0
         0         0         0         0         0         0         0         0
         0         0         0         0         0         0         0         0
         0         0         0         0         0         0         0         0
         0         0         0         0         0         0         0         0
         0         0         0         0         0         0         0         0
         0         0         0         0         0         0         0         0
         0         0         0         0         0         0         0         0
         0         0         0         0         0         0         0         0
         0         0         0         0         0         0         0         0
         0         0         0         0         0         0         0         0
         0         0         0         0         0         0         0         0
         0         0         0         0         0         0         0         0
         0         0         0         0         0         0         0         0
         0         0         0         0         0         0         0         0
         0         0         0         0         0         0         0         0
         0         0         0         0         0         0         0         0
         0         0         0         0         0         0         0         0
         0         0         0         0         0         0         0         0
         0         0         0         0         0         0         0         0
         0         0         0         0         0         0         0         0
         0         0         0         0         0         0         0         0
         0         0         0         0         0         0         0         0
         0         0         0         0         0         0         0         0
         0         0         0         0         0         0         0         0
         0         0         0         0         0         0         0         0
         0         0         0         0         0         0         0         0
         0         0         0         0         0         0         0         0
         0         0         0         0         0         0         0         0
         0         0         0         0         0         0         0         0
         0         0         0         0         0         0         0         0
         0         0         0         0         0         0         0         0
         0         0         0         0         0         0         0         0
         0         0         0         0         0         0         0         0
         0         0         0         0         0         0         0         0
         0         0         0         0         0         0         0         0
         0         0         0         0         0         0         0         0
         0         0         0         0         0         0         0         0
         0         0         0         0         0         0         0         0
         0         0         0         0         0         0         0         0
         0         0         0         0         0         0         0         0
         0         0         0         0         0         0         0         0
         0         0         0         0         0         0         0         0
         0         0         0         0         0         0         0         0
         0         0         0         0         0         0         0         0
         0         0         0         0         0         0         0         0
         0         0         0         0         0         0         0         0
         0         0         0         0         0         0         0         0
         0         0         0         0         0         0         0         0
         0         0         0         0         0         0         0         0
         0         0         0         0         0         0         0         0
         0         0         0         0         0         0         0         0
         0         0         0         0         0         0         0         0
         0         0         0         0         0         0         0         0
         0         0         0         0         0         0         0         0
         0         0         0         0         0         0         0         0
         0         0         0         0         0         0         0         0
         0         0         0         0         0         0         0         0
         0         0         0         0         0         0         0         0
         0         0         0         0         0         0         0         0
         0         0         0         0         0         0         0         0
         0         0         0         0         0         0         0         0
         0         0         0         0         0         0         0         0
         0         0         0         0         0         0         0         0
         0         0         0         0         0         0         0         0
         0         0         0         0         0         0         0         0
         0         0         0         0         0         0         0         0
         0         0         0         0         0         0         0         0
         0         0         0         0         0         0         0         0
         0         0         0         0         0         0         0         0
         0         0         0         0         0         0         0         0
         0         0         0         0         0         0         0         0
         0         0         0         0         0         0         0         0
         0         0         0         0         0         0         0         0
         0         0         0         0         0         0         0         0
         0         0         0         0         0         0         0         0
         0         0         0         0         0         0         0         0
         0         0         0         0         0         0         0         0
         0         0         0         0         0         0         0         0
         0         0         0         0         0         0         0         0
         0         0         0         0         0         0         0         0
         0         0         0         0         0         0         0         0
         0         0         0         0         0         0         0         0
         0         0         0         0         0         0         0         0
         0         0         0         0         0         0         0         0
         0         0         0         0         0         0         0         0
         0         0         0         0         0         0         0         0
         0         0         0         0         0         0         0         0
         0         0         0         0         0         0         0         0
         0         0         0         0         0         0         0         0
         0         0         0         0         0         0         0         0
         0         0         0         0         0         0         0         0
         0         0         0         0         0         0         0         0
         0         0         0         0         0         0         0         0
         0         0         0         0         0         0         0         0
         0         0         0         0         0         0         0         0
         0         0         0         0         0         0         0         0
         0         0         0         0         0         0         0         0
         0         0         0         0         0         0         0         0
         0         0         0         0         0         0         0         0
         0         0         0         0         0         0         0         0
         0         0         0         0         0         0         0         0
         0         0         0         0         0         0         0         0
         0         0         0         0         0         0         0         0
         0         0         0         0         0         0         0         0
         0         0         0         0         0         0         0         0
         0         0         0         0         0         0         0         0
         0         0         0         0         0         0         0         0
         0         0         0         0         0         0         0         0
         0         0         0         0         0         0         0         0
         0         0         0         0         0         0         0         0
         0         0         0         0         0         0         0         0
         0         0         0         0         0         0         0         0
         0         0         0         0         0         0         0         0
         0         0         0         0         0         0         0         0
         0         0         0         0         0         0         0         0
         0         0         0         0         0         0         0         0
         0         0         0         0         0         0         0         0
         0         0         0         0         0         0         0         0
         0         0         0         0         0         0         0         0
         0         0         0         0         0         0         0         0
         0         0         0         0         0         0         0         0
         0         0         0         0         0         0         0         0
         0         0         0         0         0         0         0         0
         0         0         0         0         0         0         0         0
         0         0         0         0         0         0         0         0
         0         0         0         0         0         0         0         0
         0         0         0         0         0         0         0         0
         0         0         0         0         0         0         0         0
         0         0         0         0         0         0         0         0
         0         0         0         0         0         0         0         0
         0         0         0         0         0         0         0         0
         0         0         0         0         0         0         0         0
         0         0         0         0         0         0         0         0
         0         0         0         0         0         0         0         0
         0         0         0         0         0         0         0         0
         0         0         0         0         0         0         0         0
         0         0         0         0         0         0         0         0
         0         0         0         0         0         0         0         0
         0         0         0         0         0         0         0         0
         0         0         0         0         0         0         0         0
         0         0         0         0         0         0         0         0
         0         0         0         0         0         0         0         0
         0         0         0         0         0         0         0         0
         0         0         0         0         0         0         0         0
         0         0         0         0         0         0         0         0
         0         0         0         0         0         0         0         0
         0         0         0         0         0         0         0         0
         0         0         0         0         0         0         0         0
         0         0         0         0         0         0         0         0
         0         0         0         0         0         0         0         0
         0         0         0         0         0         0         0         0
         0         0         0         0         0         0         0         0
         0         0         0         0         0         0         0         0
         0         0         0         0         0         0         0         0
         0         0         0         0         0         0         0         0
         0         0         0         0         0         0         0         0
         0         0         0         0         0         0         0         0
         0         0         0         0         0         0         0         0
         0         0         0         0         0         0         0         0
         0         0         0         0         0         0         0         0
         0         0         0         0         0         0         0         0
         0         0         0         0         0         0         0         0
         0         0         0         0         0         0         0         0
         0         0         0         0         0         0         0         0
         0         0         0         0         0         0         0         0
         0         0         0         0         0         0         0         0
         0         0         0         0         0         0         0         0
         0         0         0         0         0         0         0         0
         0         0         0         0         0         0         0         0
         0         0         0         0         0         0         0         0
         0         0         0         0         0         0         0         0
         0         0         0         0         0         0         0         0
         0         0         0         0         0         0         0         0
         0         0         0         0         0         0         0         0
         0         0         0         0         0         0         0         0
         0         0         0         0         0         0         0         0
         0         0         0         0         0         0         0         0
         0         0         0         0         0         0         0         0
         0         0         0         0         0         0         0         0
         0         0         0         0         0         0         0         0
         0         0         0         0         0         0         0         0
         0         0         0         0         0         0         0         0
         0         0         0         0         0         0         0         0
         0         0         0         0         0         0         0         0
         0         0         0         0         0         0         0         0
         0         0         0         0         0         0         0         0
         0         0         0         0         0         0         0         0
         0         0         0         0         0         0         0         0
         0         0         0         0         0         0         0         0
         0         0         0         0         0         0         0         0
         0         0         0         0         0         0         0         0
         0         0         0         0         0         0         0         0
         0         0         0         0         0         0         0         0
         0         0         0         0         0         0         0         0
         0         0         0         0         0         0         0         0
         0         0         0         0         0         0         0         0
         0         0         0         0         0         0         0         0
         0         0         0         0         0         0         0         0
         0         0         0         0         0         0         0         0
         0         0         0         0         0         0         0         0
         0         0         0         0         0         0         0         0
         0         0         0         0         0         0         0         0
         0         0         0         0         0         0         0         0
         0         0         0         0         0         0         0         0
         0         0         0         0         0         0         0         0
         0         0         0         0         0         0         0         0
         0         0         0         0         0         0         0         0
         0         0         0         0         0         0         0         0
         0         0         0         0         0         0         0         0
         0         0         0         0         0         0         0         0
         0         0         0         0         0         0         0         0
         0         0         0         0         0         0         0         0
         0         0         0         0         0         0         0         0
         0         0         0         0         0         0         0         0
         0         0         0         0         0         0         0         0
         0         0         0         0         0         0         0         0
         0         0         0         0         0         0         0         0
         0         0         0         0         0         0         0         0
         0         0         0         0         0         0         0         0
         0         0         0         0         0         0         0         0
         0         0         0         0         0         0         0         0
         0         0         0         0         0         0         0         0
         0         0         0         0         0         0         0         0
         0         0         0         0         0         0         0         0
         0         0         0         0         0         0         0         0
         0         0         0         0         0         0         0         0
         0         0         0         0         0         0         0         0
         0         0         0         0         0         0         0         0
         0         0         0         0         0         0         0         0
         0         0         0         0         0         0         0         0
         0         0         0         0         0         0         0         0
         0         0         0         0         0         0         0         0
         0         0         0         0         0         0         0         0
         0         0         0         0         0         0         0         0
         0         0         0         0         0         0         0         0
         0         0         0         0         0         0         0         0
         0         0         0         0         0         0         0         0
         0         0         0         0         0         0         0         0
         0         0         0         0         0         0         0         0
         0         0         0         0         0         0         0         0
         0         0         0         0         0         0         0         0
         0         0         0         0         0         0         0         0
         0         0         0         0         0         0         0         0
         0         0         0         0         0         0         0         0
         0         0         0         0         0         0         0         0
         0         0         0         0         0         0         0         0
         0         0         0         0         0         0         0         0
         0         0         0         0         0         0         0         0
         0         0         0         0         0         0         0         0
         0         0         0         0         0         0         0         0
         0         0         0         0         0         0         0         0
         0         0         0         0         0         0         0         0
         0         0         0         0         0         0         0         0
         0         0         0         0         0         0         0         0
         0         0         0         0         0         0         0         0
         0         0         0         0         0         0         0         0
         0         0         0         0         0         0         0         0
         0         0         0         0         0         0         0         0
         0         0         0         0         0         0         0         0
         0         0         0         0         0         0         0         0
         0         0         0         0         0         0         0         0
         0         0         0         0         0         0         0         0
         0         0         0         0         0         0         0         0
         0         0         0         0         0         0         0         0
         0         0         0         0         0         0         0         0
         0         0         0         0         0         0         0         0
         0         0         0         0         0         0         0         0
         0         0         0         0         0         0         0         0
         0         0         0         0         0         0         0         0
         0         0         0         0         0         0         0         0
         0         0         0         0         0         0         0         0
         0         0         0         0         0         0         0         0
         0         0         0         0         0         0         0         0
         0         0         0         0         0         0         0         0
         0         0         0         0         0         0         0         0
         0         0         0         0         0         0         0         0
         0         0         0         0         0         0         0         0
         0         0         0         0         0         0         0         0
         0         0         0         0         0         0         0         0
         0         0         0         0         0         0         0         0
         0         0         0         0         0         0         0         0
         0         0         0         0         0         0         0         0
         0         0         0         0         0         0         0         0
         0         0         0         0         0         0         0         0
         0         0         0         0         0         0         0         0
         0         0         0         0         0         0         0         0
         0         0         0         0         0         0         0         0
         0         0         0         0         0         0         0         0
         0         0         0         0         0         0         0         0
         0         0         0         0         0         0         0         0
         0         0         0         0         0         0         0         0
         0         0         0         0         0         0         0         0
         0         0         0         0         0         0         0         0
         0         0         0         0         0         0         0         0
         0         0         0         0         0         0         0         0
         0         0         0         0         0         0         0         0
         0         0         0         0         0         0         0         0
         0         0         0         0         0         0         0         0
         0         0         0         0         0         0         0         0
         0         0         0         0         0         0         0         0
         0         0         0         0         0         0         0         0
         0         0         0         0         0         0         0         0
         0         0         0         0         0         0         0         0
         0         0         0         0         0         0         0         0
         0         0         0         0         0         0         0         0
         0         0         0         0         0         0         0         0
         0         0         0         0         0         0         0         0
         0         0         0         0         0         0         0         0
         0         0         0         0         0         0         0         0
         0         0         0         0         0         0         0         0
         0         0         0         0         0         0         0         0
         0         0         0         0         0         0         0         0
         0         0         0         0         0         0         0         0
         0         0         0         0         0         0         0         0
         0         0         0         0         0         0         0         0
         0         0         0         0         0         0         0         0
         0         0         0         0         0         0         0         0
         0         0         0         0         0         0         0         0
         0         0         0         0         0         0         0         0
         0         0         0         0         0         0         0         0
         0         0         0         0         0         0         0         0
         0         0         0         0         0         0         0         0
         0         0         0         0         0         0         0         0
         0         0         0         0         0         0         0         0
         0         0         0         0         0         0         0         0
         0         0         0         0         0         0         0         0
         0         0         0         0         0         0         0         0
         0         0         0         0         0         0         0         0
         0         0         0         0         0         0         0         0
         0         0         0         0         0         0         0         0
         0         0         0         0         0         0         0         0
         0         0         0         0         0         0         0         0
         0         0         0         0         0         0         0         0
         0         0         0         0         0         0         0         0
         0         0         0         0         0         0         0         0
         0         0         0         0         0         0         0         0
         0         0         0         0         0         0         0         0
         0         0         0         0         0         0         0         0
         0         0         0         0         0         0         0         0
         0         0         0         0         0         0         0         0
         0         0         0         0         0         0         0         0
         0         0         0         0         0         0         0         0
         0         0         0         0         0         0         0         0
         0         0         0         0         0         0         0         0
         0         0         0         0         0         0         0         0
         0         0         0         0         0         0         0         0
         0         0         0         0         0         0         0         0
         0         0         0         0         0         0         0         0
         0         0         0         0         0         0         0         0
         0         0         0         0         0         0         0         0
         0         0         0         0         0         0         0         0
         0         0         0         0         0         0         0         0
         0         0         0         0         0         0         0         0
         0         0         0         0         0         0         0         0
         0         0         0         0         0         0         0         0
         0         0         0         0         0         0         0         0
         0         0         0         0         0         0         0         0
         0         0         0         0         0         0         0         0
         0         0         0         0         0         0         0         0
         0         0         0         0         0         0         0         0
         0         0         0         0         0         0         0         0
         0         0         0         0         0         0         0         0
         0         0         0         0         0         0         0         0
         0         0         0         0         0         0         0         0
         0         0         0         0         0         0         0         0
         0         0         0         0         0         0         0         0
         0         0         0         0         0         0         0         0
         0         0         0         0         0         0         0         0
         0         0         0         0         0         0         0         0
         0         0         0         0         0         0         0         0
         0         0         0         0         0         0         0         0
         0         0         0         0         0         0         0         0
         0         0         0         0         0         0         0         0
         0         0         0         0         0         0         0         0
         0         0         0         0         0         0         0         0
         0         0         0         0         0         0         0         0
         0         0         0         0         0         0         0         0
         0         0         0         0         0         0         0         0
         0         0         0         0         0         0         0         0
         0         0         0         0         0         0         0         0
         0         0         0         0         0         0         0         0
         0         0         0         0         0         0         0         0
         0         0         0         0         0         0         0         0
         0         0         0         0         0         0         0         0
         0         0         0         0         0         0         0         0
         0         0         0         0         0         0         0         0
         0         0         0         0         0         0         0         0
         0         0         0         0         0         0         0         0
         0         0         0         0         0         0         0         0
         0         0         0         0         0         0         0         0
         0         0         0         0         0         0         0         0
         0         0         0         0         0         0         0         0
         0         0         0         0         0         0         0         0
         0         0         0         0         0         0         0         0
         0         0         0         0         0         0         0         0
         0         0         0         0         0         0         0         0
         0         0         0         0         0         0         0         0
         0         0         0         0         0         0         0         0
         0         0         0         0         0         0         0         0
         0         0         0         0         0         0         0         0
         0         0         0         0         0         0         0         0
         0         0         0         0         0         0         0         0
         0         0         0         0         0         0         0         0
         0         0         0         0         0         0         0         0
         0         0         0         0         0         0         0         0
         0         0         0         0         0         0         0         0
         0         0         0         0         0         0         0         0
         0         0         0         0         0         0         0         0
         0         0         0         0         0         0         0         0
         0         0         0         0         0         0         0         0
         0         0         0         0         0         0         0         0
         0         0         0         0         0         0         0         0
         0         0         0         0         0         0         0         0
         0         0         0         0         0         0         0         0
         0         0         0         0         0         0         0         0
         0         0         0         0         0         0         0         0
         0         0         0         0         0         0         0         0
         0         0         0         0         0         0         0         0
         0         0         0         0         0         0         0         0
         0         0         0         0         0         0         0         0
         0         0         0         0         0         0         0         0
         0         0         0         0         0         0         0         0
         0         0         0         0         0         0         0         0
         0         0         0         0         0         0         0         0
         0         0         0         0         0         0         0         0
         0         0         0         0         0         0         0         0
         0         0         0         0         0         0         0         0
         0         0         0         0         0         0         0         0
         0         0         0         0         0         0         0         0
         0         0         0         0         0         0         0         0
         0         0         0         0         0         0         0         0
         0         0         0         0         0         0         0         0
         0         0         0         0         0         0         0         0
         0         0         0         0         0         0         0         0
         0         0         0         0         0         0         0         0
         0         0         0         0         0         0         0         0
         0         0         0         0         0         0         0         0
         0         0         0         0         0         0         0         0
         0         0         0         0         0         0         0         0
         0         0         0         0         0         0         0         0
         0         0         0         0         0         0         0         0
         0         0         0         0         0         0         0         0
         0         0         0         0         0         0         0         0
         0         0         0         0         0         0         0         0
         0         0         0         0         0         0         0         0
         0         0         0         0         0         0         0         0
         0         0         0         0         0         0         0         0
         0         0         0         0         0         0         0         0
         0         0         0         0         0         0         0         0
         0         0         0         0         0         0         0         0
         0         0         0         0         0         0         0         0
         0         0         0         0         0         0         0         0
         0         0         0         0         0         0         0         0
         0         0         0         0         0         0         0         0
         0         0         0         0         0         0         0         0
         0         0         0         0         0         0         0         0
         0         0         0         0         0         0         0         0
         0         0         0         0         0         0         0         0
         0         0         0         0         0         0         0         0
         0         0         0         0         0         0         0         0
         0         0         0         0         0         0         0         0
         0         0         0         0         0         0         0         0
         0         0         0         0         0         0         0         0
         0         0         0         0         0         0         0         0
         0         0         0         0         0         0         0         0
         0         0         0         0         0         0         0         0
         0         0         0         0         0         0         0         0
         0         0         0         0         0         0         0         0
         0         0         0         0         0         0         0         0
         0         0         0         0         0         0         0         0
         0         0         0         0         0         0         0         0
         0         0         0         0         0         0         0         0
         0         0         0         0         0         0         0         0
         0         0         0         0         0         0         0         0
         0         0         0         0         0         0         0         0
         0         0         0         0         0         0         0         0
         0         0         0         0         0         0         0         0
         0         0         0         0         0         0         0         0
         0         0         0         0         0         0         0         0
         0         0         0         0         0         0         0         0
         0         0         0         0         0         0         0         0
         0         0         0         0         0         0         0         0
         0         0         0         0         0         0         0         0
         0         0         0         0         0         0         0         0
         0         0         0         0         0         0         0         0
         0         0         0         0         0         0         0         0
         0         0         0         0         0         0         0         0
         0         0         0         0         0         0         0         0
         0         0         0         0         0         0         0         0
         0         0         0         0         0         0         0         0
         0         0         0         0         0         0         0         0
         0         0         0         0         0         0         0         0
         0         0         0         0         0         0         0         0
         0         0         0         0         0         0         0         0
         0         0         0         0         0         0         0         0
         0         0         0         0         0         0         0         0
         0         0         0         0         0         0         0         0
         0         0         0         0         0         0         0         0
         0         0         0         0         0         0         0         0
         0         0         0         0         0         0         0         0
         0         0         0         0         0         0         0         0
         0         0         0         0         0         0         0         0
         0         0         0         0         0         0         0         0
         0         0         0         0         0         0         0         0
         0         0         0         0         0         0         0         0
         0         0         0         0         0         0         0         0
         0         0         0         0         0         0         0         0
         0         0         0         0         0         0         0         0
         0         0         0         0         0         0         0         0
         0         0         0         0         0         0         0         0
         0         0         0         0         0         0         0         0
         0         0         0         0         0         0         0         0
         0         0         0         0         0         0         0         0
         0         0         0         0         0         0         0         0
         0         0         0         0         0         0         0         0
         0         0         0         0         0         0         0         0
         0         0         0         0         0         0         0         0
         0         0         0         0         0         0         0         0
         0         0         0         0         0         0         0         0
         0         0         0         0         0         0         0         0
         0         0         0         0         0         0         0         0
         0         0         0         0         0         0         0         0
         0         0         0         0         0         0         0         0
         0         0         0         0         0         0         0         0
         0         0         0         0         0         0         0         0
         0         0         0         0         0         0         0         0
         0         0         0         0         0         0         0         0
         0         0         0         0         0         0         0         0
         0         0         0         0         0         0         0         0
         0         0         0         0         0         0         0         0
         0         0         0         0         0         0         0         0
         0         0         0         0         0         0         0         0
         0         0         0         0         0         0         0         0
         0         0         0         0         0         0         0         0
         0         0         0         0         0         0         0         0
         0         0         0         0         0         0         0         0
         0         0         0         0         0         0         0         0
         0         0         0         0         0         0         0         0
         0         0         0         0         0         0         0         0
         0         0         0         0         0         0         0         0
         0         0         0         0         0         0         0         0
         0         0         0         0         0         0         0         0
         0         0         0         0         0         0         0         0
         0         0         0         0         0         0         0         0
         0         0         0         0         0         0         0         0
         0         0         0         0         0         0         0         0
         0         0         0         0         0         0         0         0
         0         0         0         0         0         0         0         0
         0         0         0         0         0         0         0         0
         0         0         0         0         0         0         0         0
         0         0         0         0         0         0         0         0
         0         0         0         0         0         0         0         0
         0         0         0         0         0         0         0         0
         0         0         0         0         0         0         0         0
         0         0         0         0         0         0         0         0
         0         0         0         0         0         0         0         0
         0         0         0         0         0         0         0         0
         0         0         0         0         0         0         0         0
         0         0         0         0         0         0         0         0
         0         0         0         0         0         0         0         0
         0         0         0         0         0         0         0         0
         0         0         0         0         0         0         0         0
         0         0         0         0         0         0         0         0
         0         0         0         0         0         0         0         0
         0         0         0         0         0         0         0         0
         0         0         0         0         0         0         0         0
         0         0         0         0         0         0         0         0
         0         0         0         0         0         0         0         0
         0         0         0         0         0         0         0         0
         0         0         0         0         0         0         0         0
         0         0         0         0         0         0         0         0
         0         0         0         0         0         0         0         0
         0         0         0         0         0         0         0         0
         0         0         0         0         0         0         0         0
         0         0         0         0         0         0         0         0
         0         0         0         0         0         0         0         0
         0         0         0         0         0         0         0         0
         0         0         0         0         0         0         0         0
         0         0         0         0         0         0         0         0
         0         0         0         0         0         0         0         0
         0         0         0         0         0         0         0         0
         0         0         0         0         0         0         0         0
         0         0         0         0         0         0         0         0
         0         0         0         0         0         0         0         0
         0         0         0         0         0         0         0         0
         0         0         0         0         0         0         0         0
         0         0         0         0         0         0         0         0
         0         0         0         0         0         0         0         0
         0         0         0         0         0         0         0         0
         0         0         0         0         0         0         0         0
         0         0         0         0         0         0         0         0
         0         0         0         0         0         0         0         0
         0         0         0         0         0         0         0         0
         0         0         0         0         0         0         0         0
         0         0         0         0         0         0         0         0
         0         0         0         0         0         0         0         0
         0         0         0         0         0         0         0         0
         0         0         0         0         0         0         0         0
         0         0         0         0         0         0         0         0
         0         0         0         0         0         0         0         0
         0         0         0         0         0         0         0         0
         0         0         0         0         0         0         0         0
         0         0         0         0         0         0         0         0
         0         0         0         0         0         0         0         0
         0         0         0         0         0         0         0         0
         0         0         0         0         0         0         0         0
         0         0         0         0         0         0         0         0
         0         0         0         0         0         0         0         0
         0         0         0         0         0         0         0         0
         0         0         0         0         0         0         0         0
         0         0         0         0         0         0         0         0
         0         0         0         0         0         0         0         0
         0         0         0         0         0         0         0         0
         0         0         0         0         0         0         0         0
         0         0         0         0         0         0         0         0
         0         0         0         0         0         0         0         0
         0         0         0         0         0         0         0         0
         0         0         0         0         0         0         0         0
         0         0         0         0         0         0         0         0
         0         0         0         0         0         0         0         0
         0         0         0         0         0         0         0         0
         0         0         0         0         0         0         0         0
         0         0         0         0         0         0         0         0
         0         0         0         0         0         0         0         0
         0         0         0         0         0         0         0         0
         0         0         0         0         0         0         0         0
         0         0         0         0         0         0         0         0
         0         0         0         0         0         0         0         0
         0         0         0         0         0         0         0         0
         0         0         0         0         0         0         0         0
         0         0         0         0         0         0         0         0
         0         0         0         0         0         0         0         0
         0         0         0         0         0         0         0         0
         0         0         0         0         0         0         0         0
         0         0         0         0         0         0         0         0
         0         0         0         0         0         0         0         0
         0         0         0         0         0         0         0         0
         0         0         0         0         0         0         0         0
         0         0         0         0         0         0         0         0
         0         0         0         0         0         0         0         0
         0         0         0         0         0         0         0         0
         0         0         0         0         0         0         0         0
         0         0         0         0         0         0         0         0
         0         0         0         0         0         0         0         0
         0         0         0         0         0         0         0         0
         0         0         0         0         0         0         0         0
         0         0         0         0         0         0         0         0
         0         0         0         0         0         0         0         0
         0         0         0         0         0         0         0         0
         0         0         0         0         0         0         0         0
         0         0         0         0         0         0         0         0
         0         0         0         0         0         0         0         0
         0         0         0         0         0         0         0         0
         0         0         0         0         0         0         0         0
         0         0         0         0         0         0         0         0
         0         0         0         0         0         0         0         0
         0         0         0         0         0         0         0         0
         0         0         0         0         0         0         0         0
         0         0         0         0         0         0         0         0
         0         0         0         0         0         0         0         0
         0         0         0         0         0         0         0         0
         0         0         0         0         0         0         0         0
         0         0         0         0         0         0         0         0
         0         0         0         0         0         0         0         0
         0         0         0         0         0         0         0         0
         0         0         0         0         0         0         0         0
         0         0         0         0         0         0         0         0
         0         0         0         0         0         0         0         0
         0         0         0         0         0         0         0         0
         0         0         0         0         0         0         0         0
         0         0         0         0         0         0         0         0
         0         0         0         0         0         0         0         0
         0         0         0         0         0         0         0         0
         0         0         0         0         0         0         0         0
         0         0         0         0         0         0         0         0
         0         0         0         0         0         0         0         0
         0         0         0         0         0         0         0         0
         0         0         0         0         0         0         0         0
         0         0         0         0         0         0         0         0
         0         0         0         0         0         0         0         0
         0         0         0         0         0         0         0         0
         0         0         0         0         0         0         0         0
         0         0         0         0         0         0         0         0
         0         0         0         0         0         0         0         0
         0         0         0         0         0         0         0         0
         0         0         0         0         0         0         0         0
         0         0         0         0         0         0         0         0
         0         0         0         0         0         0         0         0
         0         0         0         0         0         0         0         0
         0         0         0         0         0         0         0         0
         0         0         0         0         0         0         0         0
         0         0         0         0         0         0         0         0
         0         0         0         0         0         0         0         0
         0         0         0         0         0         0         0         0
         0         0         0         0         0         0         0         0
         0         0         0         0         0         0         0         0
         0         0         0         0         0         0         0         0
         0         0         0         0         0         0         0         0
         0         0         0         0         0         0         0         0
         0         0         0         0         0         0         0         0
         0         0         0         0         0         0         0         0
         0         0         0         0         0         0         0         0
         0         0         0         0         0         0         0         0
         0         0         0         0         0         0         0         0
         0         0         0         0         0         0         0         0
         0         0         0         0         0         0         0         0
         0         0         0         0         0         0         0         0
         0         0         0         0         0         0         0         0
         0         0         0         0         0         0         0         0
         0         0         0         0         0         0         0         0
         0         0         0         0         0         0         0         0
         0         0         0         0         0         0         0         0
         0         0         0         0         0         0         0         0
         0         0         0         0         0         0         0         0
         0         0         0         0         0         0         0         0
         0         0         0         0         0         0         0         0
         0         0         0         0         0         0         0         0
         0         0         0         0         0         0         0         0
         0         0         0         0         0         0         0         0
         0         0         0         0         0         0         0         0
         0         0         0         0         0         0         0         0
         0         0         0         0         0         0         0         0
         0         0         0         0         0         0         0         0
         0         0         0         0         0         0         0         0
         0         0         0         0         0         0         0         0
         0         0         0         0         0         0         0         0
         0         0         0         0         0         0         0         0
         0         0         0         0         0         0         0         0
         0         0         0         0         0         0         0         0
         0         0         0         0         0         0         0         0
         0         0         0         0         0         0         0         0
         0         0         0         0         0         0         0         0
         0         0         0         0         0         0         0         0
         0         0         0         0         0         0         0         0
         0         0         0         0         0         0         0         0
         0         0         0         0         0         0         0         0
         0         0         0         0         0         0         0         0
         0         0         0         0         0         0         0         0
         0         0         0         0         0         0         0         0
         0         0         0         0         0         0         0         0
         0         0         0         0         0         0         0         0
         0         0         0         0         0         0         0         0
         0         0         0         0         0         0         0         0
         0         0         0         0         0         0         0         0
         0         0         0         0         0         0         0         0
         0         0         0         0         0         0         0         0
         0         0         0         0         0         0         0         0
         0         0         0         0         0         0         0         0
         0         0         0         0         0         0         0         0
         0         0         0         0         0         0         0         0
         0         0         0         0         0         0         0         0
         0         0         0         0         0         0         0         0
         0         0         0         0         0         0         0         0
         0         0         0         0         0         0         0         0
         0         0         0         0         0         0         0         0
         0         0         0         0         0         0         0         0
         0         0         0         0         0         0         0         0
         0         0         0         0         0         0         0         0
         0         0         0         0         0         0         0         0
         0         0         0         0         0         0         0         0
         0         0         0         0         0         0         0         0
         0         0         0         0         0         0         0         0
         0         0         0         0         0         0         0         0
         0         0         0         0         0         0         0         0
         0         0         0         0         0         0         0         0
         0         0         0         0         0         0         0         0
         0         0         0         0         0         0         0         0
         0         0         0         0         0         0         0         0
         0         0         0         0         0         0         0         0
         0         0         0         0         0         0         0         0
         0         0         0         0         0         0         0         0
         0         0         0         0         0         0         0         0
         0         0         0         0         0         0         0         0
         0         0         0         0         0         0         0         0
         0         0         0         0         0         0         0         0
         0         0         0         0         0         0         0         0
         0         0         0         0         0         0         0         0
         0         0         0         0         0         0         0         0
         0         0         0         0         0         0         0         0
         0         0         0         0         0         0         0         0
         0         0         0         0         0         0         0         0
         0         0         0         0         0         0         0         0
         0         0         0         0         0         0         0         0
         0         0         0         0         0         0         0         0
         0         0         0         0         0         0         0         0
         0         0         0         0         0         0         0         0
         0         0         0         0         0         0         0         0
         0         0         0         0         0         0         0         0
         0         0         0         0         0         0         0         0
         0         0         0         0         0         0         0         0
         0         0         0         0         0         0         0         0
         0         0         0         0         0         0         0         0
         0         0         0         0         0         0         0         0
         0         0         0         0         0         0         0         0
         0         0         0         0         0         0         0         0
         0         0         0         0         0         0         0         0
         0         0         0         0         0         0         0         0
         0         0         0         0         0         0         0         0
         0         0         0         0         0         0         0         0
         0         0         0         0         0         0         0         0
         0         0         0         0         0         0         0         0
         0         0         0         0         0         0         0         0
         0         0         0         0         0         0         0         0
         0         0         0         0         0         0         0         0
         0         0         0         0         0         0         0         0
         0         0         0         0         0         0         0         0
         0         0         0         0         0         0         0         0
         0         0         0         0         0         0         0         0
         0         0         0         0         0         0         0         0
         0         0         0         0         0         0         0         0
         0         0         0         0         0         0         0         0
         0         0         0         0         0         0         0         0
         0         0         0         0         0         0         0         0
         0         0         0         0         0         0         0         0
         0         0         0         0         0         0         0         0
         0         0         0         0         0         0         0         0
         0         0         0         0         0         0         0         0
         0         0         0         0         0         0         0         0
         0         0         0         0         0         0         0         0
         0         0         0         0         0         0         0         0
         0         0         0         0         0         0         0         0
         0         0         0         0         0         0         0         0
         0         0         0         0         0         0         0         0
         0         0         0         0         0         0         0         0
         0         0         0         0         0         0         0         0
         0         0         0         0         0         0         0         0
         0         0         0         0         0         0         0         0
         0         0         0         0         0         0         0         0
         0         0         0         0         0         0         0         0
         0         0         0         0         0         0         0         0
         0         0         0         0         0         0         0         0
         0         0         0         0         0         0         0         0
         0         0         0         0         0         0         0         0
         0         0         0         0         0         0         0         0
         0         0         0         0         0         0         0         0
         0         0         0         0         0         0         0         0
         0         0         0         0         0         0         0         0
         0         0         0         0         0         0         0         0
         0         0         0         0         0         0         0         0
         0         0         0         0         0         0         0         0
         0         0         0         0         0         0         0         0
         0         0         0         0         0         0         0         0
         0         0         0         0         0         0         0         0
         0         0         0         0         0         0         0         0
         0         0         0         0         0         0         0         0
         0         0         0         0         0         0         0         0
         0         0         0         0         0         0         0         0
         0         0         0         0         0         0         0         0
         0         0         0         0         0         0         0         0
         0         0         0         0         0         0         0         0
         0         0         0         0         0         0         0         0
         0         0         0         0         0         0         0         0
         0         0         0         0         0         0         0         0
         0         0         0         0         0         0         0         0
         0         0         0         0         0         0         0         0
         0         0         0         0         0         0         0         0
         0         0         0         0         0         0         0         0
         0         0         0         0         0         0         0         0
         0         0         0         0         0         0         0         0
         0         0         0         0         0         0         0         0
         0         0         0         0         0         0         0         0
         0         0         0         0         0         0         0         0
         0         0         0         0         0         0         0         0
         0         0         0         0         0         0         0         0
         0         0         0         0         0         0         0         0
         0         0         0         0         0         0         0         0
         0         0         0         0         0         0         0         0
         0         0         0         0         0         0         0         0
         0         0         0         0         0         0         0         0
         0         0         0         0         0         0         0         0
         0         0         0         0         0         0         0         0
         0         0         0         0         0         0         0         0
         0         0         0         0         0         0         0         0
         0         0         0         0         0         0         0         0
         0         0         0         0         0         0         0         0
         0         0         0         0         0         0         0         0
         0         0         0         0         0         0         0         0
         0         0         0         0         0         0         0         0
         0         0         0         0         0         0         0         0
         0         0         0         0         0         0         0         0
         0         0         0         0         0         0         0         0
         0         0         0         0         0         0         0         0
         0         0         0         0         0         0         0         0
         0         0         0         0         0         0         0         0
         0         0         0         0         0         0         0         0
         0         0         0         0         0         0         0         0
         0         0         0         0         0         0         0         0
         0         0         0         0         0         0         0         0
         0         0         0         0         0         0         0         0
         0         0         0         0         0         0         0         0
         0         0         0         0         0         0         0         0
         0         0         0         0         0         0         0         0
         0         0         0         0         0         0         0         0
         0         0         0         0         0         0         0         0
         0         0         0         0         0         0         0         0
         0         0         0         0         0         0         0         0
         0         0         0         0         0         0         0         0
         0         0         0         0         0         0         0         0
         0         0         0         0         0         0         0         0
         0         0         0         0         0         0         0         0
         0         0         0         0         0         0         0         0
         0         0         0         0         0         0         0         0
         0         0         0         0         0         0         0         0
         0         0         0         0         0         0         0         0
         0         0         0         0         0         0         0         0
         0         0         0         0         0         0         0         0
         0         0         0         0         0         0         0         0
         0         0         0         0         0         0         0         0
         0         0         0         0         0         0         0         0
         0         0         0         0         0         0         0         0
         0         0         0         0         0         0         0         0
         0         0         0         0         0         0         0         0
         0         0         0         0         0         0         0         0
         0         0         0         0         0         0         0         0
         0         0         0         0         0         0         0         0
         0         0         0         0         0         0         0         0
         0         0         0         0         0         0         0         0
         0         0         0         0         0         0         0         0
         0         0         0         0         0         0         0         0
         0         0         0         0         0         0         0         0
         0         0         0         0         0         0         0         0
         0         0         0         0         0         0         0         0
         0         0         0         0         0         0         0         0
         0         0         0         0         0         0         0         0
         0         0         0         0         0         0         0         0
         0         0         0         0         0         0         0         0
         0         0         0         0         0         0         0         0
         0         0         0         0         0         0         0         0
         0         0         0         0         0         0         0         0
         0         0         0         0         0         0         0         0
         0         0         0         0         0         0         0         0
         0         0         0         0         0         0         0         0
         0         0         0         0         0         0         0         0
         0         0         0         0         0         0         0         0
         0         0         0         0         0         0         0         0
         0         0         0         0         0         0         0         0
         0         0         0         0         0         0         0         0
         0         0         0         0         0         0         0         0
         0         0         0         0         0         0         0         0
         0         0         0         0         0         0         0         0
         0         0         0         0         0         0         0         0
         0         0         0         0         0         0         0         0
         0         0         0         0         0         0         0         0
         0         0         0         0         0         0         0         0
         0         0         0         0         0         0         0         0
         0         0         0         0         0         0         0         0
         0         0         0         0         0         0         0         0
         0         0         0         0         0         0         0         0
         0         0         0         0         0         0         0         0
         0         0         0         0         0         0         0         0
         0         0         0         0         0         0         0         0
         0         0         0         0         0         0         0         0
         0         0         0         0         0         0         0         0
         0         0         0         0         0         0         0         0
         0         0         0         0         0         0         0         0
         0         0         0         0         0         0         0         0
         0         0         0         0         0         0         0         0
         0         0         0         0         0         0         0         0
         0         0         0         0         0         0         0         0
         0         0         0         0         0         0         0         0
         0         0         0         0         0         0         0         0
         0         0         0         0         0         0         0         0
         0         0         0         0         0         0         0         0
         0         0         0         0         0         0         0         0
         0         0         0         0         0         0         0         0
         0         0         0         0         0         0         0         0
         0         0         0         0         0         0         0         0
         0         0         0         0         0         0         0         0
         0         0         0         0         0         0         0         0
         0         0         0         0         0         0         0         0
         0         0         0         0         0         0         0         0
         0         0         0         0         0         0         0         0
         0         0         0         0         0         0         0         0
         0         0         0         0         0         0         0         0
         0         0         0         0         0         0         0         0
         0         0         0         0         0         0         0         0
         0         0         0         0         0         0         0         0
         0         0         0         0         0         0         0         0
         0         0         0         0         0         0         0         0
         0         0         0         0         0         0         0         0
         0         0         0         0         0         0         0         0
         0         0         0         0         0         0         0         0
         0         0         0         0         0         0         0         0
         0         0         0         0         0         0         0         0
         0         0         0         0         0         0         0         0
         0         0         0         0         0         0         0         0
         0         0         0         0         0         0         0         0
         0         0         0         0         0         0         0         0
         0         0         0         0         0         0         0         0
         0         0         0         0         0         0         0         0
         0         0         0         0         0         0         0         0
         0         0         0         0         0         0         0         0
         0         0         0         0         0         0         0         0
         0         0         0         0         0         0         0         0
         0         0         0         0         0         0         0         0
         0         0         0         0         0         0         0         0
         0         0         0         0         0         0         0         0
         0         0         0         0         0         0         0         0
         0         0         0         0         0         0         0         0
         0         0         0         0         0         0         0         0
         0         0         0         0         0         0         0         0
         0         0         0         0         0         0         0         0
         0         0         0         0         0         0         0         0
         0         0         0         0         0         0         0         0
         0         0         0         0         0         0         0         0
         0         0         0         0         0         0         0         0
         0         0         0         0         0         0         0         0
         0         0         0         0         0         0         0         0
         0         0         0         0         0         0         0         0
         0         0         0         0         0         0         0         0
         0         0         0         0         0         0         0         0
         0         0         0         0         0         0         0         0
         0         0         0         0         0         0         0         0
         0         0         0         0         0         0         0         0
         0         0         0         0         0         0         0         0
         0         0         0         0         0         0         0         0
         0         0         0         0         0         0         0         0
         0         0         0         0         0         0         0         0
         0         0         0         0         0         0         0         0
         0         0         0         0         0         0         0         0
         0         0         0         0         0         0         0         0
         0         0         0         0         0         0         0         0
         0         0         0         0         0         0         0         0
         0         0         0         0         0         0         0         0
         0         0         0         0         0         0         0         0
         0         0         0         0         0         0         0         0
         0         0         0         0         0         0         0         0
         0         0         0         0         0         0         0         0
         0         0         0         0         0         0         0         0
         0         0         0         0         0         0         0         0
         0         0         0         0         0         0         0         0
         0         0         0         0         0         0         0         0
         0         0         0         0         0         0         0         0
         0         0         0         0         0         0         0         0
         0         0         0         0         0         0         0         0
         0         0         0         0         0         0         0         0
         0         0         0         0         0         0         0         0
         0         0         0         0         0         0         0         0
         0         0         0         0         0         0         0         0
         0         0         0         0         0         0         0         0
         0         0         0         0         0         0         0         0
         0         0         0         0         0         0         0         0
         0         0         0         0         0         0         0         0
         0         0         0         0         0         0         0         0
         0         0         0         0         0         0         0         0
         0         0         0         0         0         0         0         0
         0         0         0         0         0         0         0         0
         0         0         0         0         0         0         0         0
         0         0         0         0         0         0         0         0
         0         0         0         0         0         0         0         0
         0         0         0         0         0         0         0         0
         0         0         0         0         0         0         0         0
         0         0         0         0         0         0         0         0
         0         0         0         0         0         0         0         0
         0         0         0         0         0         0         0         0
         0         0         0         0         0         0         0         0
         0         0         0         0         0         0         0         0
         0         0         0         0         0         0         0         0
         0         0         0         0         0         0         0         0
         0         0         0         0         0         0         0         0
         0         0         0         0         0         0         0         0
         0         0         0         0         0         0         0         0
         0         0         0         0         0         0         0         0
         0         0         0         0         0         0         0         0
         0         0         0         0         0         0         0         0
         0         0         0         0         0         0         0         0
         0         0         0         0         0         0         0         0
         0         0         0         0         0         0         0         0
         0         0         0         0         0         0         0         0
         0         0         0         0         0         0         0         0
         0         0         0         0         0         0         0         0
         0         0         0         0         0         0         0         0
         0         0         0         0         0         0         0         0
         0         0         0         0         0         0         0         0
         0         0         0         0         0         0         0         0
         0         0         0         0         0         0         0         0
         0         0         0         0         0         0         0         0
         0         0         0         0         0         0         0         0
         0         0         0         0         0         0         0         0
         0         0         0         0         0         0         0         0
         0         0         0         0         0         0         0         0
         0         0         0         0         0         0         0         0
         0         0         0         0         0         0         0         0
         0         0         0         0         0         0         0         0
         0         0         0         0         0         0         0         0
         0         0         0         0         0         0         0         0
         0         0         0         0         0         0         0         0
         0         0         0         0         0         0         0         0
         0         0         0         0         0         0         0         0
         0         0         0         0         0         0         0         0
         0         0         0         0         0         0         0         0
         0         0         0         0         0         0         0         0
         0         0         0         0         0         0         0         0
         0         0         0         0         0         0         0         0
         0         0         0         0         0         0         0         0
         0         0         0         0         0         0         0         0
         0         0         0         0         0         0         0         0
         0         0         0         0         0         0         0         0
         0         0         0         0         0         0         0         0
         0         0         0         0         0         0         0         0
         0         0         0         0         0         0         0         0
         0         0         0         0         0         0         0         0
         0         0         0         0         0         0         0         0
         0         0         0         0         0         0         0         0
         0         0         0         0         0         0         0         0
         0         0         0         0         0         0         0         0
         0         0         0         0         0         0         0         0
         0         0         0         0         0         0         0         0
         0         0         0         0         0         0         0         0
         0         0         0         0         0         0         0         0
         0         0         0         0         0         0         0         0
         0         0         0         0         0         0         0         0
         0         0         0         0         0         0         0         0
         0         0         0         0         0         0         0         0
         0         0         0         0         0         0         0         0
         0         0         0         0         0         0         0         0
         0         0         0         0         0         0         0         0
         0         0         0         0         0         0         0         0
         0         0         0         0         0         0         0         0
         0         0         0         0         0         0         0         0
         0         0         0         0         0         0         0         0
         0         0         0         0         0         0         0         0
         0         0         0         0         0         0         0         0
         0         0         0         0         0         0         0         0
         0         0         0         0         0         0         0         0
         0         0         0         0         0         0         0         0
         0         0         0         0         0         0         0         0
         0         0         0         0         0         0         0         0
         0         0         0         0         0         0         0         0
         0         0         0         0         0         0         0         0
         0         0         0         0         0         0         0         0
         0         0         0         0         0         0         0         0
         0         0         0         0         0         0         0         0
         0         0         0         0         0         0         0         0
         0         0         0         0         0         0         0         0
         0         0         0         0         0         0         0         0
         0         0         0         0         0         0         0         0
         0         0         0         0         0         0         0         0
         0         0         0         0         0         0         0         0
         0         0         0         0         0         0         0         0
         0         0         0         0         0         0         0         0
         0         0         0         0         0         0         0         0
         0         0         0         0         0         0         0         0
         0         0         0         0         0         0         0         0
         0         0         0         0         0         0         0         0
         0         0         0         0         0         0         0         0
         0         0         0         0         0         0         0         0
         0         0         0         0         0         0         0         0
         0         0         0         0         0         0         0         0
         0         0         0         0         0         0         0         0
         0         0         0         0         0         0         0         0
         0         0         0         0         0         0         0         0
         0         0         0         0         0         0         0         0
         0         0         0         0         0         0         0         0
         0         0         0         0         0         0         0         0
         0         0         0         0         0         0         0         0
         0         0         0         0         0         0         0         0
         0         0         0         0         0         0         0         0
         0         0         0         0         0         0         0         0
         0         0         0         0         0         0         0         0
         0         0         0         0         0         0         0         0
         0         0         0         0         0         0         0         0
         0         0         0         0         0         0         0         0
         0         0         0         0         0         0         0         0
         0         0         0         0         0         0         0         0
         0         0         0         0         0         0         0         0
         0         0         0         0         0         0         0         0
         0         0         0         0         0         0         0         0
         0         0         0         0         0         0         0         0
         0         0         0         0         0         0         0         0
         0         0         0         0         0         0         0         0
         0         0         0         0         0         0         0         0
         0         0         0         0         0         0         0         0
         0         0         0         0         0         0         0         0
         0         0         0         0         0         0         0         0
         0         0         0         0         0         0         0         0
         0         0         0         0         0         0         0         0
         0         0         0         0         0         0         0         0
         0         0         0         0         0         0         0         0
         0         0         0         0         0         0         0         0
         0         0         0         0         0         0         0         0
         0         0         0         0         0         0         0         0
         0         0         0         0         0         0         0         0
         0         0         0         0         0         0         0         0
         0         0         0         0         0         0         0         0
         0         0         0         0         0         0         0         0
         0         0         0         0         0         0         0         0
         0         0         0         0         0         0         0         0
         0         0         0         0         0         0         0         0
         0         0         0         0         0         0         0         0
         0         0         0         0         0         0         0         0
         0         0         0         0         0         0         0         0
         0         0         0         0         0         0         0         0
         0         0         0         0         0         0         0         0
         0         0         0         0         0         0         0         0
         0         0         0         0         0         0         0         0
         0         0         0         0         0         0         0         0
         0         0         0         0         0         0         0         0
         0         0         0         0         0         0         0         0
         0         0         0         0         0         0         0         0
         0         0         0         0         0         0         0         0
         0         0         0         0         0         0         0         0
         0         0         0         0         0         0         0         0
         0         0         0         0         0         0         0         0
         0         0         0         0         0         0         0         0
         0         0         0         0         0         0         0         0
         0         0         0         0         0         0         0         0
         0         0         0         0         0         0         0         0
         0         0         0         0         0         0         0         0
         0         0         0         0         0         0         0         0
         0         0         0         0         0         0         0         0
         0         0         0         0         0         0         0         0
         0         0         0         0         0         0         0         0
         0         0         0         0         0         0         0         0
         0         0         0         0         0         0         0         0
         0         0         0         0         0         0         0         0
         0         0         0         0         0         0         0         0
         0         0         0         0         0         0         0         0
         0         0         0         0         0         0         0         0
         0         0         0         0         0         0         0         0
         0         0         0         0         0         0         0         0
         0         0         0         0         0         0         0         0
         0         0         0         0         0         0         0         0
         0         0         0         0         0         0         0         0
         0         0         0         0         0         0         0         0
         0         0         0         0         0         0         0         0
         0         0         0         0         0         0         0         0
         0         0         0         0         0         0         0         0
         0         0         0         0         0         0         0         0
         0         0         0         0         0         0         0         0
         0         0         0         0         0         0         0         0
         0         0         0         0         0         0         0         0
         0         0         0         0         0         0         0         0
         0         0         0         0         0         0         0         0
         0         0         0         0         0         0         0         0
         0         0         0         0         0         0         0         0
         0         0         0         0         0         0         0         0
         0         0         0         0         0         0         0         0
         0         0         0         0         0         0         0         0
         0         0         0         0         0         0         0         0
         0         0         0         0         0         0         0         0
         0         0         0         0         0         0         0         0
         0         0         0         0         0         0         0         0
         0         0         0         0         0         0         0         0
         0         0         0         0         0         0         0         0
         0         0         0         0         0         0         0         0
         0         0         0         0         0         0         0         0
         0         0         0         0         0         0         0         0
         0         0         0         0         0         0         0         0
         0         0         0         0         0         0         0         0
         0         0         0         0         0         0         0         0
         0         0         0         0         0         0         0         0
         0         0         0         0         0         0         0         0
         0         0         0         0         0         0         0         0
         0         0         0         0         0         0         0         0
         0         0         0         0         0         0         0         0
         0         0         0         0         0         0         0         0
         0         0         0         0         0         0         0         0
         0         0         0         0         0         0         0         0
         0         0         0         0         0         0         0         0
         0         0         0         0         0         0         0         0
         0         0         0         0         0         0         0         0
         0         0         0         0         0         0         0         0
         0         0         0         0         0         0         0         0
         0         0         0         0         0         0         0         0
         0         0         0         0         0         0         0         0
         0         0         0         0         0         0         0         0
         0         0         0         0         0         0         0         0
         0         0         0         0         0         0         0         0
         0         0         0         0         0         0         0         0
         0         0         0         0         0         0         0         0
         0         0         0         0         0         0         0         0
         0         0         0         0         0         0         0         0
         0         0         0         0         0         0         0         0
         0         0         0         0         0         0         0         0
         0         0         0         0         0         0         0         0
         0         0         0         0         0         0         0         0
         0         0         0         0         0         0         0         0
         0         0         0         0         0         0         0         0
         0         0         0         0         0         0         0         0
         0         0         0         0         0         0         0         0
         0         0         0         0         0         0         0         0
         0         0         0         0         0         0         0         0
         0         0         0         0         0         0         0         0
         0         0         0         0         0         0         0         0
         0         0         0         0         0         0         0         0
         0         0         0         0         0         0         0         0
         0         0         0         0         0         0         0         0
         0         0         0         0         0         0         0         0
         0         0         0         0         0         0         0         0
         0         0         0         0         0         0         0         0
         0         0         0         0         0         0         0         0
         0         0         0         0         0         0         0         0
         0         0         0         0         0         0         0         0
         0         0         0         0         0         0         0         0
         0         0         0         0         0         0         0         0
         0         0         0         0         0         0         0         0
         0         0         0         0         0         0         0         0
         0         0         0         0         0         0         0         0
         0         0         0         0         0         0         0         0
         0         0         0         0         0         0         0         0
         0         0         0         0         0         0         0         0
         0         0         0         0         0         0         0         0
         0         0         0         0         0         0         0         0
         0         0         0         0         0         0         0         0
         0         0         0         0         0         0         0         0
         0         0         0         0         0         0         0         0
         0         0         0         0         0         0         0         0
         0         0         0         0         0         0         0         0
         0         0         0         0         0         0         0         0
         0         0         0         0         0         0         0         0
         0         0         0         0         0         0         0         0
         0         0         0         0         0         0         0         0
         0         0         0         0         0         0         0         0
         0         0         0         0         0         0         0         0
         0         0         0         0         0         0         0         0
         0         0         0         0         0         0         0         0
         0         0         0         0         0         0         0         0
         0         0         0         0         0         0         0         0
         0         0         0         0         0         0         0         0
         0         0         0         0         0         0         0         0
         0         0         0         0         0         0         0         0
         0         0         0         0         0         0         0         0
         0         0         0         0         0         0         0         0
         0         0         0         0         0         0         0         0
         0         0         0         0         0         0         0         0
         0         0         0         0         0         0         0         0
         0         0         0         0         0         0         0         0
         0         0         0         0         0         0         0         0
         0         0         0         0         0         0         0         0
         0         0         0         0         0         0         0         0
         0         0         0         0         0         0         0         0
         0         0         0         0         0         0         0         0
         0         0         0         0         0         0         0         0
         0         0         0         0         0         0         0         0
         0         0         0         0         0         0         0         0
         0         0         0         0         0         0         0         0
         0         0         0         0         0         0         0         0
         0         0         0         0         0         0         0         0
         0         0         0         0         0         0         0         0
         0         0         0         0         0         0         0         0
         0         0         0         0         0         0         0         0
         0         0         0         0         0         0         0         0
         0         0         0         0         0         0         0         0
         0         0         0         0         0         0         0         0
         0         0         0         0         0         0         0         0
         0         0         0         0         0         0         0         0
         0         0         0         0         0         0         0         0
         0         0         0         0         0         0         0         0
         0         0         0         0         0         0         0         0
         0         0         0         0         0         0         0         0
         0         0         0         0         0         0         0         0
         0         0         0         0         0         0         0         0
         0         0         0         0         0         0         0         0
         0         0         0         0         0         0         0         0
         0         0         0         0         0         0         0         0
         0         0         0         0         0         0         0         0
         0         0         0         0         0         0         0         0
         0         0         0         0         0         0         0         0
         0         0         0         0         0         0         0         0
         0         0         0         0         0         0         0         0
         0         0         0         0         0         0         0         0
         0         0         0         0         0         0         0         0
         0         0         0         0         0         0         0         0
         0         0         0         0         0         0         0         0
         0         0         0         0         0         0         0         0
         0         0         0         0         0         0         0         0
         0         0         0         0         0         0         0         0
         0         0         0         0         0         0         0         0
         0         0         0         0         0         0         0         0
         0         0         0         0         0         0         0         0
         0         0         0         0         0         0         0         0
         0         0         0         0         0         0         0         0
         0         0         0         0         0         0         0         0
         0         0         0         0         0         0         0         0
         0         0         0         0         0         0         0         0
         0         0         0         0         0         0         0         0
         0         0         0         0         0         0         0         0
         0         0         0         0         0         0         0         0
         0         0         0         0         0         0         0         0
         0         0         0         0         0         0         0         0
         0         0         0         0         0         0         0         0
         0         0         0         0         0         0         0         0
         0         0         0         0         0         0         0         0
         0         0         0         0         0         0         0         0
         0         0         0         0         0         0         0         0
         0         0         0         0         0         0         0         0
         0         0         0         0         0         0         0         0
         0         0         0         0         0         0         0         0
         0         0         0         0         0         0         0         0
         0         0         0         0         0         0         0         0
         0         0         0         0         0         0         0         0
         0         0         0         0         0         0         0         0
         0         0         0         0         0         0         0         0
         0         0         0         0         0         0         0         0
         0         0         0         0         0         0         0         0
         0         0         0         0         0         0         0         0
         0         0         0         0         0         0         0         0
         0         0         0         0         0         0         0         0
         0         0         0         0         0         0         0         0
         0         0         0         0         0         0         0         0
         0         0         0         0         0         0         0         0
         0         0         0         0         0         0         0         0
         0         0         0         0         0         0         0         0
         0         0         0         0         0         0         0         0
         0         0         0         0         0         0         0         0
         0         0         0         0         0         0         0         0
         0         0         0         0         0         0         0         0
         0         0         0         0         0         0         0         0
         0         0         0         0         0         0         0         0
         0         0         0         0         0         0         0         0
         0         0         0         0         0         0         0         0
         0         0         0         0         0         0         0         0
         0         0         0         0         0         0         0         0
         0         0         0         0         0         0         0         0
         0         0         0         0         0         0         0         0
         0         0         0         0         0         0         0         0
         0         0         0         0         0         0         0         0
         0         0         0         0         0         0         0         0
         0         0         0         0         0         0         0         0
         0         0         0         0         0         0         0         0
         0         0         0         0         0         0         0         0
         0         0         0         0         0         0         0         0
         0         0         0         0         0         0         0         0
         0         0         0         0         0         0         0         0
         0         0         0         0         0         0         0         0
         0         0         0         0         0         0         0         0
         0         0         0         0         0         0         0         0
         0         0         0         0         0         0         0         0
         0         0         0         0         0         0         0         0
         0         0         0         0         0         0         0         0
         0         0         0         0         0         0         0         0
         0         0         0         0         0         0         0         0
         0         0         0         0         0         0         0         0
         0         0         0         0         0         0         0         0
         0         0         0         0         0         0         0         0
         0         0         0         0         0         0         0         0
         0         0         0         0         0         0         0         0
         0         0         0         0         0         0         0         0
         0         0         0         0         0         0         0         0
         0         0         0         0         0         0         0         0
         0         0         0         0         0         0         0         0
         0         0         0         0         0         0         0         0
         0         0         0         0         0         0         0         0
         0         0         0         0         0         0         0         0
         0         0         0         0         0         0         0         0
         0         0         0         0         0         0         0         0
         0         0         0         0         0         0         0         0
         0         0         0         0         0         0         0         0
         0         0         0         0         0         0         0         0
         0         0         0         0         0         0         0         0
         0         0         0         0         0         0         0         0
         0         0         0         0         0         0         0         0
         0         0         0         0         0         0         0         0
         0         0         0         0         0         0         0         0
         0         0         0         0         0         0         0         0
         0         0         0         0         0         0         0         0
         0         0         0         0         0         0         0         0
         0         0         0         0         0         0         0         0
         0         0         0         0         0         0         0         0
         0         0         0         0         0         0         0         0
         0         0         0         0         0         0         0         0
         0         0         0         0         0         0         0         0
         0         0         0         0         0         0         0         0
         0         0         0         0         0         0         0         0
         0         0         0         0         0         0         0         0
         0         0         0         0         0         0         0         0
         0         0         0         0         0         0         0         0
         0         0         0         0         0         0         0         0
         0         0         0         0         0         0         0         0
         0         0         0         0         0         0         0         0
         0         0         0         0         0         0         0         0
         0         0         0         0         0         0         0         0
         0         0         0         0         0         0         0         0
         0         0         0         0         0         0         0         0
         0         0         0         0         0         0         0         0
         0         0         0         0         0         0         0         0
         0         0         0         0         0         0         0         0
         0         0         0         0         0         0         0         0
         0         0         0         0         0         0         0         0
         0         0         0         0         0         0         0         0
         0         0         0         0         0         0         0         0
         0         0         0         0         0         0         0         0
         0         0         0         0         0         0         0         0
         0         0         0         0         0         0         0         0
         0         0         0         0         0         0         0         0
         0         0         0         0         0         0         0         0
         0         0         0         0         0         0         0         0
         0         0         0         0         0         0         0         0
         0         0         0         0         0         0         0         0
         0         0         0         0         0         0         0         0
         0         0         0         0         0         0         0         0
         0         0         0         0         0         0         0         0
         0         0         0         0         0         0         0         0
         0         0         0         0         0         0         0         0
         0         0         0         0         0         0         0         0
         0         0         0         0         0         0         0         0
         0         0         0         0         0         0         0         0
         0         0         0         0         0         0         0         0
         0         0         0         0         0         0         0         0
         0         0         0         0         0         0         0         0
         0         0         0         0         0         0         0         0
         0         0         0         0         0         0         0         0
         0         0         0         0         0         0         0         0
         0         0         0         0         0         0         0         0
         0         0         0         0         0         0         0         0
         0         0         0         0         0         0         0         0
         0         0         0         0         0         0         0         0
         0         0         0         0         0         0         0         0
         0         0         0         0         0         0         0         0
         0         0         0         0         0         0         0         0
         0         0         0         0         0         0         0         0
         0         0         0         0         0         0         0         0
         0         0         0         0         0         0         0         0
         0         0         0         0         0         0         0         0
         0         0         0         0         0         0         0         0
         0         0         0         0         0         0         0         0
         0         0         0         0         0         0         0         0
         0         0         0         0         0         0         0         0
         0         0         0         0         0         0         0         0
         0         0         0         0         0         0         0         0
         0         0         0         0         0         0         0         0
         0         0         0         0         0         0         0         0
         0         0         0         0         0         0         0         0
         0         0         0         0         0         0         0         0
         0         0         0         0         0         0         0         0
         0         0         0         0         0         0         0         0
         0         0         0         0         0         0         0         0
         0         0         0         0         0         0         0         0
         0         0         0         0         0         0         0         0
         0         0         0         0         0         0         0         0
         0         0         0         0         0         0         0         0
         0         0         0         0         0         0         0         0
         0         0         0         0         0         0         0         0
         0         0         0         0         0         0         0         0
         0         0         0         0         0         0         0         0
         0         0         0         0         0         0         0         0
         0         0         0         0         0         0         0         0
         0         0         0         0         0         0         0         0
         0         0         0         0         0         0         0         0
         0         0         0         0         0         0         0         0
         0         0         0         0         0         0         0         0
         0         0         0         0         0         0         0         0
         0         0         0         0         0         0         0         0
         0         0         0         0         0         0         0         0
         0         0         0         0         0         0         0         0
         0         0         0         0         0         0         0         0
         0         0         0         0         0         0         0         0
         0         0         0         0         0         0         0         0
         0         0         0         0         0         0         0         0
         0         0         0         0         0         0         0         0
         0         0         0         0         0         0         0         0
         0         0         0         0         0         0         0         0
         0         0         0         0         0         0         0         0
         0         0         0         0         0         0         0         0
         0         0         0         0         0         0         0         0
         0         0         0         0         0         0         0         0
         0         0         0         0         0         0         0         0
         0         0         0         0         0         0         0         0
         0         0         0         0         0         0         0         0
         0         0         0         0         0         0         0         0
         0         0         0         0         0         0         0         0
         0         0         0         0         0         0         0         0
         0         0         0         0         0         0         0         0
         0         0         0         0         0         0         0         0
         0         0         0         0         0         0         0         0
         0         0         0         0         0         0         0         0
         0         0         0         0         0         0         0         0
         0         0         0         0         0         0         0         0
         0         0         0         0         0         0         0         0
         0         0         0         0         0         0         0         0
         0         0         0         0         0         0         0         0
         0         0         0         0         0         0         0         0
         0         0         0         0         0         0         0         0
         0         0         0         0         0         0         0         0
         0         0         0         0         0         0         0         0
         0         0         0         0         0         0         0         0
         0         0         0         0         0         0         0         0
         0         0         0         0         0         0         0         0
         0         0         0         0         0         0         0         0
         0         0         0         0         0         0         0         0
         0         0         0         0         0         0         0         0
         0         0         0         0         0         0         0         0
         0         0         0         0         0         0         0         0
         0         0         0         0         0         0         0         0
         0         0         0         0         0         0         0         0
         0         0         0         0         0         0         0         0
         0         0         0         0         0         0         0         0
         0         0         0         0         0         0         0         0
         0         0         0         0         0         0         0         0
         0         0         0         0         0         0         0         0
         0         0         0         0         0         0         0         0
         0         0         0         0         0         0         0         0
         0         0         0         0         0         0         0         0
         0         0         0         0         0         0         0         0
         0         0         0         0         0         0         0         0
         0         0         0         0         0         0         0         0
         0         0         0         0         0         0         0         0
         0         0         0         0         0         0         0         0
         0         0         0         0         0         0         0         0
         0         0         0         0         0         0         0         0
         0         0         0         0         0         0         0         0
         0         0         0         0         0         0         0         0
         0         0         0         0         0         0         0         0
         0         0         0         0         0         0         0         0
         0         0         0         0         0         0         0         0
         0         0         0         0         0         0         0         0
         0         0         0         0         0         0         0         0
         0         0         0         0         0         0         0         0
         0         0         0         0         0         0         0         0
         0         0         0         0         0         0         0         0
         0         0         0         0         0         0         0         0
         0         0         0         0         0         0         0         0
         0         0         0         0         0         0         0         0
         0         0         0         0         0         0         0         0
         0         0         0         0         0         0         0         0
         0         0         0         0         0         0         0         0
         0         0         0         0         0         0         0         0
         0         0         0         0         0         0         0         0
         0         0         0         0         0         0         0         0
         0         0         0         0         0         0         0         0
         0         0         0         0         0         0         0         0
         0         0         0         0         0         0         0         0
         0         0         0         0         0         0         0         0
         0         0         0         0         0         0         0         0
         0         0         0         0         0         0         0         0
         0         0         0         0         0         0         0         0
         0         0         0         0         0         0         0         0
         0         0         0         0         0         0         0         0
         0         0         0         0         0         0         0         0
         0         0         0         0         0         0         0         0
         0         0         0         0         0         0         0         0
         0         0         0         0         0         0         0         0
         0         0         0         0         0         0         0         0
         0         0         0         0         0         0         0         0
         0         0         0         0         0         0         0         0
         0         0         0         0         0         0         0         0
         0         0         0         0         0         0         0         0
         0         0         0         0         0         0         0         0
         0         0         0         0         0         0         0         0
         0         0         0         0         0         0         0         0
         0         0         0         0         0         0         0         0
         0         0         0         0         0         0         0         0
         0         0         0         0         0         0         0         0
         0         0         0         0         0         0         0         0
         0         0         0         0         0         0         0         0
         0         0         0         0         0         0         0         0
         0         0         0         0         0         0         0         0
         0         0         0         0         0         0         0         0
         0         0         0         0         0         0         0         0
         0         0         0         0         0         0         0         0
         0         0         0         0         0         0         0         0
         0         0         0         0         0         0         0         0
         0         0         0         0         0         0         0         0
         0         0         0         0         0         0         0         0
         0         0         0         0         0         0         0         0
         0         0         0         0         0         0         0         0
         0         0         0         0         0         0         0         0
         0         0         0         0         0         0         0         0
         0         0         0         0         0         0         0         0
         0         0         0         0         0         0         0         0
         0         0         0         0         0         0         0         0
         0         0         0         0         0         0         0         0
         0         0         0         0         0         0         0         0
         0         0         0         0         0         0         0         0
         0         0         0         0         0         0         0         0
         0         0         0         0         0         0         0         0
         0         0         0         0         0         0         0         0
         0         0         0         0         0         0         0         0
         0         0         0         0         0         0         0         0
         0         0         0         0         0         0         0         0
         0         0         0         0         0         0         0         0
         0         0         0         0         0         0         0         0
         0         0         0         0         0         0         0         0
         0         0         0         0         0         0         0         0
         0         0         0         0         0         0         0         0
         0         0         0         0         0         0         0         0
         0         0         0         0         0         0         0         0
         0         0         0         0         0         0         0         0
         0         0         0         0         0         0         0         0
         0         0         0         0         0         0         0         0
         0         0         0         0         0         0         0         0
         0         0         0         0         0         0         0         0
         0         0         0         0         0         0         0         0
         0         0         0         0         0         0         0         0
         0         0         0         0         0         0         0         0
         0         0         0         0         0         0         0         0
         0         0         0         0         0         0         0         0
         0         0         0         0         0         0         0         0
         0         0         0         0         0         0         0         0
         0         0         0         0         0         0         0         0
         0         0         0         0         0         0         0         0
         0         0         0         0         0         0         0         0
         0         0         0         0         0         0         0         0
         0         0         0         0         0         0         0         0
         0         0         0         0         0         0         0         0
         0         0         0         0         0         0         0         0
         0         0         0         0         0         0         0         0
         0         0         0         0         0         0         0         0
         0         0         0         0         0         0         0         0
         0         0         0         0         0         0         0         0
         0         0         0         0         0         0         0         0
         0         0         0         0         0         0         0         0
         0         0         0         0         0         0         0         0
         0         0         0         0         0         0         0         0
         0         0         0         0         0         0         0         0
         0         0         0         0         0         0         0         0
         0         0         0         0         0         0         0         0
         0         0         0         0         0         0         0         0
         0         0         0         0         0         0         0         0
         0         0         0         0         0         0         0         0
         0         0         0         0         0         0         0         0
         0         0         0         0         0         0         0         0
         0         0         0         0         0         0         0         0
         0         0         0         0         0         0         0         0
         0         0         0         0         0         0         0         0
         0         0         0         0         0         0         0         0
         0         0         0         0         0         0         0         0
         0         0         0         0         0         0         0         0
         0         0         0         0         0         0         0         0
         0         0         0         0         0         0         0         0
         0         0         0         0         0         0         0         0
         0         0         0         0         0         0         0         0
         0         0         0         0         0         0         0         0
         0         0         0         0         0         0         0         0
         0         0         0         0         0         0         0         0
         0         0         0         0         0         0         0         0
         0         0         0         0         0         0         0         0
         0         0         0         0         0         0         0         0
         0         0         0         0         0         0         0         0
         0         0         0         0         0         0         0         0
         0         0         0         0         0         0         0         0
         0         0         0         0         0         0         0         0
         0         0         0         0         0         0         0         0
         0         0         0         0         0         0         0         0
         0         0         0         0         0         0         0         0
         0         0         0         0         0         0         0         0
         0         0         0         0         0         0         0         0
         0         0         0         0         0         0         0         0
         0         0         0         0         0         0         0         0
         0         0         0         0         0         0         0         0
         0         0         0         0         0         0         0         0
         0         0         0         0         0         0         0         0
         0         0         0         0         0         0         0         0
         0         0         0         0         0         0         0         0
         0         0         0         0         0         0         0         0
         0         0         0         0         0         0         0         0
         0         0         0         0         0         0         0         0
         0         0         0         0         0         0         0         0
         0         0         0         0         0         0         0         0
         0         0         0         0         0         0         0         0
         0         0         0         0         0         0         0         0
         0         0         0         0         0         0         0         0
         0         0         0         0         0         0         0         0
         0         0         0         0         0         0         0         0
         0         0         0         0         0         0         0         0
         0         0         0         0         0         0         0         0
         0         0         0         0         0         0         0         0
         0         0         0         0         0         0         0         0
         0         0         0         0         0         0         0         0
         0         0         0         0         0         0         0         0
         0         0         0         0         0         0         0         0
         0         0         0         0         0         0         0         0
         0         0         0         0         0         0         0         0
         0         0         0         0         0         0         0         0
         0         0         0         0         0         0         0         0
         0         0         0         0         0         0         0         0
         0         0         0         0         0         0         0         0
         0         0         0         0         0         0         0         0
         0         0         0         0         0         0         0         0
         0         0         0         0         0         0         0         0
         0         0         0         0         0         0         0         0
         0         0         0         0         0         0         0         0
         0         0         0         0         0         0         0         0
         0         0         0         0         0         0         0         0
         0         0         0         0         0         0         0         0
         0         0         0         0         0         0         0         0
         0         0         0         0         0         0         0         0
         0         0         0         0         0         0         0         0
         0         0         0         0         0         0         0         0
         0         0         0         0         0         0         0         0
         0         0         0         0         0         0         0         0
         0         0         0         0         0         0         0         0
         0         0         0         0         0         0         0         0
         0         0         0         0         0         0         0         0
         0         0         0         0         0         0         0         0
         0         0         0         0         0         0         0         0
         0         0         0         0         0         0         0         0
         0         0         0         0         0         0         0         0
         0         0         0         0         0         0         0         0
         0         0         0         0         0         0         0         0
         0         0         0         0         0         0         0         0
         0         0         0         0         0         0         0         0
         0         0         0         0         0         0         0         0
         0         0         0         0         0         0         0         0
         0         0         0         0         0         0         0         0
         0         0         0         0         0         0         0         0
         0         0         0         0         0         0         0         0
         0         0         0         0         0         0         0         0
         0         0         0         0         0         0         0         0
         0         0         0         0         0         0         0         0
         0         0         0         0         0         0         0         0
         0         0         0         0         0         0         0         0
         0         0         0         0         0         0         0         0
         0         0         0         0         0         0         0         0
         0         0         0         0         0         0         0         0
         0         0         0         0         0         0         0         0
         0         0         0         0         0         0         0         0
         0         0         0         0         0         0         0         0
         0         0         0         0         0         0         0         0
         0         0         0         0         0         0         0         0
         0         0         0         0         0         0         0         0
         0         0         0         0         0         0         0         0
         0         0         0         0         0         0         0         0
         0         0         0         0         0         0         0         0
         0         0         0         0         0         0         0         0
         0         0         0         0         0         0         0         0
         0         0         0         0         0         0         0         0
         0         0         0         0         0         0         0         0
         0         0         0         0         0         0         0         0
         0         0         0         0         0         0         0         0
         0         0         0         0         0         0         0         0
         0         0         0         0         0         0         0         0
         0         0         0         0         0         0         0         0
         0         0         0         0         0         0         0         0
         0         0         0         0         0         0         0         0
         0         0         0         0         0         0         0         0
         0         0         0         0         0         0         0         0
         0         0         0         0         0         0         0         0
         0         0         0         0         0         0         0         0
         0         0         0         0         0         0         0         0
         0         0         0         0         0         0         0         0
         0         0         0         0         0         0         0         0
         0         0         0         0         0         0         0         0
         0         0         0         0         0         0         0         0
         0         0         0         0         0         0         0         0
         0         0         0         0         0         0         0         0
         0         0         0         0         0         0         0         0
         0         0         0         0         0         0         0         0
         0         0         0         0         0         0         0         0
         0         0         0         0         0         0         0         0
         0         0         0         0         0         0         0         0
         0         0         0         0         0         0         0         0
         0         0         0         0         0         0         0         0
         0         0         0         0         0         0         0         0
         0         0         0         0         0         0         0         0
         0         0         0         0         0         0         0         0
         0         0         0         0         0         0         0         0
         0         0         0         0         0         0         0         0
         0         0         0         0         0         0         0         0
         0         0         0         0         0         0         0         0
         0         0         0         0         0         0         0         0
         0         0         0         0         0         0         0         0
         0         0         0         0         0         0         0         0
         0         0         0         0         0         0         0         0
         0         0         0         0         0         0         0         0
         0         0         0         0         0         0         0         0
         0         0         0         0         0         0         0         0
         0         0         0         0         0         0         0         0
         0         0         0         0         0         0         0         0
         0         0         0         0         0         0         0         0
         0         0         0         0         0         0         0         0
         0         0         0         0         0         0         0         0
         0         0         0         0         0         0         0         0
         0         0         0         0         0         0         0         0
         0         0         0         0         0         0         0         0
         0         0         0         0         0         0         0         0
         0         0         0         0         0         0         0         0
         0         0         0         0         0         0         0         0
         0         0         0         0         0         0         0         0
         0         0         0         0         0         0         0         0
         0         0         0         0         0         0         0         0
         0         0         0         0         0         0         0         0
         0         0         0         0         0         0         0         0
         0         0         0         0         0         0         0         0
         0         0         0         0         0         0         0         0
         0         0         0         0         0         0         0         0
         0         0         0         0         0         0         0         0
         0         0         0         0         0         0         0         0
         0         0         0         0         0         0         0         0
         0         0         0         0         0         0         0         0
         0         0         0         0         0         0         0         0
         0         0         0         0         0         0         0         0
         0         0         0         0         0         0         0         0
         0         0         0         0         0         0         0         0
         0         0         0         0         0         0         0         0
         0         0         0         0         0         0         0         0
         0         0         0         0         0         0         0         0
         0         0         0         0         0         0         0         0
         0         0         0         0         0         0         0         0
         0         0         0         0         0         0         0         0
         0         0         0         0         0         0         0         0
         0         0         0         0         0         0         0         0
         0         0         0         0         0         0         0         0
         0         0         0         0         0         0         0         0
         0         0         0         0         0         0         0         0
         0         0         0         0         0         0         0         0
         0         0         0         0         0         0         0         0
         0         0         0         0         0         0         0         0
         0         0         0         0         0         0         0         0
         0         0         0         0         0         0         0         0
         0         0         0         0         0         0         0         0
         0         0         0         0         0         0         0         0
         0         0         0         0         0         0         0         0
         0         0         0         0         0         0         0         0
         0         0         0         0         0         0         0         0
         0         0         0         0         0         0         0         0
         0         0         0         0         0         0         0         0
         0         0         0         0         0         0         0         0
         0         0         0         0         0         0         0         0
         0         0         0         0         0         0         0         0
         0         0         0         0         0         0         0         0
         0         0         0         0         0         0         0         0
         0         0         0         0         0         0         0         0
         0         0         0         0         0         0         0         0
         0         0         0         0         0         0         0         0
         0         0         0         0         0         0         0         0
         0         0         0         0         0         0         0         0
         0         0         0         0         0         0         0         0
         0         0         0         0         0         0         0         0
         0         0         0         0         0         0         0         0
         0         0         0         0         0         0         0         0
         0         0         0         0         0         0         0         0
         0         0         0         0         0         0         0         0
         0         0         0         0         0         0         0         0
         0         0         0         0         0         0         0         0
         0         0         0         0         0         0         0         0
         0         0         0         0         0         0         0         0
         0         0         0         0         0         0         0         0
         0         0         0         0         0         0         0         0
         0         0         0         0         0         0         0         0
         0         0         0         0         0         0         0         0
         0         0         0         0         0         0         0         0
         0         0         0         0         0         0         0         0
         0         0         0         0         0         0         0         0
         0         0         0         0         0         0         0         0
         0         0         0         0         0         0         0         0
         0         0         0         0         0         0         0         0
         0         0         0         0         0         0         0         0
         0         0         0         0         0         0         0         0
         0         0         0         0         0         0         0         0
         0         0         0         0         0         0         0         0
         0         0         0         0         0         0         0         0
         0         0         0         0         0         0         0         0
         0         0         0         0         0         0         0         0
         0         0         0         0         0         0         0         0
         0         0         0         0         0         0         0         0
         0         0         0         0         0         0         0         0
         0         0         0         0         0         0         0         0
         0         0         0         0         0         0         0         0
         0         0         0         0         0         0         0         0
         0         0         0         0         0         0         0         0
         0         0         0         0         0         0         0         0
         0         0         0         0         0         0         0         0
         0         0         0         0         0         0         0         0
         0         0         0         0         0         0         0         0
         0         0         0         0         0         0         0         0
         0         0         0         0         0         0         0         0
         0         0         0         0         0         0         0         0
         0         0         0         0         0         0         0         0
         0         0         0         0         0         0         0         0
         0         0         0         0         0         0         0         0
         0         0         0         0         0         0         0         0
         0         0         0         0         0         0         0         0
         0         0         0         0         0         0         0         0
         0         0         0         0         0         0         0         0
         0         0         0         0         0         0         0         0
         0         0         0         0         0         0         0         0
         0         0         0         0         0         0         0         0
         0         0         0         0         0         0         0         0
         0         0         0         0         0         0         0         0
         0         0         0         0         0         0         0         0
         0         0         0         0         0         0         0         0
         0         0         0         0         0         0         0         0
         0         0         0         0         0         0         0         0
         0         0         0         0         0         0         0         0
         0         0         0         0         0         0         0         0
         0         0         0         0         0         0         0         0
         0         0         0         0         0         0         0         0
         0         0         0         0         0         0         0         0
         0         0         0         0         0         0         0         0
         0         0         0         0         0         0         0         0
         0         0         0         0         0         0         0         0
         0         0         0         0         0         0         0         0
         0         0         0         0         0         0         0         0
         0         0         0         0         0         0         0         0
         0         0         0         0         0         0         0         0
         0         0         0         0         0         0         0         0
         0         0         0         0         0         0         0         0
         0         0         0         0         0         0         0         0
         0         0         0         0         0         0         0         0
         0         0         0         0         0         0         0         0
         0         0         0         0         0         0         0         0
         0         0         0         0         0         0         0         0
         0         0         0         0         0         0         0         0
         0         0         0         0         0         0         0         0
         0         0         0         0         0         0         0         0
         0         0         0         0         0         0         0         0
         0         0         0         0         0         0         0         0
         0         0         0         0         0         0         0         0
         0         0         0         0         0         0         0         0
         0         0         0         0         0         0         0         0
         0         0         0         0         0         0         0         0
         0         0         0         0         0         0         0         0
         0         0         0         0         0         0         0         0
         0         0         0         0         0         0         0         0
         0         0         0         0         0         0         0         0
         0         0         0         0         0         0         0         0
         0         0         0         0         0         0         0         0
         0         0         0         0         0         0         0         0
         0         0         0         0         0         0         0         0
         0         0         0         0         0         0         0         0
         0         0         0         0         0         0         0         0
         0         0         0         0         0         0         0         0
         0         0         0         0         0         0         0         0
         0         0         0         0         0         0         0         0
         0         0         0         0         0         0         0         0
         0         0         0         0         0         0         0         0
         0         0         0         0         0         0         0         0
         0         0         0         0         0         0         0         0
         0         0         0         0         0         0         0         0
         0         0         0         0         0         0         0         0
         0         0         0         0         0         0         0         0
         0         0         0         0         0         0         0         0
         0         0         0         0         0         0         0         0
         0         0         0         0         0         0         0         0
         0         0         0         0         0         0         0         0
         0         0         0         0         0         0         0         0
         0         0         0         0         0         0         0         0
         0         0         0         0         0         0         0         0
         0         0         0         0         0         0         0         0
         0         0         0         0         0         0         0         0
         0         0         0         0         0         0         0         0
         0         0         0         0         0         0         0         0
         0         0         0         0         0         0         0         0
         0         0         0         0         0         0         0         0
         0         0         0         0         0         0         0         0
         0         0         0         0         0         0         0         0
         0         0         0         0         0         0         0         0
         0         0         0         0         0         0         0         0
         0         0         0         0         0         0         0         0
         0         0         0         0         0         0         0         0
         0         0         0         0         0         0         0         0
         0         0         0         0         0         0         0         0
         0         0         0         0         0         0         0         0
         0         0         0         0         0         0         0         0
         0         0         0         0         0         0         0         0
         0         0         0         0         0         0         0         0
         0         0         0         0         0         0         0         0
         0         0         0         0         0         0         0         0
         0         0         0         0         0         0         0         0
         0         0         0         0         0         0         0         0
         0         0         0         0         0         0         0         0
         0         0         0         0         0         0         0         0
         0         0         0         0         0         0         0         0
         0         0         0         0         0         0         0         0
         0         0         0         0         0         0         0         0
         0         0         0         0         0         0         0         0
         0         0         0         0         0         0         0         0
         0         0         0         0         0         0         0         0
         0         0         0         0         0         0         0         0
         0         0         0         0         0         0         0         0
         0         0         0         0         0         0         0         0
         0         0         0         0         0         0         0         0
         0         0         0         0         0         0         0         0
         0         0         0         0         0         0         0         0
         0         0         0         0         0         0         0         0
         0         0         0         0         0         0         0         0
         0         0         0         0         0         0         0         0
         0         0         0         0         0         0         0         0
         0         0         0         0         0         0         0         0
         0         0         0         0         0         0         0         0
         0         0         0         0         0         0         0         0
         0         0         0         0         0         0         0         0
         0         0         0         0         0         0         0         0
         0         0         0         0         0         0         0         0
         0         0         0         0         0         0         0         0
         0         0         0         0         0         0         0         0
         0         0         0         0         0         0         0         0
         0         0         0         0         0         0         0         0
         0         0         0         0         0         0         0         0
         0         0         0         0         0         0         0         0
         0         0         0         0         0         0         0         0
         0         0         0         0         0         0         0         0
         0         0         0         0         0         0         0         0
         0         0         0         0         0         0         0         0
         0         0         0         0         0         0         0         0
         0         0         0         0         0         0         0         0
         0         0         0         0         0         0         0         0
         0         0         0         0         0         0         0         0
         0         0         0         0         0         0         0         0
         0         0         0         0         0         0         0         0
         0         0         0         0         0         0         0         0
         0         0         0         0         0         0         0         0
         0         0         0         0         0         0         0         0
         0         0         0         0         0         0         0         0
         0         0         0         0         0         0         0         0
         0         0         0         0         0         0         0         0
         0         0         0         0         0         0         0         0
         0         0         0         0         0         0         0         0
         0         0         0         0         0         0         0         0
         0         0         0         0         0         0         0         0
         0         0         0         0         0         0         0         0
         0         0         0         0         0         0         0         0
         0         0         0         0         0         0         0         0
         0         0         0         0         0         0         0         0
         0         0         0         0         0         0         0         0
         0         0         0         0         0         0         0         0
         0         0         0         0         0         0         0         0
         0         0         0         0         0         0         0         0
         0         0         0         0         0         0         0         0
         0         0         0         0         0         0         0         0
         0         0         0         0         0         0         0         0
         0         0         0         0         0         0         0         0
         0         0         0         0         0         0         0         0
         0         0         0         0         0         0         0         0
         0         0         0         0         0         0         0         0
         0         0         0         0         0         0         0         0
         0         0         0         0         0         0         0         0
         0         0         0         0         0         0         0         0
         0         0         0         0         0         0         0         0
         0         0         0         0         0         0         0         0
         0         0         0         0         0         0         0         0
         0         0         0         0         0         0         0         0
         0         0         0         0         0         0         0         0
         0         0         0         0         0         0         0         0
         0         0         0         0         0         0         0         0
         0         0         0         0         0         0         0         0
         0         0         0         0         0         0         0         0
         0         0         0         0         0         0         0         0
         0         0         0         0         0         0         0         0
         0         0         0         0         0         0         0         0
         0         0         0         0         0         0         0         0
         0         0         0         0         0         0         0         0
         0         0         0         0         0         0         0         0
         0         0         0         0         0         0         0         0
         0         0         0         0         0         0         0         0
         0         0         0         0         0         0         0         0
         0         0         0         0         0         0         0         0
         0         0         0         0         0         0         0         0
         0         0         0         0         0         0         0         0
         0         0         0         0         0         0         0         0
         0         0         0         0         0         0         0         0
         0         0         0         0         0         0         0         0
         0         0         0         0         0         0         0         0
         0         0         0         0         0         0         0         0
         0         0         0         0         0         0         0         0
         0         0         0         0         0         0         0         0
         0         0         0         0         0         0         0         0
         0         0         0         0         0         0         0         0
         0         0         0         0         0         0         0         0
         0         0         0         0         0         0         0         0
         0         0         0         0         0         0         0         0
         0         0         0         0         0         0         0         0
         0         0         0         0         0         0         0         0
         0         0         0         0         0         0         0         0
         0         0         0         0         0         0         0         0
         0         0         0         0         0         0         0         0
         0         0         0         0         0         0         0         0
         0         0         0         0         0         0         0         0
         0         0         0         0         0         0         0         0
         0         0         0         0         0         0         0         0
         0         0         0         0         0         0         0         0
         0         0         0         0         0         0         0         0
         0         0         0         0         0         0         0         0
         0         0         0         0         0         0         0         0
         0         0         0         0         0         0         0         0
         0         0         0         0         0         0         0         0
         0         0         0         0         0         0         0         0
         0         0         0         0         0         0         0         0
         0         0         0         0         0         0         0         0
         0         0         0         0         0         0         0         0
         0         0         0         0         0         0         0         0
         0         0         0         0         0         0         0         0
         0         0         0         0         0         0         0         0
         0         0         0         0         0         0         0         0
         0         0         0         0         0         0         0         0
         0         0         0         0         0         0         0         0
         0         0         0         0         0         0         0         0
         0         0         0         0         0         0         0         0
         0         0         0         0         0         0         0         0
         0         0         0         0         0         0         0         0
         0         0         0         0         0         0         0         0
         0         0         0         0         0         0         0         0
         0         0         0         0         0         0         0         0
         0         0         0         0         0         0         0         0
         0         0         0         0         0         0         0         0
         0         0         0         0         0         0         0         0
         0         0         0         0         0         0         0         0
         0         0         0         0         0         0         0         0
         0         0         0         0         0         0         0         0
         0         0         0         0         0         0         0         0
         0         0         0         0         0         0         0         0
         0         0         0         0         0         0         0         0
         0         0         0         0         0         0         0         0
         0         0         0         0         0         0         0         0
         0         0         0         0         0         0         0         0
         0         0         0         0         0         0         0         0
         0         0         0         0         0         0         0         0
         0         0         0         0         0         0         0         0
         0         0         0         0         0         0         0         0
         0         0         0         0         0         0         0         0
         0         0         0         0         0         0         0         0
         0         0         0         0         0         0         0         0
         0         0         0         0         0         0         0         0
         0         0         0         0         0         0         0         0
         0         0         0         0         0         0         0         0
         0         0         0         0         0         0         0         0
         0         0         0         0         0         0         0         0
         0         0         0         0         0         0         0         0
         0         0         0         0         0         0         0         0
         0         0         0         0         0         0         0         0
         0         0         0         0         0         0         0         0
         0         0         0         0         0         0         0         0
         0         0         0         0         0         0         0         0
         0         0         0         0         0         0         0         0
         0         0         0         0         0         0         0         0
         0         0         0         0         0         0         0         0
         0         0         0         0         0         0         0         0
         0         0         0         0         0         0         0         0
         0         0         0         0         0         0         0         0
         0         0         0         0         0         0         0         0
         0         0         0         0         0         0         0         0
         0         0         0         0         0         0         0         0
         0         0         0         0         0         0         0         0
         0         0         0         0         0         0         0         0
         0         0         0         0         0         0         0         0
         0         0         0         0         0         0         0         0
         0         0         0         0         0         0         0         0
         0         0         0         0         0         0         0         0
         0         0         0         0         0         0         0         0
         0         0         0         0         0         0         0         0
         0         0         0         0         0         0         0         0
         0         0         0         0         0         0         0         0
         0         0         0         0         0         0         0         0
         0         0         0         0         0         0         0         0
         0         0         0         0         0         0         0         0
         0         0         0         0         0         0         0         0
         0         0         0         0         0         0         0         0
         0         0         0         0         0         0         0         0
         0         0         0         0         0         0         0         0
         0         0         0         0         0         0         0         0
         0         0         0         0         0         0         0         0
         0         0         0         0         0         0         0         0
         0         0         0         0         0         0         0         0
         0         0         0         0         0         0         0         0
         0         0         0         0         0         0         0         0
         0         0         0         0         0         0         0         0
         0         0         0         0         0         0         0         0
         0         0         0         0         0         0         0         0
         0         0         0         0         0         0         0         0
         0         0         0         0         0         0         0         0
         0         0         0         0         0         0         0         0
         0         0         0         0         0         0         0         0
         0         0         0         0         0         0         0         0
         0         0         0         0         0         0         0         0
         0         0         0         0         0         0         0         0
         0         0         0         0         0         0         0         0
         0         0         0         0         0         0         0         0
         0         0         0         0         0         0         0         0
         0         0         0         0         0         0         0         0
         0         0         0         0         0         0         0         0
         0         0         0         0         0         0         0         0
         0         0         0         0         0         0         0         0
         0         0         0         0         0         0         0         0
         0         0         0         0         0         0         0         0
         0         0         0         0         0         0         0         0
         0         0         0         0         0         0         0         0
         0         0         0         0         0         0         0         0
         0         0         0         0         0         0         0         0
         0         0         0         0         0         0         0         0
         0         0         0         0         0         0         0         0
         0         0         0         0         0         0         0         0
         0         0         0         0         0         0         0         0
         0         0         0         0         0         0         0         0
         0         0         0         0         0         0         0         0
         0         0         0         0         0         0         0         0
         0         0         0         0         0         0         0         0
         0         0         0         0         0         0         0         0
         0         0         0         0         0         0         0         0
         0         0         0         0         0         0         0         0
         0         0         0         0         0         0         0         0
         0         0         0         0         0         0         0         0
         0         0         0         0         0         0         0         0
         0         0         0         0         0         0         0         0
         0         0         0         0         0         0         0         0
         0         0         0         0         0         0         0         0
         0         0         0         0         0         0         0         0
         0         0         0         0         0         0         0         0
         0         0         0         0         0         0         0         0
         0         0         0         0         0         0         0         0
         0         0         0         0         0         0         0         0
         0         0         0         0         0         0         0         0
         0         0         0         0         0         0         0         0
         0         0         0         0         0         0         0         0
         0         0         0         0         0         0         0         0
         0         0         0         0         0         0         0         0
         0         0         0         0         0         0         0         0
         0         0         0         0         0         0         0         0
         0         0         0         0         0         0         0         0
         0         0         0         0         0         0         0         0
         0         0         0         0         0         0         0         0
         0         0         0         0         0         0         0         0
         0         0         0         0         0         0         0         0
         0         0         0         0         0         0         0         0
         0         0         0         0         0         0         0         0
         0         0         0         0         0         0         0         0
         0         0         0         0         0         0         0         0
         0         0         0         0         0         0         0         0
         0         0         0         0         0         0         0         0
         0         0         0         0         0         0         0         0
         0         0         0         0         0         0         0         0
         0         0         0         0         0         0         0         0
         0         0         0         0         0         0         0         0
         0         0         0         0         0         0         0         0
         0         0         0         0         0         0         0         0
         0         0         0         0         0         0         0         0
         0         0         0         0         0         0         0         0
         0         0         0         0         0         0         0         0
         0         0         0         0         0         0         0         0
         0         0         0         0         0         0         0         0
         0         0         0         0         0         0         0         0
         0         0         0         0         0         0         0         0
         0         0         0         0         0         0         0         0
         0         0         0         0         0         0         0         0
         0         0         0         0         0         0         0         0
         0         0         0         0         0         0         0         0
         0         0         0         0         0         0         0         0
         0         0         0         0         0         0         0         0
         0         0         0         0         0         0         0         0
         0         0         0         0         0         0         0         0
         0         0         0         0         0         0         0         0
         0         0         0         0         0         0         0         0
         0         0         0         0         0         0         0         0
         0         0         0         0         0         0         0         0
         0         0         0         0         0         0         0         0
         0         0         0         0         0         0         0         0
         0         0         0         0         0         0         0         0
         0         0         0         0         0         0         0         0
         0         0         0         0         0         0         0         0
         0         0         0         0         0         0         0         0
         0         0         0         0         0         0         0         0
         0         0         0         0         0         0         0         0
         0         0         0         0         0         0         0         0
         0         0         0         0         0         0         0         0
         0         0         0         0         0         0         0         0
         0         0         0         0         0         0         0         0
         0         0         0         0         0         0         0         0
         0         0         0         0         0         0         0         0
         0         0         0         0         0         0         0         0
         0         0         0         0         0         0         0         0
         0         0         0         0         0         0         0         0
         0         0         0         0         0         0         0         0
         0         0         0         0         0         0         0         0
         0         0         0         0         0         0         0         0
         0         0         0         0         0         0         0         0
         0         0         0         0         0         0         0         0
         0         0         0         0         0         0         0         0
         0         0         0         0         0         0         0         0
         0         0         0         0         0         0         0         0
         0         0         0         0         0         0         0         0
         0         0         0         0         0         0         0         0
         0         0         0         0         0         0         0         0
         0         0         0         0         0         0         0         0
         0         0         0         0         0         0         0         0
         0         0         0         0         0         0         0         0
         0         0         0         0         0         0         0         0
         0         0         0         0         0         0         0         0
         0         0         0         0         0         0         0         0
         0         0         0         0         0         0         0         0
         0         0         0         0         0         0         0         0
         0         0         0         0         0         0         0         0
         0         0         0         0         0         0         0         0
         0         0         0         0         0         0         0         0
         0         0         0         0         0         0         0         0
         0         0         0         0         0         0         0         0
         0         0         0         0         0         0         0         0
         0         0         0         0         0         0         0         0
         0         0         0         0         0         0         0         0
         0         0         0         0         0         0         0         0
         0         0         0         0         0         0         0         0
         0         0         0         0         0         0         0         0
         0         0         0         0         0         0         0         0
         0         0         0         0         0         0         0         0
         0         0         0         0         0         0         0         0
         0         0         0         0         0         0         0         0
         0         0         0         0         0         0         0         0
         0         0         0         0         0         0         0         0
         0         0         0         0         0         0         0         0
         0         0         0         0         0         0         0         0
         0         0         0         0         0         0         0         0
         0         0         0         0         0         0         0         0
         0         0         0         0         0         0         0         0
         0         0         0         0         0         0         0         0
         0         0         0         0         0         0         0         0
         0         0         0         0         0         0         0         0
         0         0         0         0         0         0         0         0
         0         0         0         0         0         0         0         0
         0         0         0         0         0         0         0         0
         0         0         0         0         0         0         0         0
         0         0         0         0         0         0         0         0
         0         0         0         0         0         0         0         0
         0         0         0         0         0         0         0         0
         0         0         0         0         0         0         0         0
         0         0         0         0         0         0         0         0
         0         0         0         0         0         0         0         0
         0         0         0         0         0         0         0         0
         0         0         0         0         0         0         0         0
         0         0         0         0         0         0         0         0
         0         0         0         0         0         0         0         0
         0         0         0         0         0         0         0         0
         0         0         0         0         0         0         0         0
         0         0         0         0         0         0         0         0
         0         0         0         0         0         0         0         0
         0         0         0         0         0         0         0         0
         0         0         0         0         0         0         0         0
         0         0         0         0         0         0         0         0
         0         0         0         0         0         0         0         0
         0         0         0         0         0         0         0         0
         0         0         0         0         0         0         0         0
         0         0         0         0         0         0         0         0
         0         0         0         0         0         0         0         0
         0         0         0         0         0         0         0         0
         0         0         0         0         0         0         0         0
         0         0         0         0         0         0         0         0
         0         0         0         0         0         0         0         0
         0         0         0         0         0         0         0         0
         0         0         0         0         0         0         0         0
         0         0         0         0         0         0         0         0
         0         0         0         0         0         0         0         0
         0         0         0         0         0         0         0         0
         0         0         0         0         0         0         0         0
         0         0         0         0         0         0         0         0
         0         0         0         0         0         0         0         0
         0         0         0         0         0         0         0         0
         0         0         0         0         0         0         0         0
         0         0         0         0         0         0         0         0
         0         0         0         0         0         0         0         0
         0         0         0         0         0         0         0         0
         0         0         0         0         0         0         0         0
         0         0         0         0         0         0         0         0
         0         0         0         0         0         0         0         0
         0         0         0         0         0         0         0         0
         0         0         0         0         0         0         0         0
         0         0         0         0         0         0         0         0
         0         0         0         0         0         0         0         0
         0         0         0         0         0         0         0         0
         0         0         0         0         0         0         0         0
         0         0         0         0         0         0         0         0
         0         0         0         0         0         0         0         0
         0         0         0         0         0         0         0         0
         0         0         0         0         0         0         0         0
         0         0         0         0         0         0         0         0
         0         0         0         0         0         0         0         0
         0         0         0         0         0         0         0         0
         0         0         0         0         0         0         0         0
         0         0         0         0         0         0         0         0
         0         0         0         0         0         0         0         0
         0         0         0         0         0         0         0         0
         0         0         0         0         0         0         0         0
         0         0         0         0         0         0         0         0
         0         0         0         0         0         0         0         0
         0         0         0         0         0         0         0         0
         0         0         0         0         0         0         0         0
         0         0         0         0         0         0         0         0
         0         0         0         0         0         0         0         0
         0         0         0         0         0         0         0         0
         0         0         0         0         0         0         0         0
         0         0         0         0         0         0         0         0
         0         0         0         0         0         0         0         0
         0         0         0         0         0         0         0         0
         0         0         0         0         0         0         0         0
         0         0         0         0         0         0         0         0
         0         0         0         0         0         0         0         0
         0         0         0         0         0         0         0         0
         0         0         0         0         0         0         0         0
         0         0         0         0         0         0         0         0
         0         0         0         0         0         0         0         0
         0         0         0         0         0         0         0         0
         0         0         0         0         0         0         0         0
         0         0         0         0         0         0         0         0
         0         0         0         0         0         0         0         0
         0         0         0         0         0         0         0         0
         0         0         0         0         0         0         0         0
         0         0         0         0         0         0         0         0
         0         0         0         0         0         0         0         0
         0         0         0         0         0         0         0         0
         0         0         0         0         0         0         0         0
         0         0         0         0         0         0         0         0
         0         0         0         0         0         0         0         0
         0         0         0         0         0         0         0         0
         0         0         0         0         0         0         0         0
         0         0         0         0         0         0         0         0
         0         0         0         0         0         0         0         0
         0         0         0         0         0         0         0         0
         0         0         0         0         0         0         0         0
         0         0         0         0         0         0         0         0
         0         0         0         0         0         0         0         0
         0         0         0         0         0         0         0         0
         0         0         0         0         0         0         0         0
         0         0         0         0         0         0         0         0
         0         0         0         0         0         0         0         0
         0         0         0         0         0         0         0         0
         0         0         0         0         0         0         0         0
         0         0         0         0         0         0         0         0
         0         0         0         0         0         0         0         0
         0         0         0         0         0         0         0         0
         0         0         0         0         0         0         0         0
         0         0         0         0         0         0         0         0
         0         0         0         0         0         0         0         0
         0         0         0         0         0         0         0         0
         0         0         0         0         0         0         0         0
         0         0         0         0         0         0         0         0
         0         0         0         0         0         0         0         0
         0         0         0         0         0         0         0         0
         0         0         0         0         0         0         0         0
         0         0         0         0         0         0         0         0
         0         0         0         0         0         0         0         0
         0         0         0         0         0         0         0         0
         0         0         0         0         0         0         0         0
         0         0         0         0         0         0         0         0
         0         0         0         0         0         0         0         0
         0         0         0         0         0         0         0         0
         0         0         0         0         0         0         0         0
         0         0         0         0         0         0         0         0
         0         0         0         0         0         0         0         0
         0         0         0         0         0         0         0         0
         0         0         0         0         0         0         0         0
         0         0         0         0         0         0         0         0
         0         0         0         0         0         0         0         0
         0         0         0         0         0         0         0         0
         0         0         0         0         0         0         0         0
         0         0         0         0         0         0         0         0
         0         0         0         0         0         0         0         0
         0         0         0         0         0         0         0         0
         0         0         0         0         0         0         0         0
         0         0         0         0         0         0         0         0
         0         0         0         0         0         0         0         0
         0         0         0         0         0         0         0         0
         0         0         0         0         0         0         0         0
         0         0         0         0         0         0         0         0
         0         0         0         0         0         0         0         0
         0         0         0         0         0         0         0         0
         0         0         0         0         0         0         0         0
         0         0         0         0         0         0         0         0
         0         0         0         0         0         0         0         0
         0         0         0         0         0         0         0         0
         0         0         0         0         0         0         0         0
         0         0         0         0         0         0         0         0
         0         0         0         0         0         0         0         0
         0         0         0         0         0         0         0         0
         0         0         0         0         0         0         0         0
         0         0         0         0         0         0         0         0
         0         0         0         0         0         0         0         0
         0         0         0         0         0         0         0         0
         0         0         0         0         0         0         0         0
         0         0         0         0         0         0         0         0
         0         0         0         0         0         0         0         0
         0         0         0         0         0         0         0         0
         0         0         0         0         0         0         0         0
         0         0         0         0         0         0         0         0
         0         0         0         0         0         0         0         0
         0         0         0         0         0         0         0         0
         0         0         0         0         0         0         0         0
         0         0         0         0         0         0         0         0
         0         0         0         0         0         0         0         0
         0         0         0         0         0         0         0         0
         0         0         0         0         0         0         0         0
         0         0         0         0         0         0         0         0
         0         0         0         0         0         0         0         0
         0         0         0         0         0         0         0         0
         0         0         0         0         0         0         0         0
         0         0         0         0         0         0         0         0
         0         0         0         0         0         0         0         0
         0         0         0         0         0         0         0         0
         0         0         0         0         0         0         0         0
         0         0         0         0         0         0         0         0
         0         0         0         0         0         0         0         0
         0         0         0         0         0         0         0         0
         0         0         0         0         0         0         0         0
         0         0         0         0         0         0         0         0
         0         0         0         0         0         0         0         0
         0         0         0         0         0         0         0         0
         0         0         0         0         0         0         0         0
         0         0         0         0         0         0         0         0
         0         0         0         0         0         0         0         0
         0         0         0         0         0         0         0         0
         0         0         0         0         0         0         0         0
         0         0         0         0         0         0         0         0
         0         0         0         0         0         0         0         0
         0         0         0         0         0         0         0         0
         0         0         0         0         0         0         0         0
         0         0         0         0         0         0         0         0
         0         0         0         0         0         0         0         0
         0         0         0         0         0         0         0         0
         0         0         0         0         0         0         0         0
         0         0         0         0         0         0         0         0
         0         0         0         0         0         0         0         0
         0         0         0         0         0         0         0         0
         0         0         0         0         0         0         0         0
         0         0         0         0         0         0         0         0
         0         0         0         0         0         0         0         0
         0         0         0         0         0         0         0         0
         0         0         0         0         0         0         0         0
         0         0         0         0         0         0         0         0
         0         0         0         0         0         0         0         0
         0         0         0         0         0         0         0         0
         0         0         0         0         0         0         0         0
         0         0         0         0         0         0         0         0
         0         0         0         0         0         0         0         0
         0         0         0         0         0         0         0         0
         0         0         0         0         0         0         0         0
         0         0         0         0         0         0         0         0
         0         0         0         0         0         0         0         0
         0         0         0         0         0         0         0         0
         0         0         0         0         0         0         0         0
         0         0         0         0         0         0         0         0
         0         0         0         0         0         0         0         0
         0         0         0         0         0         0         0         0
         0         0         0         0         0         0         0         0
         0         0         0         0         0         0         0         0
         0         0         0         0         0         0         0         0
         0         0         0         0         0         0         0         0
         0         0         0         0         0         0         0         0
         0         0         0         0         0         0         0         0
         0         0         0         0         0         0         0         0
         0         0         0         0         0         0         0         0
         0         0         0         0         0         0         0         0
         0         0         0         0         0         0         0         0
         0         0         0         0         0         0         0         0
         0         0         0         0         0         0         0         0
         0         0         0         0         0         0         0         0
         0         0         0         0         0         0         0         0
         0         0         0         0         0         0         0         0
         0         0         0         0         0         0         0         0
         0         0         0         0         0         0         0         0
         0         0         0         0         0         0         0         0
         0         0         0         0         0         0         0         0
         0         0         0         0         0         0         0         0
         0         0         0         0         0         0         0         0
         0         0         0         0         0         0         0         0
         0         0         0         0         0         0         0         0
         0         0         0         0         0         0         0         0
         0         0         0         0         0         0         0         0
         0         0         0         0         0         0         0         0
         0         0         0         0         0         0         0         0
         0         0         0         0         0         0         0         0
         0         0         0         0         0         0         0         0
         0         0         0         0         0         0         0         0
         0         0         0         0         0         0         0         0
         0         0         0         0         0         0         0         0
         0         0         0         0         0         0         0         0
         0         0         0         0         0         0         0         0
         0         0         0         0         0         0         0         0
         0         0         0         0         0         0         0         0
         0         0         0         0         0         0         0         0
         0         0         0         0         0         0         0         0
         0         0         0         0         0         0         0         0
         0         0         0         0         0         0         0         0
         0         0         0         0         0         0         0         0
         0         0         0         0         0         0         0         0
         0         0         0         0         0         0         0         0
         0         0         0         0         0         0         0         0
         0         0         0         0         0         0         0         0
         0         0         0         0         0         0         0         0
         0         0         0         0         0         0         0         0
         0         0         0         0         0         0         0         0
         0         0         0         0         0         0         0         0
         0         0         0         0         0         0         0         0
         0         0         0         0         0         0         0         0
         0         0         0         0         0         0         0         0
         0         0         0         0         0         0         0         0
         0         0         0         0         0         0         0         0
         0         0         0         0         0         0         0         0
         0         0         0         0         0         0         0         0
         0         0         0         0         0         0         0         0
         0         0         0         0         0         0         0         0
         0         0         0         0         0         0         0         0
         0         0         0         0         0         0         0         0
         0         0         0         0         0         0         0         0
         0         0         0         0         0         0         0         0
         0         0         0         0         0         0         0         0
         0         0         0         0         0         0         0         0
         0         0         0         0         0         0         0         0
         0         0         0         0         0         0         0         0
         0         0         0         0         0         0         0         0
         0         0         0         0         0         0         0         0
         0         0         0         0         0         0         0         0
         0         0         0         0         0         0         0         0
         0         0         0         0         0         0         0         0
         0         0         0         0         0         0         0         0
         0         0         0         0         0         0         0         0
         0         0         0         0         0         0         0         0
         0         0         0         0         0         0         0         0
         0         0         0         0         0         0         0         0
         0         0         0         0         0         0         0         0
         0         0         0         0         0         0         0         0
         0         0         0         0         0         0         0         0
         0         0         0         0         0         0         0         0
         0         0         0         0         0         0         0         0
         0         0         0         0         0         0         0         0
         0         0         0         0         0         0         0         0
         0         0         0         0         0         0         0         0
         0         0         0         0         0         0         0         0
         0         0         0         0         0         0         0         0
         0         0         0         0         0         0         0         0
         0         0         0         0         0         0         0         0
         0         0         0         0         0         0         0         0
         0         0         0         0         0         0         0         0
         0         0         0         0         0         0         0         0
         0         0         0         0         0         0         0         0
         0         0         0         0         0         0         0         0
         0         0         0         0         0         0         0         0
         0         0         0         0         0         0         0         0
         0         0         0         0         0         0         0         0
         0         0         0         0         0         0         0         0
         0         0         0         0         0         0         0         0
         0         0         0         0         0         0         0         0
         0         0         0         0         0         0         0         0
         0         0         0         0         0         0         0         0
         0         0         0         0         0         0         0         0
         0         0         0         0         0         0         0         0
         0         0         0         0         0         0         0         0
         0         0         0         0         0         0         0         0
         0         0         0         0         0         0         0         0
         0         0         0         0         0         0         0         0
         0         0         0         0         0         0         0         0
         0         0         0         0         0         0         0         0
         0         0         0         0         0         0         0         0
         0         0         0         0         0         0         0         0
         0         0         0         0         0         0         0         0
         0         0         0         0         0         0         0         0
         0         0         0         0         0         0         0         0
         0         0         0         0         0         0         0         0
         0         0         0         0         0         0         0         0
         0         0         0         0         0         0         0         0
         0         0         0         0         0         0         0         0
         0         0         0         0         0         0         0         0
         0         0         0         0         0         0         0         0
         0         0         0         0         0         0         0         0
         0         0         0         0         0         0         0         0
         0         0         0         0         0         0         0         0
         0         0         0         0         0         0         0         0
         0         0         0         0         0         0         0         0
         0         0         0         0         0         0         0         0
         0         0         0         0         0         0         0         0
         0         0         0         0         0         0         0         0
         0         0         0         0         0         0         0         0
         0         0         0         0         0         0         0         0
         0         0         0         0         0         0         0         0
         0         0         0         0         0         0         0         0
         0         0         0         0         0         0         0         0
         0         0         0         0         0         0         0         0
         0         0         0         0         0         0         0         0
         0         0         0         0         0         0         0         0
         0         0         0         0         0         0         0         0
         0         0         0         0         0         0         0         0
         0         0         0         0         0         0         0         0
         0         0         0         0         0         0         0         0
         0         0         0         0         0         0         0         0
         0         0         0         0         0         0         0         0
         0         0         0         0         0         0         0         0
         0         0         0         0         0         0         0         0
         0         0         0         0         0         0         0         0
         0         0         0         0         0         0         0         0
         0         0         0         0         0         0         0         0
         0         0         0         0         0         0         0         0
         0         0         0         0         0         0         0         0
         0         0         0         0         0         0         0         0
         0         0         0         0         0         0         0         0
         0         0         0         0         0         0         0         0
         0         0         0         0         0         0         0         0
         0         0         0         0         0         0         0         0
         0         0         0         0         0         0         0         0
         0         0         0         0         0         0         0         0
         0         0         0         0         0         0         0         0
         0         0         0         0         0         0         0         0
         0         0         0         0         0         0         0         0
         0         0         0         0         0         0         0         0
         0         0         0         0         0         0         0         0
         0         0         0         0         0         0         0         0
         0         0         0         0         0         0         0         0
         0         0         0         0         0         0         0         0
         0         0         0         0         0         0         0         0
         0         0         0         0         0         0         0         0
         0         0         0         0         0         0         0         0
         0         0         0         0         0         0         0         0
         0         0         0         0         0         0         0         0
         0         0         0         0         0         0         0         0
         0         0         0         0         0         0         0         0
         0         0         0         0         0         0         0         0
         0         0         0         0         0         0         0         0
         0         0         0         0         0         0         0         0
         0         0         0         0         0         0         0         0
         0         0         0         0         0         0         0         0
         0         0         0         0         0         0         0         0
         0         0         0         0         0         0         0         0
         0         0         0         0         0         0         0         0
         0         0         0         0         0         0         0         0
         0         0         0         0         0         0         0         0
         0         0         0         0         0         0         0         0
         0         0         0         0         0         0         0         0
         0         0         0         0         0         0         0         0
         0         0         0         0         0         0         0         0
         0         0         0         0         0         0         0         0
         0         0         0         0         0         0         0         0
         0         0         0         0         0         0         0         0
         0         0         0         0         0         0         0         0
         0         0         0         0         0         0         0         0
         0         0         0         0         0         0         0         0
         0         0         0         0         0         0         0         0
         0         0         0         0         0         0         0         0
         0         0         0         0         0         0         0         0
         0         0         0         0         0         0         0         0
         0         0         0         0         0         0         0         0
         0         0         0         0         0         0         0         0
         0         0         0         0         0         0         0         0
         0         0         0         0         0         0         0         0
         0         0         0         0         0         0         0         0
         0         0         0         0         0         0         0         0
         0         0         0         0         0         0         0         0
         0         0         0         0         0         0         0         0
         0         0         0         0         0         0         0         0
         0         0         0         0         0         0         0         0
         0         0         0         0         0         0         0         0
         0         0         0         0         0         0         0         0
         0         0         0         0         0         0         0         0
         0         0         0         0         0         0         0         0
         0         0         0         0         0         0         0         0
         0         0         0         0         0         0         0         0
         0         0         0         0         0         0         0         0
         0         0         0         0         0         0         0         0
         0         0         0         0         0         0         0         0
         0         0         0         0         0         0         0         0
         0         0         0         0         0         0         0         0
         0         0         0         0         0         0         0         0
         0         0         0         0         0         0         0         0
         0         0         0         0         0         0         0         0
         0         0         0         0         0         0         0         0
         0         0         0         0         0         0         0         0
         0         0         0         0         0         0         0         0
         0         0         0         0         0         0         0         0
         0         0         0         0         0         0         0         0
         0         0         0         0         0         0         0         0
         0         0         0         0         0         0         0         0
         0         0         0         0         0         0         0         0
         0         0         0         0         0         0         0         0
         0         0         0         0         0         0         0         0
         0         0         0         0         0         0         0         0
         0         0         0         0         0         0         0         0
         0         0         0         0         0         0         0         0
         0         0         0         0         0         0         0         0
         0         0         0         0         0         0         0         0
         0         0         0         0         0         0         0         0
         0         0         0         0         0         0         0         0
         0         0         0         0         0         0         0         0
         0         0         0         0         0         0         0         0
         0         0         0         0         0         0         0         0
         0         0         0         0         0         0         0         0
         0         0         0         0         0         0         0         0
         0         0         0         0         0         0         0         0
         0         0         0         0         0         0         0         0
         0         0         0         0         0         0         0         0
         0         0         0         0         0         0         0         0
         0         0         0         0         0         0         0         0
         0         0         0         0         0         0         0         0
         0         0         0         0         0         0         0         0
         0         0         0         0         0         0         0         0
         0         0         0         0         0         0         0         0
         0         0         0         0         0         0         0         0
         0         0         0         0         0         0         0         0
         0         0         0         0         0         0         0         0
         0         0         0         0         0         0         0         0
         0         0         0         0         0         0         0         0
         0         0         0         0         0         0         0         0
         0         0         0         0         0         0         0         0
         0         0         0         0         0         0         0         0
         0         0         0         0         0         0         0         0
         0         0         0         0         0         0         0         0
         0         0         0         0         0         0         0         0
         0         0         0         0         0         0         0         0
         0         0         0         0         0         0         0         0
         0         0         0         0         0         0         0         0
         0         0         0         0         0         0         0         0
         0         0         0         0         0         0         0         0
         0         0         0         0         0         0         0         0
         0         0         0         0         0         0         0         0
         0         0         0         0         0         0         0         0
         0         0         0         0         0         0         0         0
         0         0         0         0         0         0         0         0
         0         0         0         0         0         0         0         0
         0         0         0         0         0         0         0         0
         0         0         0         0         0         0         0         0
         0         0         0         0         0         0         0         0
         0         0         0         0         0         0         0         0
         0         0         0         0         0         0         0         0
         0         0         0         0         0         0         0         0
         0         0         0         0         0         0         0         0
         0         0         0         0         0         0         0         0
         0         0         0         0         0         0         0         0
         0         0         0         0         0         0         0         0
         0         0         0         0         0         0         0         0
         0         0         0         0         0         0         0         0
         0         0         0         0         0         0         0         0
         0         0         0         0         0         0         0         0
         0         0         0         0         0         0         0         0
         0         0         0         0         0         0         0         0
         0         0         0         0         0         0         0         0
         0         0         0         0         0         0         0         0
         0         0         0         0         0         0         0         0
         0         0         0         0         0         0         0         0
         0         0         0         0         0         0         0         0
         0         0         0         0         0         0         0         0
         0         0         0         0         0         0         0         0
         0         0         0         0         0         0         0         0
         0         0         0         0         0         0         0         0
         0         0         0         0         0         0         0         0
         0         0         0         0         0         0         0         0
         0         0         0         0         0         0         0         0
         0         0         0         0         0         0         0         0
         0         0         0         0         0         0         0         0
         0         0         0         0         0         0         0         0
         0         0         0         0         0         0         0         0
         0         0         0         0         0         0         0         0
         0         0         0         0         0         0         0         0
         0         0         0         0         0         0         0         0
         0         0         0         0         0         0         0         0
         0         0         0         0         0         0         0         0
         0         0         0         0         0         0         0         0
         0         0         0         0         0         0         0         0
         0         0         0         0         0         0         0         0
         0         0         0         0         0         0         0         0
         0         0         0         0         0         0         0         0
         0         0         0         0         0         0         0         0
         0         0         0         0         0         0         0         0
         0         0         0         0         0         0         0         0
         0         0         0         0         0         0         0         0
         0         0         0         0         0         0         0         0
         0         0         0         0         0         0         0         0
         0         0         0         0         0         0         0         0
         0         0         0         0         0         0         0         0
         0         0         0         0         0         0         0         0
         0         0         0         0         0         0         0         0
         0         0         0         0         0         0         0         0
         0         0         0         0         0         0         0         0
         0         0         0         0         0         0         0         0
         0         0         0         0         0         0         0         0
         0         0         0         0         0         0         0         0
         0         0         0         0         0         0         0         0
         0         0         0         0         0         0         0         0
         0         0         0         0         0         0         0         0
         0         0         0         0         0         0         0         0
         0         0         0         0         0         0         0         0
         0         0         0         0         0         0         0         0
         0         0         0         0         0         0         0         0
         0         0         0         0         0         0         0         0
         0         0         0         0         0         0         0         0
         0         0         0         0         0         0         0         0
         0         0         0         0         0         0         0         0
         0         0         0         0         0         0         0         0
         0         0         0         0         0         0         0         0
         0         0         0         0         0         0         0         0
         0         0         0         0         0         0         0         0
         0         0         0         0         0         0         0         0
         0         0         0         0         0         0         0         0
         0         0         0         0         0         0         0         0
         0         0         0         0         0         0         0         0
         0         0         0         0         0         0         0         0
         0         0         0         0         0         0         0         0
         0         0         0         0         0         0         0         0
         0         0         0         0         0         0         0         0
         0         0         0         0         0         0         0         0
         0         0         0         0         0         0         0         0
         0         0         0         0         0         0         0         0
         0         0         0         0         0         0         0         0
         0         0         0         0         0         0         0         0
         0         0         0         0         0         0         0         0
         0         0         0         0         0         0         0         0
         0         0         0         0         0         0         0         0
         0         0         0         0         0         0         0         0
         0         0         0         0         0         0         0         0
         0         0         0         0         0         0         0         0
         0         0         0         0         0         0         0         0
         0         0         0         0         0         0         0         0
         0         0         0         0         0         0         0         0
         0         0         0         0         0         0         0         0
         0         0         0         0         0         0         0         0
         0         0         0         0         0         0         0         0
         0         0         0         0         0         0         0         0
         0         0         0         0         0         0         0         0
         0         0         0         0         0         0         0         0
         0         0         0         0         0         0         0         0
         0         0         0         0         0         0         0         0
         0         0         0         0         0         0         0         0
         0         0         0         0         0         0         0         0
         0         0         0         0         0         0         0         0
         0         0         0         0         0         0         0         0
         0         0         0         0         0         0         0         0
         0         0         0         0         0         0         0         0
         0         0         0         0         0         0         0         0
         0         0         0         0         0         0         0         0
         0         0         0         0         0         0         0         0
         0         0         0         0         0         0         0         0
         0         0         0         0         0         0         0         0
         0         0         0         0         0         0         0         0
         0         0         0         0         0         0         0         0
         0         0         0         0         0         0         0         0
         0         0         0         0         0         0         0         0
         0         0         0         0         0         0         0         0
         0         0         0         0         0         0         0         0
         0         0         0         0         0         0         0         0
         0         0         0         0         0         0         0         0
         0         0         0         0         0         0         0         0
         0         0         0         0         0         0         0         0
         0         0         0         0         0         0         0         0
         0         0         0         0         0         0         0         0
         0         0         0         0         0         0         0         0
         0         0         0         0         0         0         0         0
         0         0         0         0         0         0         0         0
         0         0         0         0         0         0         0         0
         0         0         0         0         0         0         0         0
         0         0         0         0         0         0         0         0
         0         0         0         0         0         0         0         0
         0         0         0         0         0         0         0         0
         0         0         0         0         0         0         0         0
         0         0         0         0         0         0         0         0
         0         0         0         0         0         0         0         0
         0         0         0         0         0         0         0         0
         0         0         0         0         0         0         0         0
         0         0         0         0         0         0         0         0
         0         0         0         0         0         0         0         0
         0         0         0         0         0         0         0         0
         0         0         0         0         0         0         0         0
         0         0         0         0         0         0         0         0
         0         0         0         0         0         0         0         0
         0         0         0         0         0         0         0         0
         0         0         0         0         0         0         0         0
         0         0         0         0         0         0         0         0
         0         0         0         0         0         0         0         0
         0         0         0         0         0         0         0         0
         0         0         0         0         0         0         0         0
         0         0         0         0         0         0         0         0
         0         0         0         0         0         0         0         0
         0         0         0         0         0         0         0         0
         0         0         0         0         0         0         0         0
         0         0         0         0         0         0         0         0
         0         0         0         0         0         0         0         0
         0         0         0         0         0         0         0         0
         0         0         0         0         0         0         0         0
         0         0         0         0         0         0         0         0
         0         0         0         0         0         0         0         0
         0         0         0         0         0         0         0         0
         0         0         0         0         0         0         0         0
         0         0         0         0         0         0         0         0
         0         0         0         0         0         0         0         0
         0         0         0         0         0         0         0         0
         0         0         0         0         0         0         0         0
         0         0         0         0         0         0         0         0
         0         0         0         0         0         0         0         0
         0         0         0         0         0         0         0         0
         0         0         0         0         0         0         0         0
         0         0         0         0         0         0         0         0
         0         0         0         0         0         0         0         0
         0         0         0         0         0         0         0         0
         0         0         0         0         0         0         0         0
         0         0         0         0         0         0         0         0
         0         0         0         0         0         0         0         0
         0         0         0         0         0         0         0         0
         0         0         0         0         0         0         0         0
         0         0         0         0         0         0         0         0
         0         0         0         0         0         0         0         0
         0         0         0         0         0         0         0         0
         0         0         0         0         0         0         0         0
         0         0         0         0         0         0         0         0
         0         0         0         0         0         0         0         0
         0         0         0         0         0         0         0         0
         0         0         0         0         0         0         0         0
         0         0         0         0         0         0         0         0
         0         0         0         0         0         0         0         0
         0         0         0         0         0         0         0         0
         0         0         0         0         0         0         0         0
         0         0         0         0         0         0         0         0
         0         0         0         0         0         0         0         0
         0         0         0         0         0         0         0         0
         0         0         0         0         0         0         0         0
         0         0         0         0         0         0         0         0
         0         0         0         0         0         0         0         0
         0         0         0         0         0         0         0         0
         0         0         0         0         0         0         0         0
         0         0         0         0         0         0         0         0
         0         0         0         0         0         0         0         0
         0         0         0         0         0         0         0         0
         0         0         0         0         0         0         0         0
         0         0         0         0         0         0         0         0
         0         0         0         0         0         0         0         0
         0         0         0         0         0         0         0         0
         0         0         0         0         0         0         0         0
         0         0         0         0         0         0         0         0
         0         0         0         0         0         0         0         0
         0         0         0         0         0         0         0         0
         0         0         0         0         0         0         0         0
         0         0         0         0         0         0         0         0
         0         0         0         0         0         0         0         0
         0         0         0         0         0         0         0         0
         0         0         0         0         0         0         0         0
         0         0         0         0         0         0         0         0
         0         0         0         0         0         0         0         0
         0         0         0         0         0         0         0         0
         0         0         0         0         0         0         0         0
         0         0         0         0         0         0         0         0
         0         0         0         0         0         0         0         0
         0         0         0         0         0         0         0         0
         0         0         0         0         0         0         0         0
         0         0         0         0         0         0         0         0
         0         0         0         0         0         0         0         0
         0         0         0         0         0         0         0         0
         0         0         0         0         0         0         0         0
         0         0         0         0         0         0         0         0
         0         0         0         0         0         0         0         0
         0         0         0         0         0         0         0         0
         0         0         0         0         0         0         0         0
         0         0         0         0         0         0         0         0
         0         0         0         0         0         0         0         0
         0         0         0         0         0         0         0         0
         0         0         0         0         0         0         0         0
         0         0         0         0         0         0         0         0
         0         0         0         0         0         0         0         0
         0         0         0         0         0         0         0         0
         0         0         0         0         0         0         0         0
         0         0         0         0         0         0         0         0
         0         0         0         0         0         0         0         0
         0         0         0         0         0         0         0         0
         0         0         0         0         0         0         0         0
         0         0         0         0         0         0         0         0
         0         0         0         0         0         0         0         0
         0         0         0         0         0         0         0         0
         0         0         0         0         0         0         0         0
         0         0         0         0         0         0         0         0
         0         0         0         0         0         0         0         0
         0         0         0         0         0         0         0         0
         0         0         0         0         0         0         0         0
         0         0         0         0         0         0         0         0
         0         0         0         0         0         0         0         0
         0         0         0         0         0         0         0         0
         0         0         0         0         0         0         0         0
         0         0         0         0         0         0         0         0
         0         0         0         0         0         0         0         0
         0         0         0         0         0         0         0         0
         0         0         0         0         0         0         0         0
         0         0         0         0         0         0         0         0
         0         0         0         0         0         0         0         0
         0         0         0         0         0         0         0         0
         0         0         0         0         0         0         0         0
         0         0         0         0         0         0         0         0
         0         0         0         0         0         0         0         0
         0         0         0         0         0         0         0         0
         0         0         0         0         0         0         0         0
         0         0         0         0         0         0         0         0
         0         0         0         0         0         0         0         0
         0         0         0         0         0         0         0         0
         0         0         0         0         0         0         0         0
         0         0         0         0         0         0         0         0
         0         0         0         0         0         0         0         0
         0         0         0         0         0         0         0         0
         0         0         0         0         0         0         0         0
         0         0         0         0         0         0         0         0
         0         0         0         0         0         0         0         0
         0         0         0         0         0         0         0         0
         0         0         0         0         0         0         0         0
         0         0         0         0         0         0         0         0
         0         0         0         0         0         0         0         0
         0         0         0         0         0         0         0         0
         0         0         0         0         0         0         0         0
         0         0         0         0         0         0         0         0
         0         0         0         0         0         0         0         0
         0         0         0         0         0         0         0         0
         0         0         0         0         0         0         0         0
         0         0         0         0         0         0         0         0
         0         0         0         0         0         0         0         0
         0         0         0         0         0         0         0         0
         0         0         0         0         0         0         0         0
         0         0         0         0         0         0         0         0
         0         0         0         0         0         0         0         0
         0         0         0         0         0         0         0         0
         0         0         0         0         0         0         0         0
         0         0         0         0         0         0         0         0
         0         0         0         0         0         0         0         0
         0         0         0         0         0         0         0         0
         0         0         0         0         0         0         0         0
         0         0         0         0         0         0         0         0
         0         0         0         0         0         0         0         0
         0         0         0         0         0         0         0         0
         0         0         0         0         0         0         0         0
         0         0         0         0         0         0         0         0
         0         0         0         0         0         0         0         0
         0         0         0         0         0         0         0         0
         0         0         0         0         0         0         0         0
         0         0         0         0         0         0         0         0
         0         0         0         0         0         0         0         0
         0         0         0         0         0         0         0         0
         0         0         0         0         0         0         0         0
         0         0         0         0         0         0         0         0
         0         0         0         0         0         0         0         0
         0         0         0         0         0         0         0         0
         0         0         0         0         0         0         0         0
         0         0         0         0         0         0         0         0
         0         0         0         0         0         0         0         0
         0         0         0         0         0         0         0         0
         0         0         0         0         0         0         0         0
         0         0         0         0         0         0         0         0
         0         0         0         0         0         0         0         0
         0         0         0         0         0         0         0         0
         0         0         0         0         0         0         0         0
         0         0         0         0         0         0         0         0
         0         0         0         0         0         0         0         0
         0         0         0         0         0         0         0         0
         0         0         0         0         0         0         0         0
         0         0         0         0         0         0         0         0
         0         0         0         0         0         0         0         0
         0         0         0         0         0         0         0         0
         0         0         0         0         0         0         0         0
         0         0         0         0         0         0         0         0
         0         0         0         0         0         0         0         0
         0         0         0         0         0         0         0         0
         0         0         0         0         0         0         0         0
         0         0         0         0         0         0         0         0
         0         0         0         0         0         0         0         0
         0         0         0         0         0         0         0         0
         0         0         0         0         0         0         0         0
         0         0         0         0         0         0         0         0
         0         0         0         0         0         0         0         0
         0         0         0         0         0         0         0         0
         0         0         0         0         0         0         0         0
         0         0         0         0         0         0         0         0
         0         0         0         0         0         0         0         0
         0         0         0         0         0         0         0         0
         0         0         0         0         0         0         0         0
         0         0         0         0         0         0         0         0
         0         0         0         0         0         0         0         0
         0         0         0         0         0         0         0         0
         0         0         0         0         0         0         0         0
         0         0         0         0         0         0         0         0
         0         0         0         0         0         0         0         0
         0         0         0         0         0         0         0         0
         0         0         0         0         0         0         0         0
         0         0         0         0         0         0         0         0
         0         0         0         0         0         0         0         0
         0         0         0         0         0         0         0         0
         0         0         0         0         0         0         0         0
         0         0         0         0         0         0         0         0
         0         0         0         0         0         0         0         0
         0         0         0         0         0         0         0         0
         0         0         0         0         0         0         0         0
         0         0         0         0         0         0         0         0
         0         0         0         0         0         0         0         0
         0         0         0         0         0         0         0         0
         0         0         0         0         0         0         0         0
         0         0         0         0         0         0         0         0
         0         0         0         0         0         0         0         0
         0         0         0         0         0         0         0         0
         0         0         0         0         0         0         0         0
         0         0         0         0         0         0         0         0
         0         0         0         0         0         0         0         0
         0         0         0         0         0         0         0         0
         0         0         0         0         0         0         0         0
         0         0         0         0         0         0         0         0
         0         0         0         0         0         0         0         0
         0         0         0         0         0         0         0         0
         0         0         0         0         0         0         0         0
         0         0         0         0         0         0         0         0
         0         0         0         0         0         0         0         0
         0         0         0         0         0         0         0         0
         0         0         0         0         0         0         0         0
         0         0         0         0         0         0         0         0
         0         0         0         0         0         0         0         0
         0         0         0         0         0         0         0         0
         0         0         0         0         0         0         0         0
         0         0         0         0         0         0         0         0
         0         0         0         0         0         0         0         0
         0         0         0         0         0         0         0         0
         0         0         0         0         0         0         0         0
         0         0         0         0         0         0         0         0
         0         0         0         0         0         0         0         0
         0         0         0         0         0         0         0         0
         0         0         0         0         0         0         0         0
         0         0         0         0         0         0         0         0
         0         0         0         0         0         0         0         0
         0         0         0         0         0         0         0         0
         0         0         0         0         0         0         0         0
         0         0         0         0         0         0         0         0
         0         0         0         0         0         0         0         0
         0         0         0         0         0         0         0         0
         0         0         0         0         0         0         0         0
         0         0         0         0         0         0         0         0
         0         0         0         0         0         0         0         0
         0         0         0         0         0         0         0         0
         0         0         0         0         0         0         0         0
         0         0         0         0         0         0         0         0
         0         0         0         0         0         0         0         0
         0         0         0         0         0         0         0         0
         0         0         0         0         0         0         0         0
         0         0         0         0         0         0         0         0
         0         0         0         0         0         0         0         0
         0         0         0         0         0         0         0         0
         0         0         0         0         0         0         0         0
         0         0         0         0         0         0         0         0
         0         0         0         0         0         0         0         0
         0         0         0         0         0         0         0         0
         0         0         0         0         0         0         0         0
         0         0         0         0         0         0         0         0
         0         0         0         0         0         0         0         0
         0         0         0         0         0         0         0         0
         0         0         0         0         0         0         0         0
         0         0         0         0         0         0         0         0
         0         0         0         0         0         0         0         0
         0         0         0         0         0         0         0         0
         0         0         0         0         0         0         0         0
         0         0         0         0         0         0         0         0
         0         0         0         0         0         0         0         0
         0         0         0         0         0         0         0         0
         0         0         0         0         0         0         0         0
         0         0         0         0         0         0         0         0
         0         0         0         0         0         0         0         0
         0         0         0         0         0         0         0         0
         0         0         0         0         0         0         0         0
         0         0         0         0         0         0         0         0
         0         0         0         0         0         0         0         0
         0         0         0         0         0         0         0         0
         0         0         0         0         0         0         0         0
         0         0         0         0         0         0         0         0
         0         0         0         0         0         0         0         0
         0         0         0         0         0         0         0         0
         0         0         0         0         0         0         0         0
         0         0         0         0         0         0         0         0
         0         0         0         0         0         0         0         0
         0         0         0         0         0         0         0         0
         0         0         0         0         0         0         0         0
         0         0         0         0         0         0         0         0
         0         0         0         0         0         0         0         0
         0         0         0         0         0         0         0         0
         0         0         0         0         0         0         0         0
         0         0         0         0         0         0         0         0
         0         0         0         0         0         0         0         0
         0         0         0         0         0         0         0         0
         0         0         0         0         0         0         0         0
         0         0         0         0         0         0         0         0
         0         0         0         0         0         0         0         0
         0         0         0         0         0         0         0         0
         0         0         0         0         0         0         0         0
         0         0         0         0         0         0         0         0
         0         0         0         0         0         0         0         0
         0         0         0         0         0         0         0         0
         0         0         0         0         0         0         0         0
         0         0         0         0         0         0         0         0
         0         0         0         0         0         0         0         0
         0         0         0         0         0         0         0         0
         0         0         0         0         0         0         0         0
         0         0         0         0         0         0         0         0
         0         0         0         0         0         0         0         0
         0         0         0         0         0         0         0         0
         0         0         0         0         0         0         0         0
         0         0         0         0         0         0         0         0
         0         0         0         0         0         0         0         0
         0         0         0         0         0         0         0         0
         0         0         0         0         0         0         0         0
         0         0         0         0         0         0         0         0
         0         0         0         0         0         0         0         0
         0         0         0         0         0         0         0         0
         0         0         0         0         0         0         0         0
         0         0         0         0         0         0         0         0
         0         0         0         0         0         0         0         0
         0         0         0         0         0         0         0         0
         0         0         0         0         0         0         0         0
         0         0         0         0         0         0         0         0
         0         0         0         0         0         0         0         0
         0         0         0         0         0         0         0         0
         0         0         0         0         0         0         0         0
         0         0         0         0         0         0         0         0
         0         0         0         0         0         0         0         0
         0         0         0         0         0         0         0         0
         0         0         0         0         0         0         0         0
         0         0         0         0         0         0         0         0
         0         0         0         0         0         0         0         0
         0         0         0         0         0         0         0         0
         0         0         0         0         0         0         0         0
         0         0         0         0         0         0         0         0
         0         0         0         0         0         0         0         0
         0         0         0         0         0         0         0         0
         0         0         0         0         0         0         0         0
         0         0         0         0         0         0         0         0
         0         0         0         0         0         0         0         0
         0         0         0         0         0         0         0         0
         0         0         0         0         0         0         0         0
         0         0         0         0         0         0         0         0
         0         0         0         0         0         0         0         0
         0         0         0         0         0         0         0         0
         0         0         0         0         0         0         0         0
         0         0         0         0         0         0         0         0
         0         0         0         0         0         0         0         0
         0         0         0         0         0         0         0         0
         0         0         0         0         0         0         0         0
         0         0         0         0         0         0         0         0
         0         0         0         0         0         0         0         0
         0         0         0         0         0         0         0         0
         0         0         0         0         0         0         0         0
         0         0         0         0         0         0         0         0
         0         0         0         0         0         0         0         0
         0         0         0         0         0         0         0         0
         0         0         0         0         0         0         0         0
         0         0         0         0         0         0         0         0
         0         0         0         0         0         0         0         0
         0         0         0         0         0         0         0         0
         0         0         0         0         0         0         0         0
         0         0         0         0         0         0         0         0
         0         0         0         0         0         0         0         0
         0         0         0         0         0         0         0         0
         0         0         0         0         0         0         0         0
         0         0         0         0         0         0         0         0
         0         0         0         0         0         0         0         0
         0         0         0         0         0         0         0         0
         0         0         0         0         0         0         0         0
         0         0         0         0         0         0         0         0
         0         0         0         0         0         0         0         0
         0         0         0         0         0         0         0         0
         0         0         0         0         0         0         0         0
         0         0         0         0         0         0         0         0
         0         0         0         0         0         0         0         0
         0         0         0         0         0         0         0         0
         0         0         0         0         0         0         0         0
         0         0         0         0         0         0         0         0
         0         0         0         0         0         0         0         0
         0         0         0         0         0         0         0         0
         0         0         0         0         0         0         0         0
         0         0         0         0         0         0         0         0
         0         0         0         0         0         0         0         0
         0         0         0         0         0         0         0         0
         0         0         0         0         0         0         0         0
         0         0         0         0         0         0         0         0
         0         0         0         0         0         0         0         0
         0         0         0         0         0         0         0         0
         0         0         0         0         0         0         0         0
         0         0         0         0         0         0         0         0
         0         0         0         0         0         0         0         0
         0         0         0         0         0         0         0         0
         0         0         0         0         0         0         0         0
         0         0         0         0         0         0         0         0
         0         0         0         0         0         0         0         0
         0         0         0         0         0         0         0         0
         0         0         0         0         0         0         0         0
         0         0         0         0         0         0         0         0
         0         0         0         0         0         0         0         0
         0         0         0         0         0         0         0         0
         0         0         0         0         0         0         0         0
         0         0         0         0         0         0         0         0
         0         0         0         0         0         0         0         0
         0         0         0         0         0         0         0         0
         0         0         0         0         0         0         0         0
         0         0         0         0         0         0         0         0
         0         0         0         0         0         0         0         0
         0         0         0         0         0         0         0         0
         0         0         0         0         0         0         0         0
         0         0         0         0         0         0         0         0
         0         0         0         0         0         0         0         0
         0         0         0         0         0         0         0         0
         0         0         0         0         0         0         0         0
         0         0         0         0         0         0         0         0
         0         0         0         0         0         0         0         0
         0         0         0         0         0         0         0         0
         0         0         0         0         0         0         0         0
         0         0         0         0         0         0         0         0
         0         0         0         0         0         0         0         0
         0         0         0         0         0         0         0         0
         0         0         0         0         0         0         0         0
         0         0         0         0         0         0         0         0
         0         0         0         0         0         0         0         0
         0         0         0         0         0         0         0         0
         0         0         0         0         0         0         0         0
         0         0         0         0         0         0         0         0
         0         0         0         0         0         0         0         0
         0         0         0         0         0         0         0         0
         0         0         0         0         0         0         0         0
         0         0         0         0         0         0         0         0
         0         0         0         0         0         0         0         0
         0         0         0         0         0         0         0         0
         0         0         0         0         0         0         0         0
         0         0         0         0         0         0         0         0
         0         0         0         0         0         0         0         0
         0         0         0         0         0         0         0         0
         0         0         0         0         0         0         0         0
         0         0         0         0         0         0         0         0
         0         0         0         0         0         0         0         0
         0         0         0         0         0         0         0         0
         0         0         0         0         0         0         0         0
         0         0         0         0         0         0         0         0
         0         0         0         0         0         0         0         0
         0         0         0         0         0         0         0         0
         0         0         0         0         0         0         0         0
         0         0         0         0         0         0         0         0
         0         0         0         0         0         0         0         0
         0         0         0         0         0         0         0         0
         0         0         0         0         0         0         0         0
         0         0         0         0         0         0         0         0
         0         0         0         0         0         0         0         0
         0         0         0         0         0         0         0         0
         0         0         0         0         0         0         0         0
         0         0         0         0         0         0         0         0
         0         0         0         0         0         0         0         0
         0         0         0         0         0         0         0         0
         0         0         0         0         0         0         0         0
         0         0         0         0         0         0         0         0
         0         0         0         0         0         0         0         0
         0         0         0         0         0         0         0         0
         0         0         0         0         0         0         0         0
         0         0         0         0         0         0         0         0
         0         0         0         0         0         0         0         0
         0         0         0         0         0         0         0         0
         0         0         0         0         0         0         0         0
         0         0         0         0         0         0         0         0
         0         0         0         0         0         0         0         0
         0         0         0         0         0         0         0         0
         0         0         0         0         0         0         0         0
         0         0         0         0         0         0         0         0
         0         0         0         0         0         0         0         0
         0         0         0         0         0         0         0         0
         0         0         0         0         0         0         0         0
         0         0         0         0         0         0         0         0
         0         0         0         0         0         0         0         0
         0         0         0         0         0         0         0         0
         0         0         0         0         0         0         0         0
         0         0         0         0         0         0         0         0
         0         0         0         0         0         0         0         0
         0         0         0         0         0         0         0         0
         0         0         0         0         0         0         0         0
         0         0         0         0         0         0         0         0
         0         0         0         0         0         0         0         0
         0         0         0         0         0         0         0         0
         0         0         0         0         0         0         0         0
         0         0         0         0         0         0         0         0
         0         0         0         0         0         0         0         0
         0         0         0         0         0         0         0         0
         0         0         0         0         0         0         0         0
         0         0         0         0         0         0         0         0
         0         0         0         0         0         0         0         0
         0         0         0         0         0         0         0         0
         0         0         0         0         0         0         0         0
         0         0         0         0         0         0         0         0
         0         0         0         0         0         0         0         0
         0         0         0         0         0         0         0         0
         0         0         0         0         0         0         0         0
         0         0         0         0         0         0         0         0
         0         0         0         0         0         0         0         0
         0         0         0         0         0         0         0         0
         0         0         0         0         0         0         0         0
         0         0         0         0         0         0         0         0
         0         0         0         0         0         0         0         0
         0         0         0         0         0         0         0         0
         0         0         0         0         0         0         0         0
         0         0         0         0         0         0         0         0
         0         0         0         0         0         0         0         0
         0         0         0         0         0         0         0         0
         0         0         0         0         0         0         0         0
         0         0         0         0         0         0         0         0
         0         0         0         0         0         0         0         0
         0         0         0         0         0         0         0         0
         0         0         0         0         0         0         0         0
         0         0         0         0         0         0         0         0
         0         0         0         0         0         0         0         0
         0         0         0         0         0         0         0         0
         0         0         0         0         0         0         0         0
         0         0         0         0         0         0         0         0
         0         0         0         0         0         0         0         0
         0         0         0         0         0         0         0         0
         0         0         0         0         0         0         0         0
         0         0         0         0         0         0         0         0
         0         0         0         0         0         0         0         0
         0         0         0         0         0         0         0         0
         0         0         0         0         0         0         0         0
         0         0         0         0         0         0         0         0
         0         0         0         0         0         0         0         0
         0         0         0         0         0         0         0         0
         0         0         0         0         0         0         0         0
         0         0         0         0         0         0         0         0
         0         0         0         0         0         0         0         0
         0         0         0         0         0         0         0         0
         0         0         0         0         0         0         0         0
         0         0         0         0         0         0         0         0
         0         0         0         0         0         0         0         0
         0         0         0         0         0         0         0         0
         0         0         0         0         0         0         0         0
         0         0         0         0         0         0         0         0
         0         0         0         0         0         0         0         0
         0         0         0         0         0         0         0         0
         0         0         0         0         0         0         0         0
         0         0         0         0         0         0         0         0
         0         0         0         0         0         0         0         0
         0         0         0         0         0         0         0         0
         0         0         0         0         0         0         0         0
         0         0         0         0         0         0         0         0
         0         0         0         0         0         0         0         0
         0         0         0         0         0         0         0         0
         0         0         0         0         0         0         0         0
         0         0         0         0         0         0         0         0
         0         0         0         0         0         0         0         0
         0         0         0         0         0         0         0         0
         0         0         0         0         0         0         0         0
         0         0         0         0         0         0         0         0
         0         0         0         0         0         0         0         0
         0         0         0         0         0         0         0         0
         0         0         0         0         0         0         0         0
         0         0         0         0         0         0         0         0
         0         0         0         0         0         0         0         0
         0         0         0         0         0         0         0         0
         0         0         0         0         0         0         0         0
         0         0         0         0         0         0         0         0
         0         0         0         0         0         0         0         0
         0         0         0         0         0         0         0         0
         0         0         0         0         0         0         0         0
         0         0         0         0         0         0         0         0
         0         0         0         0         0         0         0         0
         0         0         0         0         0         0         0         0
         0         0         0         0         0         0         0         0
         0         0         0         0         0         0         0         0
         0         0         0         0         0         0         0         0
         0         0         0         0         0         0         0         0
         0         0         0         0         0         0         0         0
         0         0         0         0         0         0         0         0
         0         0         0         0         0         0         0         0
         0         0         0         0         0         0         0         0
         0         0         0         0         0         0         0         0
         0         0         0         0         0         0         0         0
         0         0         0         0         0         0         0         0
         0         0         0         0         0         0         0         0
         0         0         0         0         0         0         0         0
         0         0         0         0         0         0         0         0
         0         0         0         0         0         0         0         0
         0         0         0         0         0         0         0         0
         0         0         0         0         0         0         0         0
         0         0         0         0         0         0         0         0
         0         0         0         0         0         0         0         0
         0         0         0         0         0         0         0         0
         0         0         0         0         0         0         0         0
         0         0         0         0         0         0         0         0
         0         0         0         0         0         0         0         0
         0         0         0         0         0         0         0         0
         0         0         0         0         0         0         0         0
         0         0         0         0         0         0         0         0
         0         0         0         0         0         0         0         0
         0         0         0         0         0         0         0         0
         0         0         0         0         0         0         0         0
         0         0         0         0         0         0         0         0
         0         0         0         0         0         0         0         0
         0         0         0         0         0         0         0         0
         0         0         0         0         0         0         0         0
         0         0         0         0         0         0         0         0
         0         0         0         0         0         0         0         0
         0         0         0         0         0         0         0         0
         0         0         0         0         0         0         0         0
         0         0         0         0         0         0         0         0
         0         0         0         0         0         0         0         0
         0         0         0         0         0         0         0         0
         0         0         0         0         0         0         0         0
         0         0         0         0         0         0         0         0
         0         0         0         0         0         0         0         0
         0         0         0         0         0         0         0         0
         0         0         0         0         0         0         0         0
         0         0         0         0         0         0         0         0
         0         0         0         0         0         0         0         0
         0         0         0         0         0         0         0         0
         0         0         0         0         0         0         0         0
         0         0         0         0         0         0         0         0
         0         0         0         0         0         0         0         0
         0         0         0         0         0         0         0         0
         0         0         0         0         0         0         0         0
         0         0         0         0         0         0         0         0
         0         0         0         0         0         0         0         0
         0         0         0         0         0         0         0         0
         0         0         0         0         0         0         0         0
         0         0         0         0         0         0         0         0
         0         0         0         0         0         0         0         0
         0         0         0         0         0         0         0         0
         0         0         0         0         0         0         0         0
         0         0         0         0         0         0         0         0
         0         0         0         0         0         0         0         0
         0         0         0         0         0         0         0         0
         0         0         0         0         0         0         0         0
         0         0         0         0         0         0         0         0
         0         0         0         0         0         0         0         0
         0         0         0         0         0         0         0         0
         0         0         0         0         0         0         0         0
         0         0         0         0         0         0         0         0
         0         0         0         0         0         0         0         0
         0         0         0         0         0         0         0         0
         0         0         0         0         0         0         0         0
         0         0         0         0         0         0         0         0
         0         0         0         0         0         0         0         0
         0         0         0         0         0         0         0         0
         0         0         0         0         0         0         0         0
         0         0         0         0         0         0         0         0
         0         0         0         0         0         0         0         0
         0         0         0         0         0         0         0         0
         0         0         0         0         0         0         0         0
         0         0         0         0         0         0         0         0
         0         0         0         0         0         0         0         0
         0         0         0         0         0         0         0         0
         0         0         0         0         0         0         0         0
     26212     26209     26213         0         1
     26217     26214     26218         0         1
     26222     26219     26223         0         1
     26227     26224     26228         0         1
     26232     26229     26233         0         1
     26237     26234     26238         0         1
     26242     26239     26243         0         1
     26247     26244     26248         0         1
     26252     26249     26253         0         1
     26257     26254     26258         0         1
     26262     26259     26263         0         1
     26267     26264     26268         0         1
     26272     26269     26273         0         1
     26277     26274     26278         0         1
     26282     26279     26283         0         1
     26287     26284     26288         0         1
     26292     26289     26293         0         1
     26297     26294     26298         0         1
     26302     26299     26303         0         1
     26307     26304     26308         0         1
     26312     26309     26313         0         1
     26317     26314     26318         0         1
     26322     26319     26323         0         1
     26327     26324     26328         0         1
     26332     26329     26333         0         1
     26337     26334     26338         0         1
     26342     26339     26343         0         1
     26347     26344     26348         0         1
     26352     26349     26353         0         1
     26357     26354     26358         0         1
     26362     26359     26363         0         1
     26367     26364     26368         0         1
     26372     26369     26373         0         1
     26377     26374     26378         0         1
     26382     26379     26383         0         1
     26387     26384     26388         0         1
     26392     26389     26393         0         1
     26397     26394     26398         0         1
     26402     26399     26403         0         1
     26407     26404     26408         0         1
     26412     26409     26413         0         1
     26417     26414     26418         0         1
     26422     26419     26423         0         1
     26427     26424     26428         0         1
     26432     26429     26433         0         1
     26437     26434     26438         0         1
     26442     26439     26443         0         1
     26447     26444     26448         0         1
     26452     26449     26453         0         1
     26457     26454     26458         0         1
     26462     26459     26463         0         1
     26467     26464     26468         0         1
     26472     26469     26473         0         1
     26477     26474     26478         0         1
     26482     26479     26483         0         1
     26487     26484     26488         0         1
     26492     26489     26493         0         1
     26497     26494     26498         0         1
     26502     26499     26503         0         1
     26507     26504     26508         0         1
     26512     26509     26513         0         1
     26517     26514     26518         0         1
     26522     26519     26523         0         1
     26527     26524     26528         0         1
     26532     26529     26533         0         1
     26537     26534     26538         0         1
     26542     26539     26543         0         1
     26547     26544     26548         0         1
     26552     26549     26553         0         1
     26557     26554     26558         0         1
     26562     26559     26563         0         1
     26567     26564     26568         0         1
     26572     26569     26573         0         1
     26577     26574     26578         0         1
     26582     26579     26583         0         1
     26587     26584     26588         0         1
     26592     26589     26593         0         1
     26597     26594     26598         0         1
     26602     26599     26603         0         1
     26607     26604     26608         0         1
     26612     26609     26613         0         1
     26617     26614     26618         0         1
     26622     26619     26623         0         1
     26627     26624     26628         0         1
     26632     26629     26633         0         1
     26637     26634     26638         0         1
     26642     26639     26643         0         1
     26647     26644     26648         0         1
     26652     26649     26653         0         1
     26657     26654     26658         0         1
     26662     26659     26663         0         1
     26667     26664     26668         0         1
     26672     26669     26673         0         1
     26677     26674     26678         0         1
     26682     26679     26683         0         1
     26687     26684     26688         0         1
     26692     26689     26693         0         1
     26697     26694     26698         0         1
     26702     26699     26703         0         1
     26707     26704     26708         0         1
     26712     26709     26713         0         1
     26717     26714     26718         0         1
     26722     26719     26723         0         1
     26727     26724     26728         0         1
     26732     26729     26733         0         1
     26737     26734     26738         0         1
     26742     26739     26743         0         1
     26747     26744     26748         0         1
     26752     26749     26753         0         1
     26757     26754     26758         0         1
     26762     26759     26763         0         1
     26767     26764     26768         0         1
     26772     26769     26773         0         1
     26777     26774     26778         0         1
     26782     26779     26783         0         1
     26787     26784     26788         0         1
     26792     26789     26793         0         1
     26797     26794     26798         0         1
     26802     26799     26803         0         1
     26807     26804     26808         0         1
     26812     26809     26813         0         1
     26817     26814     26818         0         1
     26822     26819     26823         0         1
     26827     26824     26828         0         1
     26832     26829     26833         0         1
     26837     26834     26838         0         1
     26842     26839     26843         0         1
     26847     26844     26848         0         1
     26852     26849     26853         0         1
     26857     26854     26858         0         1
     26862     26859     26863         0         1
     26867     26864     26868         0         1
     26872     26869     26873         0         1
     26877     26874     26878         0         1
     26882     26879     26883         0         1
     26887     26884     26888         0         1
     26892     26889     26893         0         1
     26897     26894     26898         0         1
     26902     26899     26903         0         1
     26907     26904     26908         0         1
     26912     26909     26913         0         1
     26917     26914     26918         0         1
     26922     26919     26923         0         1
     26927     26924     26928         0         1
     26932     26929     26933         0         1
     26937     26934     26938         0         1
     26942     26939     26943         0         1
     26947     26944     26948         0         1
     26952     26949     26953         0         1
     26957     26954     26958         0         1
     26962     26959     26963         0         1
     26967     26964     26968         0         1
     26972     26969     26973         0         1
     26977     26974     26978         0         1
     26982     26979     26983         0         1
     26987     26984     26988         0         1
     26992     26989     26993         0         1
     26997     26994     26998         0         1
     27002     26999     27003         0         1
     27007     27004     27008         0         1
     27012     27009     27013         0         1
     27017     27014     27018         0         1
     27022     27019     27023         0         1
     27027     27024     27028         0         1
     27032     27029     27033         0         1
     27037     27034     27038         0         1
     27042     27039     27043         0         1
     27047     27044     27048         0         1
     27052     27049     27053         0         1
     27057     27054     27058         0         1
     27062     27059     27063         0         1
     27067     27064     27068         0         1
     27072     27069     27073         0         1
     27077     27074     27078         0         1
     27082     27079     27083         0         1
     27087     27084     27088         0         1
     27092     27089     27093         0         1
     27097     27094     27098         0         1
     27102     27099     27103         0         1
     27107     27104     27108         0         1
     27112     27109     27113         0         1
     27117     27114     27118         0         1
     27122     27119     27123         0         1
     27127     27124     27128         0         1
     27132     27129     27133         0         1
     27137     27134     27138         0         1
     27142     27139     27143         0         1
     27147     27144     27148         0         1
     27152     27149     27153         0         1
     27157     27154     27158         0         1
     27162     27159     27163         0         1
     27167     27164     27168         0         1
     27172     27169     27173         0         1
     27177     27174     27178         0         1
     27182     27179     27183         0         1
     27187     27184     27188         0         1
     27192     27189     27193         0         1
     27197     27194     27198         0         1
     27202     27199     27203         0         1
     27207     27204     27208         0         1
     27212     27209     27213         0         1
     27217     27214     27218         0         1
     27222     27219     27223         0         1
     27227     27224     27228         0         1
     27232     27229     27233         0         1
     27237     27234     27238         0         1
     27242     27239     27243         0         1
     27247     27244     27248         0         1
     27252     27249     27253         0         1
     27257     27254     27258         0         1
     27262     27259     27263         0         1
     27267     27264     27268         0         1
     27272     27269     27273         0         1
     27277     27274     27278         0         1
     27282     27279     27283         0         1
     27287     27284     27288         0         1
     27292     27289     27293         0         1
     27297     27294     27298         0         1
     27302     27299     27303         0         1
     27307     27304     27308         0         1
     27312     27309     27313         0         1
     27317     27314     27318         0         1
     27322     27319     27323         0         1
     27327     27324     27328         0         1
     27332     27329     27333         0         1
     27337     27334     27338         0         1
     27342     27339     27343         0         1
     27347     27344     27348         0         1
     27352     27349     27353         0         1
     27357     27354     27358         0         1
     27362     27359     27363         0         1
     27367     27364     27368         0         1
     27372     27369     27373         0         1
     27377     27374     27378         0         1
     27382     27379     27383         0         1
     27387     27384     27388         0         1
     27392     27389     27393         0         1
     27397     27394     27398         0         1
     27402     27399     27403         0         1
     27407     27404     27408         0         1
     27412     27409     27413         0         1
     27417     27414     27418         0         1
     27422     27419     27423         0         1
     27427     27424     27428         0         1
     27432     27429     27433         0         1
     27437     27434     27438         0         1
     27442     27439     27443         0         1
     27447     27444     27448         0         1
     27452     27449     27453         0         1
     27457     27454     27458         0         1
     27462     27459     27463         0         1
     27467     27464     27468         0         1
     27472     27469     27473         0         1
     27477     27474     27478         0         1
     27482     27479     27483         0         1
     27487     27484     27488         0         1
     27492     27489     27493         0         1
     27497     27494     27498         0         1
     27502     27499     27503         0         1
     27507     27504     27508         0         1
     27512     27509     27513         0         1
     27517     27514     27518         0         1
     27522     27519     27523         0         1
     27527     27524     27528         0         1
     27532     27529     27533         0         1
     27537     27534     27538         0         1
     27542     27539     27543         0         1
     27547     27544     27548         0         1
     27552     27549     27553         0         1
     27557     27554     27558         0         1
     27562     27559     27563         0         1
     27567     27564     27568         0         1
     27572     27569     27573         0         1
     27577     27574     27578         0         1
     27582     27579     27583         0         1
     27587     27584     27588         0         1
     27592     27589     27593         0         1
     27597     27594     27598         0         1
     27602     27599     27603         0         1
     27607     27604     27608         0         1
     27612     27609     27613         0         1
     27617     27614     27618         0         1
     27622     27619     27623         0         1
     27627     27624     27628         0         1
     27632     27629     27633         0         1
     27637     27634     27638         0         1
     27642     27639     27643         0         1
     27647     27644     27648         0         1
     27652     27649     27653         0         1
     27657     27654     27658         0         1
     27662     27659     27663         0         1
     27667     27664     27668         0         1
     27672     27669     27673         0         1
     27677     27674     27678         0         1
     27682     27679     27683         0         1
     27687     27684     27688         0         1
     27692     27689     27693         0         1
     27697     27694     27698         0         1
     27702     27699     27703         0         1
     27707     27704     27708         0         1
     27712     27709     27713         0         1
     27717     27714     27718         0         1
     27722     27719     27723         0         1
     27727     27724     27728         0         1
     27732     27729     27733         0         1
     27737     27734     27738         0         1
     27742     27739     27743         0         1
     27747     27744     27748         0         1
     27752     27749     27753         0         1
     27757     27754     27758         0         1
     27762     27759     27763         0         1
     27767     27764     27768         0         1
     27772     27769     27773         0         1
     27777     27774     27778         0         1
     27782     27779     27783         0         1
     27787     27784     27788         0         1
     27792     27789     27793         0         1
     27797     27794     27798         0         1
     27802     27799     27803         0         1
     27807     27804     27808         0         1
     27812     27809     27813         0         1
     27817     27814     27818         0         1
     27822     27819     27823         0         1
     27827     27824     27828         0         1
     27832     27829     27833         0         1
     27837     27834     27838         0         1
     27842     27839     27843         0         1
     27847     27844     27848         0         1
     27852     27849     27853         0         1
     27857     27854     27858         0         1
     27862     27859     27863         0         1
     27867     27864     27868         0         1
     27872     27869     27873         0         1
     27877     27874     27878         0         1
     27882     27879     27883         0         1
     27887     27884     27888         0         1
     27892     27889     27893         0         1
     27897     27894     27898         0         1
     27902     27899     27903         0         1
     27907     27904     27908         0         1
     27912     27909     27913         0         1
     27917     27914     27918         0         1
     27922     27919     27923         0         1
     27927     27924     27928         0         1
     27932     27929     27933         0         1
     27937     27934     27938         0         1
     27942     27939     27943         0         1
     27947     27944     27948         0         1
     27952     27949     27953         0         1
     27957     27954     27958         0         1
     27962     27959     27963         0         1
     27967     27964     27968         0         1
     27972     27969     27973         0         1
     27977     27974     27978         0         1
     27982     27979     27983         0         1
     27987     27984     27988         0         1
     27992     27989     27993         0         1
     27997     27994     27998         0         1
     28002     27999     28003         0         1
     28007     28004     28008         0         1
     28012     28009     28013         0         1
     28017     28014     28018         0         1
     28022     28019     28023         0         1
     28027     28024     28028         0         1
     28032     28029     28033         0         1
     28037     28034     28038         0         1
     28042     28039     28043         0         1
     28047     28044     28048         0         1
     28052     28049     28053         0         1
     28057     28054     28058         0         1
     28062     28059     28063         0         1
     28067     28064     28068         0         1
     28072     28069     28073         0         1
     28077     28074     28078         0         1
     28082     28079     28083         0         1
     28087     28084     28088         0         1
     28092     28089     28093         0         1
     28097     28094     28098         0         1
     28102     28099     28103         0         1
     28107     28104     28108         0         1
     28112     28109     28113         0         1
     28117     28114     28118         0         1
     28122     28119     28123         0         1
     28127     28124     28128         0         1
     28132     28129     28133         0         1
     28137     28134     28138         0         1
     28142     28139     28143         0         1
     28147     28144     28148         0         1
     28152     28149     28153         0         1
     28157     28154     28158         0         1
     28162     28159     28163         0         1
     28167     28164     28168         0         1
     28172     28169     28173         0         1
     28177     28174     28178         0         1
     28182     28179     28183         0         1
     28187     28184     28188         0         1
     28192     28189     28193         0         1
     28197     28194     28198         0         1
     28202     28199     28203         0         1
     28207     28204     28208         0         1
     28212     28209     28213         0         1
     28217     28214     28218         0         1
     28222     28219     28223         0         1
     28227     28224     28228         0         1
     28232     28229     28233         0         1
     28237     28234     28238         0         1
     28242     28239     28243         0         1
     28247     28244     28248         0         1
     28252     28249     28253         0         1
     28257     28254     28258         0         1
     28262     28259     28263         0         1
     28267     28264     28268         0         1
     28272     28269     28273         0         1
     28277     28274     28278         0         1
     28282     28279     28283         0         1
     28287     28284     28288         0         1
     28292     28289     28293         0         1
     28297     28294     28298         0         1
     28302     28299     28303         0         1
     28307     28304     28308         0         1
     28312     28309     28313         0         1
     28317     28314     28318         0         1
     28322     28319     28323         0         1
     28327     28324     28328         0         1
     28332     28329     28333         0         1
     28337     28334     28338         0         1
     28342     28339     28343         0         1
     28347     28344     28348         0         1
     28352     28349     28353         0         1
     28357     28354     28358         0         1
     28362     28359     28363         0         1
     28367     28364     28368         0         1
     28372     28369     28373         0         1
     28377     28374     28378         0         1
     28382     28379     28383         0         1
     28387     28384     28388         0         1
     28392     28389     28393         0         1
     28397     28394     28398         0         1
     28402     28399     28403         0         1
     28407     28404     28408         0         1
     28412     28409     28413         0         1
     28417     28414     28418         0         1
     28422     28419     28423         0         1
     28427     28424     28428         0         1
     28432     28429     28433         0         1
     28437     28434     28438         0         1
     28442     28439     28443         0         1
     28447     28444     28448         0         1
     28452     28449     28453         0         1
     28457     28454     28458         0         1
     28462     28459     28463         0         1
     28467     28464     28468         0         1
     28472     28469     28473         0         1
     28477     28474     28478         0         1
     28482     28479     28483         0         1
     28487     28484     28488         0         1
     28492     28489     28493         0         1
     28497     28494     28498         0         1
     28502     28499     28503         0         1
     28507     28504     28508         0         1
     28512     28509     28513         0         1
     28517     28514     28518         0         1
     28522     28519     28523         0         1
     28527     28524     28528         0         1
     28532     28529     28533         0         1
     28537     28534     28538         0         1
     28542     28539     28543         0         1
     28547     28544     28548         0         1
     28552     28549     28553         0         1
     28557     28554     28558         0         1
     28562     28559     28563         0         1
     28567     28564     28568         0         1
     28572     28569     28573         0         1
     28577     28574     28578         0         1
     28582     28579     28583         0         1
     28587     28584     28588         0         1
     28592     28589     28593         0         1
     28597     28594     28598         0         1
     28602     28599     28603         0         1
     28607     28604     28608         0         1
     28612     28609     28613         0         1
     28617     28614     28618         0         1
     28622     28619     28623         0         1
     28627     28624     28628         0         1
     28632     28629     28633         0         1
     28637     28634     28638         0         1
     28642     28639     28643         0         1
     28647     28644     28648         0         1
     28652     28649     28653         0         1
     28657     28654     28658         0         1
     28662     28659     28663         0         1
     28667     28664     28668         0         1
     28672     28669     28673         0         1
     28677     28674     28678         0         1
     28682     28679     28683         0         1
     28687     28684     28688         0         1
     28692     28689     28693         0         1
     28697     28694     28698         0         1
     28702     28699     28703         0         1
     28707     28704     28708         0         1
     28712     28709     28713         0         1
     28717     28714     28718         0         1
     28722     28719     28723         0         1
     28727     28724     28728         0         1
     28732     28729     28733         0         1
     28737     28734     28738         0         1
     28742     28739     28743         0         1
     28747     28744     28748         0         1
     28752     28749     28753         0         1
     28757     28754     28758         0         1
     28762     28759     28763         0         1
     28767     28764     28768         0         1
     28772     28769     28773         0         1
     28777     28774     28778         0         1
     28782     28779     28783         0         1
     28787     28784     28788         0         1
     28792     28789     28793         0         1
     28797     28794     28798         0         1
     28802     28799     28803         0         1
     28807     28804     28808         0         1
     28812     28809     28813         0         1
     28817     28814     28818         0         1
     28822     28819     28823         0         1
     28827     28824     28828         0         1
     28832     28829     28833         0         1
     28837     28834     28838         0         1
     28842     28839     28843         0         1
     28847     28844     28848         0         1
     28852     28849     28853         0         1
     28857     28854     28858         0         1
     28862     28859     28863         0         1
     28867     28864     28868         0         1
     28872     28869     28873         0         1
     28877     28874     28878         0         1
     28882     28879     28883         0         1
     28887     28884     28888         0         1
     28892     28889     28893         0         1
     28897     28894     28898         0         1
     28902     28899     28903         0         1
     28907     28904     28908         0         1
     28912     28909     28913         0         1
     28917     28914     28918         0         1
     28922     28919     28923         0         1
     28927     28924     28928         0         1
     28932     28929     28933         0         1
     28937     28934     28938         0         1
     28942     28939     28943         0         1
     28947     28944     28948         0         1
     28952     28949     28953         0         1
     28957     28954     28958         0         1
     28962     28959     28963         0         1
     28967     28964     28968         0         1
     28972     28969     28973         0         1
     28977     28974     28978         0         1
     28982     28979     28983         0         1
     28987     28984     28988         0         1
     28992     28989     28993         0         1
     28997     28994     28998         0         1
     29002     28999     29003         0         1
     29007     29004     29008         0         1
     29012     29009     29013         0         1
     29017     29014     29018         0         1
     29022     29019     29023         0         1
     29027     29024     29028         0         1
     29032     29029     29033         0         1
     29037     29034     29038         0         1
     29042     29039     29043         0         1
     29047     29044     29048         0         1
     29052     29049     29053         0         1
     29057     29054     29058         0         1
     29062     29059     29063         0         1
     29067     29064     29068         0         1
     29072     29069     29073         0         1
     29077     29074     29078         0         1
     29082     29079     29083         0         1
     29087     29084     29088         0         1
     29092     29089     29093         0         1
     29097     29094     29098         0         1
     29102     29099     29103         0         1
     29107     29104     29108         0         1
     29112     29109     29113         0         1
     29117     29114     29118         0         1
     29122     29119     29123         0         1
     29127     29124     29128         0         1
     29132     29129     29133         0         1
     29137     29134     29138         0         1
     29142     29139     29143         0         1
     29147     29144     29148         0         1
     29152     29149     29153         0         1
     29157     29154     29158         0         1
     29162     29159     29163         0         1
     29167     29164     29168         0         1
     29172     29169     29173         0         1
     29177     29174     29178         0         1
     29182     29179     29183         0         1
     29187     29184     29188         0         1
     29192     29189     29193         0         1
     29197     29194     29198         0         1
     29202     29199     29203         0         1
     29207     29204     29208         0         1
     29212     29209     29213         0         1
     29217     29214     29218         0         1
     29222     29219     29223         0         1
     29227     29224     29228         0         1
     29232     29229     29233         0         1
     29237     29234     29238         0         1
     29242     29239     29243         0         1
     29247     29244     29248         0         1
     29252     29249     29253         0         1
     29257     29254     29258         0         1
     29262     29259     29263         0         1
     29267     29264     29268         0         1
     29272     29269     29273         0         1
     29277     29274     29278         0         1
     29282     29279     29283         0         1
     29287     29284     29288         0         1
     29292     29289     29293         0         1
     29297     29294     29298         0         1
     29302     29299     29303         0         1
     29307     29304     29308         0         1
     29312     29309     29313         0         1
     29317     29314     29318         0         1
     29322     29319     29323         0         1
     29327     29324     29328         0         1
     29332     29329     29333         0         1
     29337     29334     29338         0         1
     29342     29339     29343         0         1
     29347     29344     29348         0         1
     29352     29349     29353         0         1
     29357     29354     29358         0         1
     29362     29359     29363         0         1
     29367     29364     29368         0         1
     29372     29369     29373         0         1
     29377     29374     29378         0         1
     29382     29379     29383         0         1
     29387     29384     29388         0         1
     29392     29389     29393         0         1
     29397     29394     29398         0         1
     29402     29399     29403         0         1
     29407     29404     29408         0         1
     29412     29409     29413         0         1
     29417     29414     29418         0         1
     29422     29419     29423         0         1
     29427     29424     29428         0         1
     29432     29429     29433         0         1
     29437     29434     29438         0         1
     29442     29439     29443         0         1
     29447     29444     29448         0         1
     29452     29449     29453         0         1
     29457     29454     29458         0         1
     29462     29459     29463         0         1
     29467     29464     29468         0         1
     29472     29469     29473         0         1
     29477     29474     29478         0         1
     29482     29479     29483         0         1
     29487     29484     29488         0         1
     29492     29489     29493         0         1
     29497     29494     29498         0         1
     29502     29499     29503         0         1
     29507     29504     29508         0         1
     29512     29509     29513         0         1
     29517     29514     29518         0         1
     29522     29519     29523         0         1
     29527     29524     29528         0         1
     29532     29529     29533         0         1
     29537     29534     29538         0         1
     29542     29539     29543         0         1
     29547     29544     29548         0         1
     29552     29549     29553         0         1
     29557     29554     29558         0         1
     29562     29559     29563         0         1
     29567     29564     29568         0         1
     29572     29569     29573         0         1
     29577     29574     29578         0         1
     29582     29579     29583         0         1
     29587     29584     29588         0         1
     29592     29589     29593         0         1
     29597     29594     29598         0         1
     29602     29599     29603         0         1
     29607     29604     29608         0         1
     29612     29609     29613         0         1
     29617     29614     29618         0         1
     29622     29619     29623         0         1
     29627     29624     29628         0         1
     29632     29629     29633         0         1
     29637     29634     29638         0         1
     29642     29639     29643         0         1
     29647     29644     29648         0         1
     29652     29649     29653         0         1
     29657     29654     29658         0         1
     29662     29659     29663         0         1
     29667     29664     29668         0         1
     29672     29669     29673         0         1
     29677     29674     29678         0         1
     29682     29679     29683         0         1
     29687     29684     29688         0         1
     29692     29689     29693         0         1
     29697     29694     29698         0         1
     29702     29699     29703         0         1
     29707     29704     29708         0         1
     29712     29709     29713         0         1
     29717     29714     29718         0         1
     29722     29719     29723         0         1
     29727     29724     29728         0         1
     29732     29729     29733         0         1
     29737     29734     29738         0         1
     29742     29739     29743         0         1
     29747     29744     29748         0         1
     29752     29749     29753         0         1
     29757     29754     29758         0         1
     29762     29759     29763         0         1
     29767     29764     29768         0         1
     29772     29769     29773         0         1
     29777     29774     29778         0         1
     29782     29779     29783         0         1
     29787     29784     29788         0         1
     29792     29789     29793         0         1
     29797     29794     29798         0         1
     29802     29799     29803         0         1
     29807     29804     29808         0         1
     29812     29809     29813         0         1
     29817     29814     29818         0         1
     29822     29819     29823         0         1
     29827     29824     29828         0         1
     29832     29829     29833         0         1
     29837     29834     29838         0         1
     29842     29839     29843         0         1
     29847     29844     29848         0         1
     29852     29849     29853         0         1
     29857     29854     29858         0         1
     29862     29859     29863         0         1
     29867     29864     29868         0         1
     29872     29869     29873         0         1
     29877     29874     29878         0         1
     29882     29879     29883         0         1
     29887     29884     29888         0         1
     29892     29889     29893         0         1
     29897     29894     29898         0         1
     29902     29899     29903         0         1
     29907     29904     29908         0         1
     29912     29909     29913         0         1
     29917     29914     29918         0         1
     29922     29919     29923         0         1
     29927     29924     29928         0         1
     29932     29929     29933         0         1
     29937     29934     29938         0         1
     29942     29939     29943         0         1
     29947     29944     29948         0         1
     29952     29949     29953         0         1
     29957     29954     29958         0         1
     29962     29959     29963         0         1
     29967     29964     29968         0         1
     29972     29969     29973         0         1
     29977     29974     29978         0         1
     29982     29979     29983         0         1
     29987     29984     29988         0         1
     29992     29989     29993         0         1
     29997     29994     29998         0         1
     30002     29999     30003         0         1
     30007     30004     30008         0         1
     30012     30009     30013         0         1
     30017     30014     30018         0         1
     30022     30019     30023         0         1
     30027     30024     30028         0         1
     30032     30029     30033         0         1
     30037     30034     30038         0         1
     30042     30039     30043         0         1
     30047     30044     30048         0         1
     30052     30049     30053         0         1
     30057     30054     30058         0         1
     30062     30059     30063         0         1
     30067     30064     30068         0         1
     30072     30069     30073         0         1
     30077     30074     30078         0         1
     30082     30079     30083         0         1
     30087     30084     30088         0         1
     30092     30089     30093         0         1
     30097     30094     30098         0         1
     30102     30099     30103         0         1
     30107     30104     30108         0         1
     30112     30109     30113         0         1
     30117     30114     30118         0         1
     30122     30119     30123         0         1
     30127     30124     30128         0         1
     30132     30129     30133         0         1
     30137     30134     30138         0         1
     30142     30139     30143         0         1
     30147     30144     30148         0         1
     30152     30149     30153         0         1
     30157     30154     30158         0         1
     30162     30159     30163         0         1
     30167     30164     30168         0         1
     30172     30169     30173         0         1
     30177     30174     30178         0         1
     30182     30179     30183         0         1
     30187     30184     30188         0         1
     30192     30189     30193         0         1
     30197     30194     30198         0         1
     30202     30199     30203         0         1
     30207     30204     30208         0         1
     30212     30209     30213         0         1
     30217     30214     30218         0         1
     30222     30219     30223         0         1
     30227     30224     30228         0         1
     30232     30229     30233         0         1
     30237     30234     30238         0         1
     30242     30239     30243         0         1
     30247     30244     30248         0         1
     30252     30249     30253         0         1
     30257     30254     30258         0         1
     30262     30259     30263         0         1
     30267     30264     30268         0         1
     30272     30269     30273         0         1
     30277     30274     30278         0         1
     30282     30279     30283         0         1
     30287     30284     30288         0         1
     30292     30289     30293         0         1
     30297     30294     30298         0         1
     30302     30299     30303         0         1
     30307     30304     30308         0         1
     30312     30309     30313         0         1
     30317     30314     30318         0         1
     30322     30319     30323         0         1
     30327     30324     30328         0         1
     30332     30329     30333         0         1
     30337     30334     30338         0         1
     30342     30339     30343         0         1
     30347     30344     30348         0         1
     30352     30349     30353         0         1
     30357     30354     30358         0         1
     30362     30359     30363         0         1
     30367     30364     30368         0         1
     30372     30369     30373         0         1
     30377     30374     30378         0         1
     30382     30379     30383         0         1
     30387     30384     30388         0         1
     30392     30389     30393         0         1
     30397     30394     30398         0         1
     30402     30399     30403         0         1
     30407     30404     30408         0         1
     30412     30409     30413         0         1
     30417     30414     30418         0         1
     30422     30419     30423         0         1
     30427     30424     30428         0         1
     30432     30429     30433         0         1
     30437     30434     30438         0         1
     30442     30439     30443         0         1
     30447     30444     30448         0         1
     30452     30449     30453         0         1
     30457     30454     30458         0         1
     30462     30459     30463         0         1
     30467     30464     30468         0         1
     30472     30469     30473         0         1
     30477     30474     30478         0         1
     30482     30479     30483         0         1
     30487     30484     30488         0         1
     30492     30489     30493         0         1
     30497     30494     30498         0         1
     30502     30499     30503         0         1
     30507     30504     30508         0         1
     30512     30509     30513         0         1
     30517     30514     30518         0         1
     30522     30519     30523         0         1
     30527     30524     30528         0         1
     30532     30529     30533         0         1
     30537     30534     30538         0         1
     30542     30539     30543         0         1
     30547     30544     30548         0         1
     30552     30549     30553         0         1
     30557     30554     30558         0         1
     30562     30559     30563         0         1
     30567     30564     30568         0         1
     30572     30569     30573         0         1
     30577     30574     30578         0         1
     30582     30579     30583         0         1
     30587     30584     30588         0         1
     30592     30589     30593         0         1
     30597     30594     30598         0         1
     30602     30599     30603         0         1
     30607     30604     30608         0         1
     30612     30609     30613         0         1
     30617     30614     30618         0         1
     30622     30619     30623         0         1
     30627     30624     30628         0         1
     30632     30629     30633         0         1
     30637     30634     30638         0         1
     30642     30639     30643         0         1
     30647     30644     30648         0         1
     30652     30649     30653         0         1
     30657     30654     30658         0         1
     30662     30659     30663         0         1
     30667     30664     30668         0         1
     30672     30669     30673         0         1
     30677     30674     30678         0         1
     30682     30679     30683         0         1
     30687     30684     30688         0         1
     30692     30689     30693         0         1
     30697     30694     30698         0         1
     30702     30699     30703         0         1
     30707     30704     30708         0         1
     30712     30709     30713         0         1
     30717     30714     30718         0         1
     30722     30719     30723         0         1
     30727     30724     30728         0         1
     30732     30729     30733         0         1
     30737     30734     30738         0         1
     30742     30739     30743         0         1
     30747     30744     30748         0         1
     30752     30749     30753         0         1
     30757     30754     30758         0         1
     30762     30759     30763         0         1
     30767     30764     30768         0         1
     30772     30769     30773         0         1
     30777     30774     30778         0         1
     30782     30779     30783         0         1
     30787     30784     30788         0         1
     30792     30789     30793         0         1
     30797     30794     30798         0         1
     30802     30799     30803         0         1
     30807     30804     30808         0         1
     30812     30809     30813         0         1
     30817     30814     30818         0         1
     30822     30819     30823         0         1
     30827     30824     30828         0         1
     30832     30829     30833         0         1
     30837     30834     30838         0         1
     30842     30839     30843         0         1
     30847     30844     30848         0         1
     30852     30849     30853         0         1
     30857     30854     30858         0         1
     30862     30859     30863         0         1
     30867     30864     30868         0         1
     30872     30869     30873         0         1
     30877     30874     30878         0         1
     30882     30879     30883         0         1
     30887     30884     30888         0         1
     30892     30889     30893         0         1
     30897     30894     30898         0         1
     30902     30899     30903         0         1
     30907     30904     30908         0         1
     30912     30909     30913         0         1
     30917     30914     30918         0         1
     30922     30919     30923         0         1
     30927     30924     30928         0         1
     30932     30929     30933         0         1
     30937     30934     30938         0         1
     30942     30939     30943         0         1
     30947     30944     30948         0         1
     30952     30949     30953         0         1
     30957     30954     30958         0         1
     30962     30959     30963         0         1
     30967     30964     30968         0         1
     30972     30969     30973         0         1
     30977     30974     30978         0         1
     30982     30979     30983         0         1
     30987     30984     30988         0         1
     30992     30989     30993         0         1
     30997     30994     30998         0         1
     31002     30999     31003         0         1
     31007     31004     31008         0         1
     31012     31009     31013         0         1
     31017     31014     31018         0         1
     31022     31019     31023         0         1
     31027     31024     31028         0         1
     31032     31029     31033         0         1
     31037     31034     31038         0         1
     31042     31039     31043         0         1
     31047     31044     31048         0         1
     31052     31049     31053         0         1
     31057     31054     31058         0         1
     31062     31059     31063         0         1
     31067     31064     31068         0         1
     31072     31069     31073         0         1
     31077     31074     31078         0         1
     31082     31079     31083         0         1
     31087     31084     31088         0         1
     31092     31089     31093         0         1
     31097     31094     31098         0         1
     31102     31099     31103         0         1
     31107     31104     31108         0         1
     31112     31109     31113         0         1
     31117     31114     31118         0         1
     31122     31119     31123         0         1
     31127     31124     31128         0         1
     31132     31129     31133         0         1
     31137     31134     31138         0         1
     31142     31139     31143         0         1
     31147     31144     31148         0         1
     31152     31149     31153         0         1
     31157     31154     31158         0         1
     31162     31159     31163         0         1
     31167     31164     31168         0         1
     31172     31169     31173         0         1
     31177     31174     31178         0         1
     31182     31179     31183         0         1
     31187     31184     31188         0         1
     31192     31189     31193         0         1
     31197     31194     31198         0         1
     31202     31199     31203         0         1
     31207     31204     31208         0         1
     31212     31209     31213         0         1
     31217     31214     31218         0         1
     31222     31219     31223         0         1
     31227     31224     31228         0         1
     31232     31229     31233         0         1
     31237     31234     31238         0         1
     31242     31239     31243         0         1
     31247     31244     31248         0         1
     31252     31249     31253         0         1
     31257     31254     31258         0         1
     31262     31259     31263         0         1
     31267     31264     31268         0         1
     31272     31269     31273         0         1
     31277     31274     31278         0         1
     31282     31279     31283         0         1
     31287     31284     31288         0         1
     31292     31289     31293         0         1
     31297     31294     31298         0         1
     31302     31299     31303         0         1
     31307     31304     31308         0         1
     31312     31309     31313         0         1
     31317     31314     31318         0         1
     31322     31319     31323         0         1
     31327     31324     31328         0         1
     31332     31329     31333         0         1
     31337     31334     31338         0         1
     31342     31339     31343         0         1
     31347     31344     31348         0         1
     31352     31349     31353         0         1
     31357     31354     31358         0         1
     31362     31359     31363         0         1
     31367     31364     31368         0         1
     31372     31369     31373         0         1
     31377     31374     31378         0         1
     31382     31379     31383         0         1
     31387     31384     31388         0         1
     31392     31389     31393         0         1
     31397     31394     31398         0         1
     31402     31399     31403         0         1
     31407     31404     31408         0         1
     31412     31409     31413         0         1
     31417     31414     31418         0         1
     31422     31419     31423         0         1
     31427     31424     31428         0         1
     31432     31429     31433         0         1
     31437     31434     31438         0         1
     31442     31439     31443         0         1
     31447     31444     31448         0         1
     31452     31449     31453         0         1
     31457     31454     31458         0         1
     31462     31459     31463         0         1
     31467     31464     31468         0         1
     31472     31469     31473         0         1
     31477     31474     31478         0         1
     31482     31479     31483         0         1
     31487     31484     31488         0         1
     31492     31489     31493         0         1
     31497     31494     31498         0         1
     31502     31499     31503         0         1
     31507     31504     31508         0         1
     31512     31509     31513         0         1
     31517     31514     31518         0         1
     31522     31519     31523         0         1
     31527     31524     31528         0         1
     31532     31529     31533         0         1
     31537     31534     31538         0         1
     31542     31539     31543         0         1
     31547     31544     31548         0         1
     31552     31549     31553         0         1
     31557     31554     31558         0         1
     31562     31559     31563         0         1
     31567     31564     31568         0         1
     31572     31569     31573         0         1
     31577     31574     31578         0         1
     31582     31579     31583         0         1
     31587     31584     31588         0         1
     31592     31589     31593         0         1
     31597     31594     31598         0         1
     31602     31599     31603         0         1
     31607     31604     31608         0         1
     31612     31609     31613         0         1
     31617     31614     31618         0         1
     31622     31619     31623         0         1
     31627     31624     31628         0         1
     31632     31629     31633         0         1
     31637     31634     31638         0         1
     31642     31639     31643         0         1
     31647     31644     31648         0         1
     31652     31649     31653         0         1
     31657     31654     31658         0         1
     31662     31659     31663         0         1
     31667     31664     31668         0         1
     31672     31669     31673         0         1
     31677     31674     31678         0         1
     31682     31679     31683         0         1
     31687     31684     31688         0         1
     31692     31689     31693         0         1
     31697     31694     31698         0         1
     31702     31699     31703         0         1
     31707     31704     31708         0         1
     31712     31709     31713         0         1
     31717     31714     31718         0         1
     31722     31719     31723         0         1
     31727     31724     31728         0         1
     31732     31729     31733         0         1
     31737     31734     31738         0         1
     31742     31739     31743         0         1
     31747     31744     31748         0         1
     31752     31749     31753         0         1
     31757     31754     31758         0         1
     31762     31759     31763         0         1
     31767     31764     31768         0         1
     31772     31769     31773         0         1
     31777     31774     31778         0         1
     31782     31779     31783         0         1
     31787     31784     31788         0         1
     31792     31789     31793         0         1
     31797     31794     31798         0         1
     31802     31799     31803         0         1
     31807     31804     31808         0         1
     31812     31809     31813         0         1
     31817     31814     31818         0         1
     31822     31819     31823         0         1
     31827     31824     31828         0         1
     31832     31829     31833         0         1
     31837     31834     31838         0         1
     31842     31839     31843         0         1
     31847     31844     31848         0         1
     31852     31849     31853         0         1
     31857     31854     31858         0         1
     31862     31859     31863         0         1
     31867     31864     31868         0         1
     31872     31869     31873         0         1
     31877     31874     31878         0         1
     31882     31879     31883         0         1
     31887     31884     31888         0         1
     31892     31889     31893         0         1
     31897     31894     31898         0         1
     31902     31899     31903         0         1
     31907     31904     31908         0         1
     31912     31909     31913         0         1
     31917     31914     31918         0         1
     31922     31919     31923         0         1
     31927     31924     31928         0         1
     31932     31929     31933         0         1
     31937     31934     31938         0         1
     31942     31939     31943         0         1
     31947     31944     31948         0         1
     31952     31949     31953         0         1
     31957     31954     31958         0         1
     31962     31959     31963         0         1
     31967     31964     31968         0         1
     31972     31969     31973         0         1
     31977     31974     31978         0         1
     31982     31979     31983         0         1
     31987     31984     31988         0         1
     31992     31989     31993         0         1
     31997     31994     31998         0         1
     32002     31999     32003         0         1
     32007     32004     32008         0         1
     32012     32009     32013         0         1
     32017     32014     32018         0         1
     32022     32019     32023         0         1
     32027     32024     32028         0         1
     32032     32029     32033         0         1
     32037     32034     32038         0         1
     32042     32039     32043         0         1
     32047     32044     32048         0         1
     32052     32049     32053         0         1
     32057     32054     32058         0         1
     32062     32059     32063         0         1
     32067     32064     32068         0         1
     32072     32069     32073         0         1
     32077     32074     32078         0         1
     32082     32079     32083         0         1
     32087     32084     32088         0         1
     32092     32089     32093         0         1
     32097     32094     32098         0         1
     32102     32099     32103         0         1
     32107     32104     32108         0         1
     32112     32109     32113         0         1
     32117     32114     32118         0         1
     32122     32119     32123         0         1
     32127     32124     32128         0         1
     32132     32129     32133         0         1
     32137     32134     32138         0         1
     32142     32139     32143         0         1
     32147     32144     32148         0         1
     32152     32149     32153         0         1
     32157     32154     32158         0         1
     32162     32159     32163         0         1
     32167     32164     32168         0         1
     32172     32169     32173         0         1
     32177     32174     32178         0         1
     32182     32179     32183         0         1
     32187     32184     32188         0         1
     32192     32189     32193         0         1
     32197     32194     32198         0         1
     32202     32199     32203         0         1
     32207     32204     32208         0         1
     32212     32209     32213         0         1
     32217     32214     32218         0         1
     32222     32219     32223         0         1
     32227     32224     32228         0         1
     32232     32229     32233         0         1
     32237     32234     32238         0         1
     32242     32239     32243         0         1
     32247     32244     32248         0         1
     32252     32249     32253         0         1
     32257     32254     32258         0         1
     32262     32259     32263         0         1
     32267     32264     32268         0         1
     32272     32269     32273         0         1
     32277     32274     32278         0         1
     32282     32279     32283         0         1
     32287     32284     32288         0         1
     32292     32289     32293         0         1
     32297     32294     32298         0         1
     32302     32299     32303         0         1
     32307     32304     32308         0         1
     32312     32309     32313         0         1
     32317     32314     32318         0         1
     32322     32319     32323         0         1
     32327     32324     32328         0         1
     32332     32329     32333         0         1
     32337     32334     32338         0         1
     32342     32339     32343         0         1
     32347     32344     32348         0         1
     32352     32349     32353         0         1
     32357     32354     32358         0         1
     32362     32359     32363         0         1
     32367     32364     32368         0         1
     32372     32369     32373         0         1
     32377     32374     32378         0         1
     32382     32379     32383         0         1
     32387     32384     32388         0         1
     32392     32389     32393         0         1
     32397     32394     32398         0         1
     32402     32399     32403         0         1
     32407     32404     32408         0         1
     32412     32409     32413         0         1
     32417     32414     32418         0         1
     32422     32419     32423         0         1
     32427     32424     32428         0         1
     32432     32429     32433         0         1
     32437     32434     32438         0         1
     32442     32439     32443         0         1
     32447     32444     32448         0         1
     32452     32449     32453         0         1
     32457     32454     32458         0         1
     32462     32459     32463         0         1
     32467     32464     32468         0         1
     32472     32469     32473         0         1
     32477     32474     32478         0         1
     32482     32479     32483         0         1
     32487     32484     32488         0         1
     32492     32489     32493         0         1
     32497     32494     32498         0         1
     32502     32499     32503         0         1
     32507     32504     32508         0         1
     32512     32509     32513         0         1
     32517     32514     32518         0         1
     32522     32519     32523         0         1
     32527     32524     32528         0         1
     32532     32529     32533         0         1
     32537     32534     32538         0         1
     32542     32539     32543         0         1
     32547     32544     32548         0         1
     32552     32549     32553         0         1
     32557     32554     32558         0         1
     32562     32559     32563         0         1
     32567     32564     32568         0         1
     32572     32569     32573         0         1
     32577     32574     32578         0         1
     32582     32579     32583         0         1
     32587     32584     32588         0         1
     32592     32589     32593         0         1
     32597     32594     32598         0         1
     32602     32599     32603         0         1
     32607     32604     32608         0         1
     32612     32609     32613         0         1
     32617     32614     32618         0         1
     32622     32619     32623         0         1
     32627     32624     32628         0         1
     32632     32629     32633         0         1
     32637     32634     32638         0         1
     32642     32639     32643         0         1
     32647     32644     32648         0         1
     32652     32649     32653         0         1
     32657     32654     32658         0         1
     32662     32659     32663         0         1
     32667     32664     32668         0         1
     32672     32669     32673         0         1
     32677     32674     32678         0         1
     32682     32679     32683         0         1
     32687     32684     32688         0         1
     32692     32689     32693         0         1
     32697     32694     32698         0         1
     32702     32699     32703         0         1
     32707     32704     32708         0         1
     32712     32709     32713         0         1
     32717     32714     32718         0         1
     32722     32719     32723         0         1
     32727     32724     32728         0         1
     32732     32729     32733         0         1
     32737     32734     32738         0         1
     32742     32739     32743         0         1
     32747     32744     32748         0         1
     32752     32749     32753         0         1
     32757     32754     32758         0         1
     32762     32759     32763         0         1
     32767     32764     32768         0         1
     32772     32769     32773         0         1
     32777     32774     32778         0         1
     32782     32779     32783         0         1
     32787     32784     32788         0         1
     32792     32789     32793         0         1
     32797     32794     32798         0         1
     32802     32799     32803         0         1
     32807     32804     32808         0         1
     32812     32809     32813         0         1
     32817     32814     32818         0         1
     32822     32819     32823         0         1
     32827     32824     32828         0         1
     32832     32829     32833         0         1
     32837     32834     32838         0         1
     32842     32839     32843         0         1
     32847     32844     32848         0         1
     32852     32849     32853         0         1
     32857     32854     32858         0         1
     32862     32859     32863         0         1
     32867     32864     32868         0         1
     32872     32869     32873         0         1
     32877     32874     32878         0         1
     32882     32879     32883         0         1
     32887     32884     32888         0         1
     32892     32889     32893         0         1
     32897     32894     32898         0         1
     32902     32899     32903         0         1
     32907     32904     32908         0         1
     32912     32909     32913         0         1
     32917     32914     32918         0         1
     32922     32919     32923         0         1
     32927     32924     32928         0         1
     32932     32929     32933         0         1
     32937     32934     32938         0         1
     32942     32939     32943         0         1
     32947     32944     32948         0         1
     32952     32949     32953         0         1
     32957     32954     32958         0         1
     32962     32959     32963         0         1
     32967     32964     32968         0         1
     32972     32969     32973         0         1
     32977     32974     32978         0         1
     32982     32979     32983         0         1
     32987     32984     32988         0         1
     32992     32989     32993         0         1
     32997     32994     32998         0         1
     33002     32999     33003         0         1
     33007     33004     33008         0         1
     33012     33009     33013         0         1
     33017     33014     33018         0         1
     33022     33019     33023         0         1
     33027     33024     33028         0         1
     33032     33029     33033         0         1
     33037     33034     33038         0         1
     33042     33039     33043         0         1
     33047     33044     33048         0         1
     33052     33049     33053         0         1
     33057     33054     33058         0         1
     33062     33059     33063         0         1
     33067     33064     33068         0         1
     33072     33069     33073         0         1
     33077     33074     33078         0         1
     33082     33079     33083         0         1
     33087     33084     33088         0         1
     33092     33089     33093         0         1
     33097     33094     33098         0         1
     33102     33099     33103         0         1
     33107     33104     33108         0         1
     33112     33109     33113         0         1
     33117     33114     33118         0         1
     33122     33119     33123         0         1
     33127     33124     33128         0         1
     33132     33129     33133         0         1
     33137     33134     33138         0         1
     33142     33139     33143         0         1
     33147     33144     33148         0         1
     33152     33149     33153         0         1
     33157     33154     33158         0         1
     33162     33159     33163         0         1
     33167     33164     33168         0         1
     33172     33169     33173         0         1
     33177     33174     33178         0         1
     33182     33179     33183         0         1
     33187     33184     33188         0         1
     33192     33189     33193         0         1
     33197     33194     33198         0         1
     33202     33199     33203         0         1
     33207     33204     33208         0         1
     33212     33209     33213         0         1
     33217     33214     33218         0         1
     33222     33219     33223         0         1
     33227     33224     33228         0         1
     33232     33229     33233         0         1
     33237     33234     33238         0         1
     33242     33239     33243         0         1
     33247     33244     33248         0         1
     33252     33249     33253         0         1
     33257     33254     33258         0         1
     33262     33259     33263         0         1
     33267     33264     33268         0         1
     33272     33269     33273         0         1
     33277     33274     33278         0         1
     33282     33279     33283         0         1
     33287     33284     33288         0         1
     33292     33289     33293         0         1
     33297     33294     33298         0         1
     33302     33299     33303         0         1
     33307     33304     33308         0         1
     33312     33309     33313         0         1
     33317     33314     33318         0         1
     33322     33319     33323         0         1
     33327     33324     33328         0         1
     33332     33329     33333         0         1
     33337     33334     33338         0         1
     33342     33339     33343         0         1
     33347     33344     33348         0         1
     33352     33349     33353         0         1
     33357     33354     33358         0         1
     33362     33359     33363         0         1
     33367     33364     33368         0         1
     33372     33369     33373         0         1
     33377     33374     33378         0         1
     33382     33379     33383         0         1
     33387     33384     33388         0         1
     33392     33389     33393         0         1
     33397     33394     33398         0         1
     33402     33399     33403         0         1
     33407     33404     33408         0         1
     33412     33409     33413         0         1
     33417     33414     33418         0         1
     33422     33419     33423         0         1
     33427     33424     33428         0         1
     33432     33429     33433         0         1
     33437     33434     33438         0         1
     33442     33439     33443         0         1
     33447     33444     33448         0         1
     33452     33449     33453         0         1
     33457     33454     33458         0         1
     33462     33459     33463         0         1
     33467     33464     33468         0         1
     33472     33469     33473         0         1
     33477     33474     33478         0         1
     33482     33479     33483         0         1
     33487     33484     33488         0         1
     33492     33489     33493         0         1
     33497     33494     33498         0         1
     33502     33499     33503         0         1
     33507     33504     33508         0         1
     33512     33509     33513         0         1
     33517     33514     33518         0         1
     33522     33519     33523         0         1
     33527     33524     33528         0         1
     33532     33529     33533         0         1
     33537     33534     33538         0         1
     33542     33539     33543         0         1
     33547     33544     33548         0         1
     33552     33549     33553         0         1
     33557     33554     33558         0         1
     33562     33559     33563         0         1
     33567     33564     33568         0         1
     33572     33569     33573         0         1
     33577     33574     33578         0         1
     33582     33579     33583         0         1
     33587     33584     33588         0         1
     33592     33589     33593         0         1
     33597     33594     33598         0         1
     33602     33599     33603         0         1
     33607     33604     33608         0         1
     33612     33609     33613         0         1
     33617     33614     33618         0         1
     33622     33619     33623         0         1
     33627     33624     33628         0         1
     33632     33629     33633         0         1
     33637     33634     33638         0         1
     33642     33639     33643         0         1
     33647     33644     33648         0         1
     33652     33649     33653         0         1
     33657     33654     33658         0         1
     33662     33659     33663         0         1
     33667     33664     33668         0         1
     33672     33669     33673         0         1
     33677     33674     33678         0         1
     33682     33679     33683         0         1
     33687     33684     33688         0         1
     33692     33689     33693         0         1
     33697     33694     33698         0         1
     33702     33699     33703         0         1
     33707     33704     33708         0         1
     33712     33709     33713         0         1
     33717     33714     33718         0         1
     33722     33719     33723         0         1
     33727     33724     33728         0         1
     33732     33729     33733         0         1
     33737     33734     33738         0         1
     33742     33739     33743         0         1
     33747     33744     33748         0         1
     33752     33749     33753         0         1
     33757     33754     33758         0         1
     33762     33759     33763         0         1
     33767     33764     33768         0         1
     33772     33769     33773         0         1
     33777     33774     33778         0         1
     33782     33779     33783         0         1
     33787     33784     33788         0         1
     33792     33789     33793         0         1
     33797     33794     33798         0         1
     33802     33799     33803         0         1
     33807     33804     33808         0         1
     33812     33809     33813         0         1
     33817     33814     33818         0         1
     33822     33819     33823         0         1
     33827     33824     33828         0         1
     33832     33829     33833         0         1
     33837     33834     33838         0         1
     33842     33839     33843         0         1
     33847     33844     33848         0         1
     33852     33849     33853         0         1
     33857     33854     33858         0         1
     33862     33859     33863         0         1
     33867     33864     33868         0         1
     33872     33869     33873         0         1
     33877     33874     33878         0         1
     33882     33879     33883         0         1
     33887     33884     33888         0         1
     33892     33889     33893         0         1
     33897     33894     33898         0         1
     33902     33899     33903         0         1
     33907     33904     33908         0         1
     33912     33909     33913         0         1
     33917     33914     33918         0         1
     33922     33919     33923         0         1
     33927     33924     33928         0         1
     33932     33929     33933         0         1
     33937     33934     33938         0         1
     33942     33939     33943         0         1
     33947     33944     33948         0         1
     33952     33949     33953         0         1
     33957     33954     33958         0         1
     33962     33959     33963         0         1
     33967     33964     33968         0         1
     33972     33969     33973         0         1
     33977     33974     33978         0         1
     33982     33979     33983         0         1
     33987     33984     33988         0         1
     33992     33989     33993         0         1
     33997     33994     33998         0         1
     34002     33999     34003         0         1
     34007     34004     34008         0         1
     34012     34009     34013         0         1
     34017     34014     34018         0         1
     34022     34019     34023         0         1
     34027     34024     34028         0         1
     34032     34029     34033         0         1
     34037     34034     34038         0         1
     34042     34039     34043         0         1
     34047     34044     34048         0         1
     34052     34049     34053         0         1
     34057     34054     34058         0         1
     34062     34059     34063         0         1
     34067     34064     34068         0         1
     34072     34069     34073         0         1
     34077     34074     34078         0         1
     34082     34079     34083         0         1
     34087     34084     34088         0         1
     34092     34089     34093         0         1
     34097     34094     34098         0         1
     34102     34099     34103         0         1
     34107     34104     34108         0         1
     34112     34109     34113         0         1
     34117     34114     34118         0         1
     34122     34119     34123         0         1
     34127     34124     34128         0         1
     34132     34129     34133         0         1
     34137     34134     34138         0         1
     34142     34139     34143         0         1
     34147     34144     34148         0         1
     34152     34149     34153         0         1
     34157     34154     34158         0         1
     34162     34159     34163         0         1
     34167     34164     34168         0         1
     34172     34169     34173         0         1
     34177     34174     34178         0         1
     34182     34179     34183         0         1
     34187     34184     34188         0         1
     34192     34189     34193         0         1
     34197     34194     34198         0         1
     34202     34199     34203         0         1
     34207     34204     34208         0         1
     34212     34209     34213         0         1
     34217     34214     34218         0         1
     34222     34219     34223         0         1
     34227     34224     34228         0         1
     34232     34229     34233         0         1
     34237     34234     34238         0         1
     34242     34239     34243         0         1
     34247     34244     34248         0         1
     34252     34249     34253         0         1
     34257     34254     34258         0         1
     34262     34259     34263         0         1
     34267     34264     34268         0         1
     34272     34269     34273         0         1
     34277     34274     34278         0         1
     34282     34279     34283         0         1
     34287     34284     34288         0         1
     34292     34289     34293         0         1
     34297     34294     34298         0         1
     34302     34299     34303         0         1
     34307     34304     34308         0         1
     34312     34309     34313         0         1
     34317     34314     34318         0         1
     34322     34319     34323         0         1
     34327     34324     34328         0         1
     34332     34329     34333         0         1
     34337     34334     34338         0         1
     34342     34339     34343         0         1
     34347     34344     34348         0         1
     34352     34349     34353         0         1
     34357     34354     34358         0         1
     34362     34359     34363         0         1
     34367     34364     34368         0         1
     34372     34369     34373         0         1
     34377     34374     34378         0         1
     34382     34379     34383         0         1
     34387     34384     34388         0         1
     34392     34389     34393         0         1
     34397     34394     34398         0         1
     34402     34399     34403         0         1
     34407     34404     34408         0         1
     34412     34409     34413         0         1
     34417     34414     34418         0         1
     34422     34419     34423         0         1
     34427     34424     34428         0         1
     34432     34429     34433         0         1
     34437     34434     34438         0         1
     34442     34439     34443         0         1
     34447     34444     34448         0         1
     34452     34449     34453         0         1
     34457     34454     34458         0         1
     34462     34459     34463         0         1
     34467     34464     34468         0         1
     34472     34469     34473         0         1
     34477     34474     34478         0         1
     34482     34479     34483         0         1
     34487     34484     34488         0         1
     34492     34489     34493         0         1
     34497     34494     34498         0         1
     34502     34499     34503         0         1
     34507     34504     34508         0         1
     34512     34509     34513         0         1
     34517     34514     34518         0         1
     34522     34519     34523         0         1
     34527     34524     34528         0         1
     34532     34529     34533         0         1
     34537     34534     34538         0         1
     34542     34539     34543         0         1
     34547     34544     34548         0         1
     34552     34549     34553         0         1
     34557     34554     34558         0         1
     34562     34559     34563         0         1
     34567     34564     34568         0         1
     34572     34569     34573         0         1
     34577     34574     34578         0         1
     34582     34579     34583         0         1
     34587     34584     34588         0         1
     34592     34589     34593         0         1
     34597     34594     34598         0         1
     34602     34599     34603         0         1
     34607     34604     34608         0         1
     34612     34609     34613         0         1
     34617     34614     34618         0         1
     34622     34619     34623         0         1
     34627     34624     34628         0         1
     34632     34629     34633         0         1
     34637     34634     34638         0         1
     34642     34639     34643         0         1
     34647     34644     34648         0         1
     34652     34649     34653         0         1
     34657     34654     34658         0         1
     34662     34659     34663         0         1
     34667     34664     34668         0         1
     34672     34669     34673         0         1
     34677     34674     34678         0         1
     34682     34679     34683         0         1
     34687     34684     34688         0         1
     34692     34689     34693         0         1
     34697     34694     34698         0         1
     34702     34699     34703         0         1
     34707     34704     34708         0         1
     34712     34709     34713         0         1
     34717     34714     34718         0         1
     34722     34719     34723         0         1
     34727     34724     34728         0         1
     34732     34729     34733         0         1
     34737     34734     34738         0         1
     34742     34739     34743         0         1
     34747     34744     34748         0         1
     34752     34749     34753         0         1
     34757     34754     34758         0         1
     34762     34759     34763         0         1
     34767     34764     34768         0         1
     34772     34769     34773         0         1
     34777     34774     34778         0         1
     34782     34779     34783         0         1
     34787     34784     34788         0         1
     34792     34789     34793         0         1
     34797     34794     34798         0         1
     34802     34799     34803         0         1
     34807     34804     34808         0         1
     34812     34809     34813         0         1
     34817     34814     34818         0         1
     34822     34819     34823         0         1
     34827     34824     34828         0         1
     34832     34829     34833         0         1
     34837     34834     34838         0         1
     34842     34839     34843         0         1
     34847     34844     34848         0         1
     34852     34849     34853         0         1
     34857     34854     34858         0         1
     34862     34859     34863         0         1
     34867     34864     34868         0         1
     34872     34869     34873         0         1
     34877     34874     34878         0         1
     34882     34879     34883         0         1
     34887     34884     34888         0         1
     34892     34889     34893         0         1
     34897     34894     34898         0         1
     34902     34899     34903         0         1
     34907     34904     34908         0         1
     34912     34909     34913         0         1
     34917     34914     34918         0         1
     34922     34919     34923         0         1
     34927     34924     34928         0         1
     34932     34929     34933         0         1
     34937     34934     34938         0         1
     34942     34939     34943         0         1
     34947     34944     34948         0         1
     34952     34949     34953         0         1
     34957     34954     34958         0         1
     34962     34959     34963         0         1
     34967     34964     34968         0         1
     34972     34969     34973         0         1
     34977     34974     34978         0         1
     34982     34979     34983         0         1
     34987     34984     34988         0         1
     34992     34989     34993         0         1
     34997     34994     34998         0         1
     35002     34999     35003         0         1
     35007     35004     35008         0         1
     35012     35009     35013         0         1
     35017     35014     35018         0         1
     35022     35019     35023         0         1
     35027     35024     35028         0         1
     35032     35029     35033         0         1
     35037     35034     35038         0         1
     35042     35039     35043         0         1
     35047     35044     35048         0         1
     35052     35049     35053         0         1
     35057     35054     35058         0         1
     35062     35059     35063         0         1
     35067     35064     35068         0         1
     35072     35069     35073         0         1
     35077     35074     35078         0         1
     35082     35079     35083         0         1
     35087     35084     35088         0         1
     35092     35089     35093         0         1
     35097     35094     35098         0         1
     35102     35099     35103         0         1
     35107     35104     35108         0         1
     35112     35109     35113         0         1
     35117     35114     35118         0         1
     35122     35119     35123         0         1
     35127     35124     35128         0         1
     35132     35129     35133         0         1
     35137     35134     35138         0         1
     35142     35139     35143         0         1
     35147     35144     35148         0         1
     35152     35149     35153         0         1
     35157     35154     35158         0         1
     35162     35159     35163         0         1
     35167     35164     35168         0         1
     35172     35169     35173         0         1
     35177     35174     35178         0         1
     35182     35179     35183         0         1
     35187     35184     35188         0         1
     35192     35189     35193         0         1
     35197     35194     35198         0         1
     35202     35199     35203         0         1
     35207     35204     35208         0         1
     35212     35209     35213         0         1
     35217     35214     35218         0         1
     35222     35219     35223         0         1
     35227     35224     35228         0         1
     35232     35229     35233         0         1
     35237     35234     35238         0         1
     35242     35239     35243         0         1
     35247     35244     35248         0         1
     35252     35249     35253         0         1
     35257     35254     35258         0         1
     35262     35259     35263         0         1
     35267     35264     35268         0         1
     35272     35269     35273         0         1
     35277     35274     35278         0         1
     35282     35279     35283         0         1
     35287     35284     35288         0         1
     35292     35289     35293         0         1
     35297     35294     35298         0         1
     35302     35299     35303         0         1
     35307     35304     35308         0         1
     35312     35309     35313         0         1
     35317     35314     35318         0         1
     35322     35319     35323         0         1
     35327     35324     35328         0         1
     35332     35329     35333         0         1
     35337     35334     35338         0         1
     35342     35339     35343         0         1
     35347     35344     35348         0         1
     35352     35349     35353         0         1
     35357     35354     35358         0         1
     35362     35359     35363         0         1
     35367     35364     35368         0         1
     35372     35369     35373         0         1
     35377     35374     35378         0         1
     35382     35379     35383         0         1
     35387     35384     35388         0         1
     35392     35389     35393         0         1
     35397     35394     35398         0         1
     35402     35399     35403         0         1
     35407     35404     35408         0         1
     35412     35409     35413         0         1
     35417     35414     35418         0         1
     35422     35419     35423         0         1
     35427     35424     35428         0         1
     35432     35429     35433         0         1
     35437     35434     35438         0         1
     35442     35439     35443         0         1
     35447     35444     35448         0         1
     35452     35449     35453         0         1
     35457     35454     35458         0         1
     35462     35459     35463         0         1
     35467     35464     35468         0         1
     35472     35469     35473         0         1
     35477     35474     35478         0         1
     35482     35479     35483         0         1
     35487     35484     35488         0         1
     35492     35489     35493         0         1
     35497     35494     35498         0         1
     35502     35499     35503         0         1
     35507     35504     35508         0         1
     35512     35509     35513         0         1
     35517     35514     35518         0         1
     35522     35519     35523         0         1
     35527     35524     35528         0         1
     35532     35529     35533         0         1
     35537     35534     35538         0         1
     35542     35539     35543         0         1
     35547     35544     35548         0         1
     35552     35549     35553         0         1
     35557     35554     35558         0         1
     35562     35559     35563         0         1
     35567     35564     35568         0         1
     35572     35569     35573         0         1
     35577     35574     35578         0         1
     35582     35579     35583         0         1
     35587     35584     35588         0         1
     35592     35589     35593         0         1
     35597     35594     35598         0         1
     35602     35599     35603         0         1
     35607     35604     35608         0         1
     35612     35609     35613         0         1
     35617     35614     35618         0         1
     35622     35619     35623         0         1
     35627     35624     35628         0         1
     35632     35629     35633         0         1
     35637     35634     35638         0         1
     35642     35639     35643         0         1
     35647     35644     35648         0         1
     35652     35649     35653         0         1
     35657     35654     35658         0         1
     35662     35659     35663         0         1
     35667     35664     35668         0         1
     35672     35669     35673         0         1
     35677     35674     35678         0         1
     35682     35679     35683         0         1
     35687     35684     35688         0         1
     35692     35689     35693         0         1
     35697     35694     35698         0         1
     35702     35699     35703         0         1
     35707     35704     35708         0         1
     35712     35709     35713         0         1
     35717     35714     35718         0         1
     35722     35719     35723         0         1
     35727     35724     35728         0         1
     35732     35729     35733         0         1
     35737     35734     35738         0         1
     35742     35739     35743         0         1
     35747     35744     35748         0         1
     35752     35749     35753         0         1
     35757     35754     35758         0         1
     35762     35759     35763         0         1
     35767     35764     35768         0         1
     35772     35769     35773         0         1
     35777     35774     35778         0         1
     35782     35779     35783         0         1
     35787     35784     35788         0         1
     35792     35789     35793         0         1
     35797     35794     35798         0         1
     35802     35799     35803         0         1
     35807     35804     35808         0         1
     35812     35809     35813         0         1
     35817     35814     35818         0         1
     35822     35819     35823         0         1
     35827     35824     35828         0         1
     35832     35829     35833         0         1
     35837     35834     35838         0         1
     35842     35839     35843         0         1
     35847     35844     35848         0         1
     35852     35849     35853         0         1
     35857     35854     35858         0         1
     35862     35859     35863         0         1
     35867     35864     35868         0         1
     35872     35869     35873         0         1
     35877     35874     35878         0         1
     35882     35879     35883         0         1
     35887     35884     35888         0         1
     35892     35889     35893         0         1
     35897     35894     35898         0         1
     35902     35899     35903         0         1
     35907     35904     35908         0         1
     35912     35909     35913         0         1
     35917     35914     35918         0         1
     35922     35919     35923         0         1
     35927     35924     35928         0         1
     35932     35929     35933         0         1
     35937     35934     35938         0         1
     35942     35939     35943         0         1
     35947     35944     35948         0         1
     35952     35949     35953         0         1
     35957     35954     35958         0         1
     35962     35959     35963         0         1
     35967     35964     35968         0         1
     35972     35969     35973         0         1
     35977     35974     35978         0         1
     35982     35979     35983         0         1
     35987     35984     35988         0         1
     35992     35989     35993         0         1
     35997     35994     35998         0         1
     36002     35999     36003         0         1
     36007     36004     36008         0         1
     36012     36009     36013         0         1
     36017     36014     36018         0         1
     36022     36019     36023         0         1
     36027     36024     36028         0         1
     36032     36029     36033         0         1
     36037     36034     36038         0         1
     36042     36039     36043         0         1
     36047     36044     36048         0         1
     36052     36049     36053         0         1
     36057     36054     36058         0         1
     36062     36059     36063         0         1
     36067     36064     36068         0         1
     36072     36069     36073         0         1
     36077     36074     36078         0         1
     36082     36079     36083         0         1
     36087     36084     36088         0         1
     36092     36089     36093         0         1
     36097     36094     36098         0         1
     36102     36099     36103         0         1
     36107     36104     36108         0         1
     36112     36109     36113         0         1
     36117     36114     36118         0         1
     36122     36119     36123         0         1
     36127     36124     36128         0         1
     36132     36129     36133         0         1
     36137     36134     36138         0         1
     36142     36139     36143         0         1
     36147     36144     36148         0         1
     36152     36149     36153         0         1
     36157     36154     36158         0         1
     36162     36159     36163         0         1
     36167     36164     36168         0         1
     36172     36169     36173         0         1
     36177     36174     36178         0         1
     36182     36179     36183         0         1
     36187     36184     36188         0         1
     36192     36189     36193         0         1
     36197     36194     36198         0         1
     36202     36199     36203         0         1
     36207     36204     36208         0         1
     36212     36209     36213         0         1
     36217     36214     36218         0         1
     36222     36219     36223         0         1
     36227     36224     36228         0         1
     36232     36229     36233         0         1
     36237     36234     36238         0         1
     36242     36239     36243         0         1
     36247     36244     36248         0         1
     36252     36249     36253         0         1
     36257     36254     36258         0         1
     36262     36259     36263         0         1
     36267     36264     36268         0         1
     36272     36269     36273         0         1
     36277     36274     36278         0         1
     36282     36279     36283         0         1
     36287     36284     36288         0         1
     36292     36289     36293         0         1
     36297     36294     36298         0         1
     36302     36299     36303         0         1
     36307     36304     36308         0         1
     36312     36309     36313         0         1
     36317     36314     36318         0         1
     36322     36319     36323         0         1
     36327     36324     36328         0         1
     36332     36329     36333         0         1
     36337     36334     36338         0         1
     36342     36339     36343         0         1
     36347     36344     36348         0         1
     36352     36349     36353         0         1
     36357     36354     36358         0         1
     36362     36359     36363         0         1
     36367     36364     36368         0         1
     36372     36369     36373         0         1
     36377     36374     36378         0         1
     36382     36379     36383         0         1
     36387     36384     36388         0         1
     36392     36389     36393         0         1
     36397     36394     36398         0         1
     36402     36399     36403         0         1
     36407     36404     36408         0         1
     36412     36409     36413         0         1
     36417     36414     36418         0         1
     36422     36419     36423         0         1
     36427     36424     36428         0         1
     36432     36429     36433         0         1
     36437     36434     36438         0         1
     36442     36439     36443         0         1
     36447     36444     36448         0         1
     36452     36449     36453         0         1
     36457     36454     36458         0         1
     36462     36459     36463         0         1
     36467     36464     36468         0         1
     36472     36469     36473         0         1
     36477     36474     36478         0         1
     36482     36479     36483         0         1
     36487     36484     36488         0         1
     36492     36489     36493         0         1
     36497     36494     36498         0         1
     36502     36499     36503         0         1
     36507     36504     36508         0         1
     36512     36509     36513         0         1
     36517     36514     36518         0         1
     36522     36519     36523         0         1
     36527     36524     36528         0         1
     36532     36529     36533         0         1
     36537     36534     36538         0         1
     36542     36539     36543         0         1
     36547     36544     36548         0         1
     36552     36549     36553         0         1
     36557     36554     36558         0         1
     36562     36559     36563         0         1
     36567     36564     36568         0         1
     36572     36569     36573         0         1
     36577     36574     36578         0         1
     36582     36579     36583         0         1
     36587     36584     36588         0         1
     36592     36589     36593         0         1
     36597     36594     36598         0         1
     36602     36599     36603         0         1
     36607     36604     36608         0         1
     36612     36609     36613         0         1
     36617     36614     36618         0         1
     36622     36619     36623         0         1
     36627     36624     36628         0         1
     36632     36629     36633         0         1
     36637     36634     36638         0         1
     36642     36639     36643         0         1
     36647     36644     36648         0         1
     36652     36649     36653         0         1
     36657     36654     36658         0         1
     36662     36659     36663         0         1
     36667     36664     36668         0         1
     36672     36669     36673         0         1
     36677     36674     36678         0         1
     36682     36679     36683         0         1
     36687     36684     36688         0         1
     36692     36689     36693         0         1
     36697     36694     36698         0         1
     36702     36699     36703         0         1
     36707     36704     36708         0         1
     36712     36709     36713         0         1
     36717     36714     36718         0         1
     36722     36719     36723         0         1
     36727     36724     36728         0         1
     36732     36729     36733         0         1
     36737     36734     36738         0         1
     36742     36739     36743         0         1
     36747     36744     36748         0         1
     36752     36749     36753         0         1
     36757     36754     36758         0         1
     36762     36759     36763         0         1
     36767     36764     36768         0         1
     36772     36769     36773         0         1
     36777     36774     36778         0         1
     36782     36779     36783         0         1
     36787     36784     36788         0         1
     36792     36789     36793         0         1
     36797     36794     36798         0         1
     36802     36799     36803         0         1
     36807     36804     36808         0         1
     36812     36809     36813         0         1
     36817     36814     36818         0         1
     36822     36819     36823         0         1
     36827     36824     36828         0         1
     36832     36829     36833         0         1
     36837     36834     36838         0         1
     36842     36839     36843         0         1
     36847     36844     36848         0         1
     36852     36849     36853         0         1
     36857     36854     36858         0         1
     36862     36859     36863         0         1
     36867     36864     36868         0         1
     36872     36869     36873         0         1
     36877     36874     36878         0         1
     36882     36879     36883         0         1
     36887     36884     36888         0         1
     36892     36889     36893         0         1
     36897     36894     36898         0         1
     36902     36899     36903         0         1
     36907     36904     36908         0         1
     36912     36909     36913         0         1
     36917     36914     36918         0         1
     36922     36919     36923         0         1
     36927     36924     36928         0         1
     36932     36929     36933         0         1
     36937     36934     36938         0         1
     36942     36939     36943         0         1
     36947     36944     36948         0         1
     36952     36949     36953         0         1
     36957     36954     36958         0         1
     36962     36959     36963         0         1
     36967     36964     36968         0         1
     36972     36969     36973         0         1
     36977     36974     36978         0         1
     36982     36979     36983         0         1
     36987     36984     36988         0         1
     36992     36989     36993         0         1
     36997     36994     36998         0         1
     37002     36999     37003         0         1
     37007     37004     37008         0         1
     37012     37009     37013         0         1
     37017     37014     37018         0         1
     37022     37019     37023         0         1
     37027     37024     37028         0         1
     37032     37029     37033         0         1
     37037     37034     37038         0         1
     37042     37039     37043         0         1
     37047     37044     37048         0         1
     37052     37049     37053         0         1
     37057     37054     37058         0         1
     37062     37059     37063         0         1
     37067     37064     37068         0         1
     37072     37069     37073         0         1
     37077     37074     37078         0         1
     37082     37079     37083         0         1
     37087     37084     37088         0         1
     37092     37089     37093         0         1
     37097     37094     37098         0         1
     37102     37099     37103         0         1
     37107     37104     37108         0         1
     37112     37109     37113         0         1
     37117     37114     37118         0         1
     37122     37119     37123         0         1
     37127     37124     37128         0         1
     37132     37129     37133         0         1
     37137     37134     37138         0         1
     37142     37139     37143         0         1
     37147     37144     37148         0         1
     37152     37149     37153         0         1
     37157     37154     37158         0         1
     37162     37159     37163         0         1
     37167     37164     37168         0         1
     37172     37169     37173         0         1
     37177     37174     37178         0         1
     37182     37179     37183         0         1
     37187     37184     37188         0         1
     37192     37189     37193         0         1
     37197     37194     37198         0         1
     37202     37199     37203         0         1
     37207     37204     37208         0         1
     37212     37209     37213         0         1
     37217     37214     37218         0         1
     37222     37219     37223         0         1
     37227     37224     37228         0         1
     37232     37229     37233         0         1
     37237     37234     37238         0         1
     37242     37239     37243         0         1
     37247     37244     37248         0         1
     37252     37249     37253         0         1
     37257     37254     37258         0         1
     37262     37259     37263         0         1
     37267     37264     37268         0         1
     37272     37269     37273         0         1
     37277     37274     37278         0         1
     37282     37279     37283         0         1
     37287     37284     37288         0         1
     37292     37289     37293         0         1
     37297     37294     37298         0         1
     37302     37299     37303         0         1
     37307     37304     37308         0         1
     37312     37309     37313         0         1
     37317     37314     37318         0         1
     37322     37319     37323         0         1
     37327     37324     37328         0         1
     37332     37329     37333         0         1
     37337     37334     37338         0         1
     37342     37339     37343         0         1
     37347     37344     37348         0         1
     37352     37349     37353         0         1
     37357     37354     37358         0         1
     37362     37359     37363         0         1
     37367     37364     37368         0         1
     37372     37369     37373         0         1
     37377     37374     37378         0         1
     37382     37379     37383         0         1
     37387     37384     37388         0         1
     37392     37389     37393         0         1
     37397     37394     37398         0         1
     37402     37399     37403         0         1
     37407     37404     37408         0         1
     37412     37409     37413         0         1
     37417     37414     37418         0         1
     37422     37419     37423         0         1
     37427     37424     37428         0         1
     37432     37429     37433         0         1
     37437     37434     37438         0         1
     37442     37439     37443         0         1
     37447     37444     37448         0         1
     37452     37449     37453         0         1
     37457     37454     37458         0         1
     37462     37459     37463         0         1
     37467     37464     37468         0         1
     37472     37469     37473         0         1
     37477     37474     37478         0         1
     37482     37479     37483         0         1
     37487     37484     37488         0         1
     37492     37489     37493         0         1
     37497     37494     37498         0         1
     37502     37499     37503         0         1
     37507     37504     37508         0         1
     37512     37509     37513         0         1
     37517     37514     37518         0         1
     37522     37519     37523         0         1
     37527     37524     37528         0         1
     37532     37529     37533         0         1
     37537     37534     37538         0         1
     37542     37539     37543         0         1
     37547     37544     37548         0         1
     37552     37549     37553         0         1
     37557     37554     37558         0         1
     37562     37559     37563         0         1
     37567     37564     37568         0         1
     37572     37569     37573         0         1
     37577     37574     37578         0         1
     37582     37579     37583         0         1
     37587     37584     37588         0         1
     37592     37589     37593         0         1
     37597     37594     37598         0         1
     37602     37599     37603         0         1
     37607     37604     37608         0         1
     37612     37609     37613         0         1
     37617     37614     37618         0         1
     37622     37619     37623         0         1
     37627     37624     37628         0         1
     37632     37629     37633         0         1
     37637     37634     37638         0         1
     37642     37639     37643         0         1
     37647     37644     37648         0         1
     37652     37649     37653         0         1
     37657     37654     37658         0         1
     37662     37659     37663         0         1
     37667     37664     37668         0         1
     37672     37669     37673         0         1
     37677     37674     37678         0         1
     37682     37679     37683         0         1
     37687     37684     37688         0         1
     37692     37689     37693         0         1
     37697     37694     37698         0         1
     37702     37699     37703         0         1
     37707     37704     37708         0         1
     37712     37709     37713         0         1
     37717     37714     37718         0         1
     37722     37719     37723         0         1
     37727     37724     37728         0         1
     37732     37729     37733         0         1
     37737     37734     37738         0         1
     37742     37739     37743         0         1
     37747     37744     37748         0         1
     37752     37749     37753         0         1
     37757     37754     37758         0         1
     37762     37759     37763         0         1
     37767     37764     37768         0         1
     37772     37769     37773         0         1
     37777     37774     37778         0         1
     37782     37779     37783         0         1
     37787     37784     37788         0         1
     37792     37789     37793         0         1
     37797     37794     37798         0         1
     37802     37799     37803         0         1
     37807     37804     37808         0         1
     37812     37809     37813         0         1
     37817     37814     37818         0         1
     37822     37819     37823         0         1
     37827     37824     37828         0         1
     37832     37829     37833         0         1
     37837     37834     37838         0         1
     37842     37839     37843         0         1
     37847     37844     37848         0         1
     37852     37849     37853         0         1
     37857     37854     37858         0         1
     37862     37859     37863         0         1
     37867     37864     37868         0         1
     37872     37869     37873         0         1
     37877     37874     37878         0         1
     37882     37879     37883         0         1
     37887     37884     37888         0         1
     37892     37889     37893         0         1
     37897     37894     37898         0         1
     37902     37899     37903         0         1
     37907     37904     37908         0         1
     37912     37909     37913         0         1
     37917     37914     37918         0         1
     37922     37919     37923         0         1
     37927     37924     37928         0         1
     37932     37929     37933         0         1
     37937     37934     37938         0         1
     37942     37939     37943         0         1
     37947     37944     37948         0         1
     37952     37949     37953         0         1
     37957     37954     37958         0         1
     37962     37959     37963         0         1
     37967     37964     37968         0         1
     37972     37969     37973         0         1
     37977     37974     37978         0         1
     37982     37979     37983         0         1
     37987     37984     37988         0         1
     37992     37989     37993         0         1
     37997     37994     37998         0         1
     38002     37999     38003         0         1
     38007     38004     38008         0         1
     38012     38009     38013         0         1
     38017     38014     38018         0         1
     38022     38019     38023         0         1
     38027     38024     38028         0         1
     38032     38029     38033         0         1
     38037     38034     38038         0         1
     38042     38039     38043         0         1
     38047     38044     38048         0         1
     38052     38049     38053         0         1
     38057     38054     38058         0         1
     38062     38059     38063         0         1
     38067     38064     38068         0         1
     38072     38069     38073         0         1
     38077     38074     38078         0         1
     38082     38079     38083         0         1
     38087     38084     38088         0         1
     38092     38089     38093         0         1
     38097     38094     38098         0         1
     38102     38099     38103         0         1
     38107     38104     38108         0         1
     38112     38109     38113         0         1
     38117     38114     38118         0         1
     38122     38119     38123         0         1
     38127     38124     38128         0         1
     38132     38129     38133         0         1
     38137     38134     38138         0         1
     38142     38139     38143         0         1
     38147     38144     38148         0         1
     38152     38149     38153         0         1
     38157     38154     38158         0         1
     38162     38159     38163         0         1
     38167     38164     38168         0         1
     38172     38169     38173         0         1
     38177     38174     38178         0         1
     38182     38179     38183         0         1
     38187     38184     38188         0         1
     38192     38189     38193         0         1
     38197     38194     38198         0         1
     38202     38199     38203         0         1
     38207     38204     38208         0         1
     38212     38209     38213         0         1
     38217     38214     38218         0         1
     38222     38219     38223         0         1
     38227     38224     38228         0         1
     38232     38229     38233         0         1
     38237     38234     38238         0         1
     38242     38239     38243         0         1
     38247     38244     38248         0         1
     38252     38249     38253         0         1
     38257     38254     38258         0         1
     38262     38259     38263         0         1
     38267     38264     38268         0         1
     38272     38269     38273         0         1
     38277     38274     38278         0         1
     38282     38279     38283         0         1
     38287     38284     38288         0         1
     38292     38289     38293         0         1
     38297     38294     38298         0         1
     38302     38299     38303         0         1
     38307     38304     38308         0         1
     38312     38309     38313         0         1
     38317     38314     38318         0         1
     38322     38319     38323         0         1
     38327     38324     38328         0         1
     38332     38329     38333         0         1
     38337     38334     38338         0         1
     38342     38339     38343         0         1
     38347     38344     38348         0         1
     38352     38349     38353         0         1
     38357     38354     38358         0         1
     38362     38359     38363         0         1
     38367     38364     38368         0         1
     38372     38369     38373         0         1
     38377     38374     38378         0         1
     38382     38379     38383         0         1
     38387     38384     38388         0         1
     38392     38389     38393         0         1
     38397     38394     38398         0         1
     38402     38399     38403         0         1
     38407     38404     38408         0         1
     38412     38409     38413         0         1
     38417     38414     38418         0         1
     38422     38419     38423         0         1
     38427     38424     38428         0         1
     38432     38429     38433         0         1
     38437     38434     38438         0         1
     38442     38439     38443         0         1
     38447     38444     38448         0         1
     38452     38449     38453         0         1
     38457     38454     38458         0         1
     38462     38459     38463         0         1
     38467     38464     38468         0         1
     38472     38469     38473         0         1
     38477     38474     38478         0         1
     38482     38479     38483         0         1
     38487     38484     38488         0         1
     38492     38489     38493         0         1
     38497     38494     38498         0         1
     38502     38499     38503         0         1
     38507     38504     38508         0         1
     38512     38509     38513         0         1
     38517     38514     38518         0         1
     38522     38519     38523         0         1
     38527     38524     38528         0         1
     38532     38529     38533         0         1
     38537     38534     38538         0         1
     38542     38539     38543         0         1
     38547     38544     38548         0         1
     38552     38549     38553         0         1
     38557     38554     38558         0         1
     38562     38559     38563         0         1
     38567     38564     38568         0         1
     38572     38569     38573         0         1
     38577     38574     38578         0         1
     38582     38579     38583         0         1
     38587     38584     38588         0         1
     38592     38589     38593         0         1
     38597     38594     38598         0         1
     38602     38599     38603         0         1
     38607     38604     38608         0         1
     38612     38609     38613         0         1
     38617     38614     38618         0         1
     38622     38619     38623         0         1
     38627     38624     38628         0         1
     38632     38629     38633         0         1
     38637     38634     38638         0         1
     38642     38639     38643         0         1
     38647     38644     38648         0         1
     38652     38649     38653         0         1
     38657     38654     38658         0         1
     38662     38659     38663         0         1
     38667     38664     38668         0         1
     38672     38669     38673         0         1
     38677     38674     38678         0         1
     38682     38679     38683         0         1
     38687     38684     38688         0         1
     38692     38689     38693         0         1
     38697     38694     38698         0         1
     38702     38699     38703         0         1
     38707     38704     38708         0         1
     38712     38709     38713         0         1
     38717     38714     38718         0         1
     38722     38719     38723         0         1
     38727     38724     38728         0         1
     38732     38729     38733         0         1
     38737     38734     38738         0         1
     38742     38739     38743         0         1
     38747     38744     38748         0         1
     38752     38749     38753         0         1
     38757     38754     38758         0         1
     38762     38759     38763         0         1
     38767     38764     38768         0         1
     38772     38769     38773         0         1
     38777     38774     38778         0         1
     38782     38779     38783         0         1
     38787     38784     38788         0         1
     38792     38789     38793         0         1
     38797     38794     38798         0         1
     38802     38799     38803         0         1
     38807     38804     38808         0         1
     38812     38809     38813         0         1
     38817     38814     38818         0         1
     38822     38819     38823         0         1
     38827     38824     38828         0         1
     38832     38829     38833         0         1
     38837     38834     38838         0         1
     38842     38839     38843         0         1
     38847     38844     38848         0         1
     38852     38849     38853         0         1
     38857     38854     38858         0         1
     38862     38859     38863         0         1
     38867     38864     38868         0         1
     38872     38869     38873         0         1
     38877     38874     38878         0         1
     38882     38879     38883         0         1
     38887     38884     38888         0         1
     38892     38889     38893         0         1
     38897     38894     38898         0         1
     38902     38899     38903         0         1
     38907     38904     38908         0         1
     38912     38909     38913         0         1
     38917     38914     38918         0         1
     38922     38919     38923         0         1
     38927     38924     38928         0         1
     38932     38929     38933         0         1
     38937     38934     38938         0         1
     38942     38939     38943         0         1
     38947     38944     38948         0         1
     38952     38949     38953         0         1
     38957     38954     38958         0         1
     38962     38959     38963         0         1
     38967     38964     38968         0         1
     38972     38969     38973         0         1
     38977     38974     38978         0         1
     38982     38979     38983         0         1
     38987     38984     38988         0         1
     38992     38989     38993         0         1
     38997     38994     38998         0         1
     39002     38999     39003         0         1
     39007     39004     39008         0         1
     39012     39009     39013         0         1
     39017     39014     39018         0         1
     39022     39019     39023         0         1
     39027     39024     39028         0         1
     39032     39029     39033         0         1
     39037     39034     39038         0         1
     39042     39039     39043         0         1
     39047     39044     39048         0         1
     39052     39049     39053         0         1
     39057     39054     39058         0         1
     39062     39059     39063         0         1
     39067     39064     39068         0         1
     39072     39069     39073         0         1
     39077     39074     39078         0         1
     39082     39079     39083         0         1
     39087     39084     39088         0         1
     39092     39089     39093         0         1
     39097     39094     39098         0         1
     39102     39099     39103         0         1
     39107     39104     39108         0         1
     39112     39109     39113         0         1
     39117     39114     39118         0         1
     39122     39119     39123         0         1
     39127     39124     39128         0         1
     39132     39129     39133         0         1
     39137     39134     39138         0         1
     39142     39139     39143         0         1
     39147     39144     39148         0         1
     39152     39149     39153         0         1
     39157     39154     39158         0         1
     39162     39159     39163         0         1
     39167     39164     39168         0         1
     39172     39169     39173         0         1
     39177     39174     39178         0         1
     39182     39179     39183         0         1
     39187     39184     39188         0         1
     39192     39189     39193         0         1
     39197     39194     39198         0         1
     39202     39199     39203         0         1
     39207     39204     39208         0         1
     39212     39209     39213         0         1
     39217     39214     39218         0         1
     39222     39219     39223         0         1
     39227     39224     39228         0         1
     39232     39229     39233         0         1
     39237     39234     39238         0         1
     39242     39239     39243         0         1
     39247     39244     39248         0         1
     39252     39249     39253         0         1
     39257     39254     39258         0         1
     39262     39259     39263         0         1
     39267     39264     39268         0         1
     39272     39269     39273         0         1
     39277     39274     39278         0         1
     39282     39279     39283         0         1
     39287     39284     39288         0         1
     39292     39289     39293         0         1
     39297     39294     39298         0         1
     39302     39299     39303         0         1
     39307     39304     39308         0         1
     39312     39309     39313         0         1
     39317     39314     39318         0         1
     39322     39319     39323         0         1
     39327     39324     39328         0         1
     39332     39329     39333         0         1
     39337     39334     39338         0         1
     39342     39339     39343         0         1
     39347     39344     39348         0         1
     39352     39349     39353         0         1
     39357     39354     39358         0         1
     39362     39359     39363         0         1
     39367     39364     39368         0         1
     39372     39369     39373         0         1
     39377     39374     39378         0         1
     39382     39379     39383         0         1
     39387     39384     39388         0         1
     39392     39389     39393         0         1
     39397     39394     39398         0         1
     39402     39399     39403         0         1
     39407     39404     39408         0         1
     39412     39409     39413         0         1
     39417     39414     39418         0         1
     39422     39419     39423         0         1
     39427     39424     39428         0         1
     39432     39429     39433         0         1
     39437     39434     39438         0         1
     39442     39439     39443         0         1
     39447     39444     39448         0         1
     39452     39449     39453         0         1
     39457     39454     39458         0         1
     39462     39459     39463         0         1
     39467     39464     39468         0         1
     39472     39469     39473         0         1
     39477     39474     39478         0         1
     39482     39479     39483         0         1
     39487     39484     39488         0         1
     39492     39489     39493         0         1
     39497     39494     39498         0         1
     39502     39499     39503         0         1
     39507     39504     39508         0         1
     39512     39509     39513         0         1
     39517     39514     39518         0         1
     39522     39519     39523         0         1
     39527     39524     39528         0         1
     39532     39529     39533         0         1
     39537     39534     39538         0         1
     39542     39539     39543         0         1
     39547     39544     39548         0         1
     39552     39549     39553         0         1
     39557     39554     39558         0         1
     39562     39559     39563         0         1
     39567     39564     39568         0         1
     39572     39569     39573         0         1
     39577     39574     39578         0         1
     39582     39579     39583         0         1
     39587     39584     39588         0         1
     39592     39589     39593         0         1
     39597     39594     39598         0         1
     39602     39599     39603         0         1
     39607     39604     39608         0         1
     39612     39609     39613         0         1
     39617     39614     39618         0         1
     39622     39619     39623         0         1
     39627     39624     39628         0         1
     39632     39629     39633         0         1
     39637     39634     39638         0         1
     39642     39639     39643         0         1
     39647     39644     39648         0         1
     39652     39649     39653         0         1
     39657     39654     39658         0         1
     39662     39659     39663         0         1
     39667     39664     39668         0         1
     39672     39669     39673         0         1
     39677     39674     39678         0         1
     39682     39679     39683         0         1
     39687     39684     39688         0         1
     39692     39689     39693         0         1
     39697     39694     39698         0         1
     39702     39699     39703         0         1
     39707     39704     39708         0         1
     39712     39709     39713         0         1
     39717     39714     39718         0         1
     39722     39719     39723         0         1
     39727     39724     39728         0         1
     39732     39729     39733         0         1
     39737     39734     39738         0         1
     39742     39739     39743         0         1
     39747     39744     39748         0         1
     39752     39749     39753         0         1
     39757     39754     39758         0         1
     39762     39759     39763         0         1
     39767     39764     39768         0         1
     39772     39769     39773         0         1
     39777     39774     39778         0         1
     39782     39779     39783         0         1
     39787     39784     39788         0         1
     39792     39789     39793         0         1
     39797     39794     39798         0         1
     39802     39799     39803         0         1
     39807     39804     39808         0         1
     39812     39809     39813         0         1
     39817     39814     39818         0         1
     39822     39819     39823         0         1
     39827     39824     39828         0         1
     39832     39829     39833         0         1
     39837     39834     39838         0         1
     39842     39839     39843         0         1
     39847     39844     39848         0         1
     39852     39849     39853         0         1
     39857     39854     39858         0         1
     39862     39859     39863         0         1
     39867     39864     39868         0         1
     39872     39869     39873         0         1
     39877     39874     39878         0         1
     39882     39879     39883         0         1
     39887     39884     39888         0         1
     39892     39889     39893         0         1
     39897     39894     39898         0         1
     39902     39899     39903         0         1
     39907     39904     39908         0         1
     39912     39909     39913         0         1
     39917     39914     39918         0         1
     39922     39919     39923         0         1
     39927     39924     39928         0         1
     39932     39929     39933         0         1
     39937     39934     39938         0         1
     39942     39939     39943         0         1
     39947     39944     39948         0         1
     39952     39949     39953         0         1
     39957     39954     39958         0         1
     39962     39959     39963         0         1
     39967     39964     39968         0         1
     39972     39969     39973         0         1
     39977     39974     39978         0         1
     39982     39979     39983         0         1
     39987     39984     39988         0         1
     39992     39989     39993         0         1
     39997     39994     39998         0         1
     40002     39999     40003         0         1
     40007     40004     40008         0         1
     40012     40009     40013         0         1
     40017     40014     40018         0         1
     40022     40019     40023         0         1
     40027     40024     40028         0         1
     40032     40029     40033         0         1
     40037     40034     40038         0         1
     40042     40039     40043         0         1
     40047     40044     40048         0         1
     40052     40049     40053         0         1
     40057     40054     40058         0         1
     40062     40059     40063         0         1
     40067     40064     40068         0         1
     40072     40069     40073         0         1
     40077     40074     40078         0         1
     40082     40079     40083         0         1
     40087     40084     40088         0         1
     40092     40089     40093         0         1
     40097     40094     40098         0         1
     40102     40099     40103         0         1
     40107     40104     40108         0         1
     40112     40109     40113         0         1
     40117     40114     40118         0         1
     40122     40119     40123         0         1
     40127     40124     40128         0         1
     40132     40129     40133         0         1
     40137     40134     40138         0         1
     40142     40139     40143         0         1
     40147     40144     40148         0         1
     40152     40149     40153         0         1
     40157     40154     40158         0         1
     40162     40159     40163         0         1
     40167     40164     40168         0         1
     40172     40169     40173         0         1
     40177     40174     40178         0         1
     40182     40179     40183         0         1
     40187     40184     40188         0         1
     40192     40189     40193         0         1
     40197     40194     40198         0         1
     40202     40199     40203         0         1
     40207     40204     40208         0         1
     40212     40209     40213         0         1
     40217     40214     40218         0         1
     40222     40219     40223         0         1
     40227     40224     40228         0         1
     40232     40229     40233         0         1
     40237     40234     40238         0         1
     40242     40239     40243         0         1
     40247     40244     40248         0         1
     40252     40249     40253         0         1
     40257     40254     40258         0         1
     40262     40259     40263         0         1
     40267     40264     40268         0         1
     40272     40269     40273         0         1
     40277     40274     40278         0         1
     40282     40279     40283         0         1
     40287     40284     40288         0         1
     40292     40289     40293         0         1
     40297     40294     40298         0         1
     40302     40299     40303         0         1
     40307     40304     40308         0         1
     40312     40309     40313         0         1
     40317     40314     40318         0         1
     40322     40319     40323         0         1
     40327     40324     40328         0         1
     40332     40329     40333         0         1
     40337     40334     40338         0         1
     40342     40339     40343         0         1
     40347     40344     40348         0         1
     40352     40349     40353         0         1
     40357     40354     40358         0         1
     40362     40359     40363         0         1
     40367     40364     40368         0         1
     40372     40369     40373         0         1
     40377     40374     40378         0         1
     40382     40379     40383         0         1
     40387     40384     40388         0         1
     40392     40389     40393         0         1
     40397     40394     40398         0         1
     40402     40399     40403         0         1
     40407     40404     40408         0         1
     40412     40409     40413         0         1
     40417     40414     40418         0         1
     40422     40419     40423         0         1
     40427     40424     40428         0         1
     40432     40429     40433         0         1
     40437     40434     40438         0         1
     40442     40439     40443         0         1
     40447     40444     40448         0         1
     40452     40449     40453         0         1
     40457     40454     40458         0         1
     40462     40459     40463         0         1
     40467     40464     40468         0         1
     40472     40469     40473         0         1
     40477     40474     40478         0         1
     40482     40479     40483         0         1
     40487     40484     40488         0         1
     40492     40489     40493         0         1
     40497     40494     40498         0         1
     40502     40499     40503         0         1
     40507     40504     40508         0         1
     40512     40509     40513         0         1
     40517     40514     40518         0         1
     40522     40519     40523         0         1
     40527     40524     40528         0         1
     40532     40529     40533         0         1
     40537     40534     40538         0         1
     40542     40539     40543         0         1
     40547     40544     40548         0         1
     40552     40549     40553         0         1
     40557     40554     40558         0         1
     40562     40559     40563         0         1
     40567     40564     40568         0         1
     40572     40569     40573         0         1
     40577     40574     40578         0         1
     40582     40579     40583         0         1
     40587     40584     40588         0         1
     40592     40589     40593         0         1
     40597     40594     40598         0         1
     40602     40599     40603         0         1
     40607     40604     40608         0         1
     40612     40609     40613         0         1
     40617     40614     40618         0         1
     40622     40619     40623         0         1
     40627     40624     40628         0         1
     40632     40629     40633         0         1
     40637     40634     40638         0         1
     40642     40639     40643         0         1
     40647     40644     40648         0         1
     40652     40649     40653         0         1
     40657     40654     40658         0         1
     40662     40659     40663         0         1
     40667     40664     40668         0         1
     40672     40669     40673         0         1
     40677     40674     40678         0         1
     40682     40679     40683         0         1
     40687     40684     40688         0         1
     40692     40689     40693         0         1
     40697     40694     40698         0         1
     40702     40699     40703         0         1
     40707     40704     40708         0         1
     40712     40709     40713         0         1
     40717     40714     40718         0         1
     40722     40719     40723         0         1
     40727     40724     40728         0         1
     40732     40729     40733         0         1
     40737     40734     40738         0         1
     40742     40739     40743         0         1
     40747     40744     40748         0         1
     40752     40749     40753         0         1
     40757     40754     40758         0         1
     40762     40759     40763         0         1
     40767     40764     40768         0         1
     40772     40769     40773         0         1
     40777     40774     40778         0         1
     40782     40779     40783         0         1
     40787     40784     40788         0         1
     40792     40789     40793         0         1
     40797     40794     40798         0         1
     40802     40799     40803         0         1
     40807     40804     40808         0         1
     40812     40809     40813         0         1
     40817     40814     40818         0         1
     40822     40819     40823         0         1
     40827     40824     40828         0         1
     40832     40829     40833         0         1
     40837     40834     40838         0         1
     40842     40839     40843         0         1
     40847     40844     40848         0         1
     40852     40849     40853         0         1
     40857     40854     40858         0         1
     40862     40859     40863         0         1
     40867     40864     40868         0         1
     40872     40869     40873         0         1
     40877     40874     40878         0         1
     40882     40879     40883         0         1
     40887     40884     40888         0         1
     40892     40889     40893         0         1
     40897     40894     40898         0         1
     40902     40899     40903         0         1
     40907     40904     40908         0         1
     40912     40909     40913         0         1
     40917     40914     40918         0         1
     40922     40919     40923         0         1
     40927     40924     40928         0         1
     40932     40929     40933         0         1
     40937     40934     40938         0         1
     40942     40939     40943         0         1
     40947     40944     40948         0         1
     40952     40949     40953         0         1
     40957     40954     40958         0         1
     40962     40959     40963         0         1
     40967     40964     40968         0         1
     40972     40969     40973         0         1
     40977     40974     40978         0         1
     40982     40979     40983         0         1
     40987     40984     40988         0         1
     40992     40989     40993         0         1
     40997     40994     40998         0         1
     41002     40999     41003         0         1
     41007     41004     41008         0         1
     41012     41009     41013         0         1
     41017     41014     41018         0         1
     41022     41019     41023         0         1
     41027     41024     41028         0         1
     41032     41029     41033         0         1
     41037     41034     41038         0         1
     41042     41039     41043         0         1
     41047     41044     41048         0         1
     41052     41049     41053         0         1
     41057     41054     41058         0         1
     41062     41059     41063         0         1
     41067     41064     41068         0         1
     41072     41069     41073         0         1
     41077     41074     41078         0         1
     41082     41079     41083         0         1
     41087     41084     41088         0         1
     41092     41089     41093         0         1
     41097     41094     41098         0         1
     41102     41099     41103         0         1
     41107     41104     41108         0         1
     41112     41109     41113         0         1
     41117     41114     41118         0         1
     41122     41119     41123         0         1
     41127     41124     41128         0         1
     41132     41129     41133         0         1
     41137     41134     41138         0         1
     41142     41139     41143         0         1
     41147     41144     41148         0         1
     41152     41149     41153         0         1
     41157     41154     41158         0         1
     41162     41159     41163         0         1
     41167     41164     41168         0         1
     41172     41169     41173         0         1
     41177     41174     41178         0         1
     41182     41179     41183         0         1
     41187     41184     41188         0         1
     41192     41189     41193         0         1
     41197     41194     41198         0         1
     41202     41199     41203         0         1
     41207     41204     41208         0         1
     41212     41209     41213         0         1
     41217     41214     41218         0         1
     41222     41219     41223         0         1
     41227     41224     41228         0         1
     41232     41229     41233         0         1
     41237     41234     41238         0         1
     41242     41239     41243         0         1
     41247     41244     41248         0         1
     41252     41249     41253         0         1
     41257     41254     41258         0         1
     41262     41259     41263         0         1
     41267     41264     41268         0         1
     41272     41269     41273         0         1
     41277     41274     41278         0         1
     41282     41279     41283         0         1
     41287     41284     41288         0         1
     41292     41289     41293         0         1
     41297     41294     41298         0         1
     41302     41299     41303         0         1
     41307     41304     41308         0         1
     41312     41309     41313         0         1
     41317     41314     41318         0         1
     41322     41319     41323         0         1
     41327     41324     41328         0         1
     41332     41329     41333         0         1
     41337     41334     41338         0         1
     41342     41339     41343         0         1
     41347     41344     41348         0         1
     41352     41349     41353         0         1
     41357     41354     41358         0         1
     41362     41359     41363         0         1
     41367     41364     41368         0         1
     41372     41369     41373         0         1
     41377     41374     41378         0         1
     41382     41379     41383         0         1
     41387     41384     41388         0         1
     41392     41389     41393         0         1
     41397     41394     41398         0         1
     41402     41399     41403         0         1
     41407     41404     41408         0         1
     41412     41409     41413         0         1
     41417     41414     41418         0         1
     41422     41419     41423         0         1
     41427     41424     41428         0         1
     41432     41429     41433         0         1
     41437     41434     41438         0         1
     41442     41439     41443         0         1
     41447     41444     41448         0         1
     41452     41449     41453         0         1
     41457     41454     41458         0         1
     41462     41459     41463         0         1
     41467     41464     41468         0         1
     41472     41469     41473         0         1
     41477     41474     41478         0         1
     41482     41479     41483         0         1
     41487     41484     41488         0         1
     41492     41489     41493         0         1
     41497     41494     41498         0         1
     41502     41499     41503         0         1
     41507     41504     41508         0         1
     41512     41509     41513         0         1
     41517     41514     41518         0         1
     41522     41519     41523         0         1
     41527     41524     41528         0         1
     41532     41529     41533         0         1
     41537     41534     41538         0         1
     41542     41539     41543         0         1
     41547     41544     41548         0         1
     41552     41549     41553         0         1
     41557     41554     41558         0         1
     41562     41559     41563         0         1
     41567     41564     41568         0         1
     41572     41569     41573         0         1
     41577     41574     41578         0         1
     41582     41579     41583         0         1
     41587     41584     41588         0         1
     41592     41589     41593         0         1
     41597     41594     41598         0         1
     41602     41599     41603         0         1
     41607     41604     41608         0         1
     41612     41609     41613         0         1
     41617     41614     41618         0         1
     41622     41619     41623         0         1
     41627     41624     41628         0         1
     41632     41629     41633         0         1
     41637     41634     41638         0         1
     41642     41639     41643         0         1
     41647     41644     41648         0         1
     41652     41649     41653         0         1
     41657     41654     41658         0         1
     41662     41659     41663         0         1
     41667     41664     41668         0         1
     41672     41669     41673         0         1
     41677     41674     41678         0         1
     41682     41679     41683         0         1
     41687     41684     41688         0         1
     41692     41689     41693         0         1
     41697     41694     41698         0         1
     41702     41699     41703         0         1
     41707     41704     41708         0         1
     41712     41709     41713         0         1
     41717     41714     41718         0         1
     41722     41719     41723         0         1
     41727     41724     41728         0         1
     41732     41729     41733         0         1
     41737     41734     41738         0         1
     41742     41739     41743         0         1
     41747     41744     41748         0         1
     41752     41749     41753         0         1
     41757     41754     41758         0         1
     41762     41759     41763         0         1
     41767     41764     41768         0         1
     41772     41769     41773         0         1
     41777     41774     41778         0         1
     41782     41779     41783         0         1
     41787     41784     41788         0         1
     41792     41789     41793         0         1
     41797     41794     41798         0         1
     41802     41799     41803         0         1
     41807     41804     41808         0         1
     41812     41809     41813         0         1
     41817     41814     41818         0         1
     41822     41819     41823         0         1
     41827     41824     41828         0         1
     41832     41829     41833         0         1
     41837     41834     41838         0         1
     41842     41839     41843         0         1
     41847     41844     41848         0         1
     41852     41849     41853         0         1
     41857     41854     41858         0         1
     41862     41859     41863         0         1
     41867     41864     41868         0         1
     41872     41869     41873         0         1
     41877     41874     41878         0         1
     41882     41879     41883         0         1
     41887     41884     41888         0         1
     41892     41889     41893         0         1
     41897     41894     41898         0         1
     41902     41899     41903         0         1
     41907     41904     41908         0         1
     41912     41909     41913         0         1
     41917     41914     41918         0         1
     41922     41919     41923         0         1
     41927     41924     41928         0         1
     41932     41929     41933         0         1
     41937     41934     41938         0         1
     41942     41939     41943         0         1
     41947     41944     41948         0         1
     41952     41949     41953         0         1
     41957     41954     41958         0         1
     41962     41959     41963         0         1
     41967     41964     41968         0         1
     41972     41969     41973         0         1
     41977     41974     41978         0         1
     41982     41979     41983         0         1
     41987     41984     41988         0         1
     41992     41989     41993         0         1
     41997     41994     41998         0         1
     42002     41999     42003         0         1
     42007     42004     42008         0         1
     42012     42009     42013         0         1
     42017     42014     42018         0         1
     42022     42019     42023         0         1
     42027     42024     42028         0         1
     42032     42029     42033         0         1
     42037     42034     42038         0         1
     42042     42039     42043         0         1
     42047     42044     42048         0         1
     42052     42049     42053         0         1
     42057     42054     42058         0         1
     42062     42059     42063         0         1
     42067     42064     42068         0         1
     42072     42069     42073         0         1
     42077     42074     42078         0         1
     42082     42079     42083         0         1
     42087     42084     42088         0         1
     42092     42089     42093         0         1
     42097     42094     42098         0         1
     42102     42099     42103         0         1
     42107     42104     42108         0         1
     42112     42109     42113         0         1
     42117     42114     42118         0         1
     42122     42119     42123         0         1
     42127     42124     42128         0         1
     42132     42129     42133         0         1
     42137     42134     42138         0         1
     42142     42139     42143         0         1
     42147     42144     42148         0         1
     42152     42149     42153         0         1
     42157     42154     42158         0         1
     42162     42159     42163         0         1
     42167     42164     42168         0         1
     42172     42169     42173         0         1
     42177     42174     42178         0         1
     42182     42179     42183         0         1
     42187     42184     42188         0         1
     42192     42189     42193         0         1
     42197     42194     42198         0         1
     42202     42199     42203         0         1
     42207     42204     42208         0         1
     42212     42209     42213         0         1
     42217     42214     42218         0         1
     42222     42219     42223         0         1
     42227     42224     42228         0         1
     42232     42229     42233         0         1
     42237     42234     42238         0         1
     42242     42239     42243         0         1
     42247     42244     42248         0         1
     42252     42249     42253         0         1
     42257     42254     42258         0         1
     42262     42259     42263         0         1
     42267     42264     42268         0         1
     42272     42269     42273         0         1
     42277     42274     42278         0         1
     42282     42279     42283         0         1
     42287     42284     42288         0         1
     42292     42289     42293         0         1
     42297     42294     42298         0         1
     42302     42299     42303         0         1
     42307     42304     42308         0         1
     42312     42309     42313         0         1
     42317     42314     42318         0         1
     42322     42319     42323         0         1
     42327     42324     42328         0         1
     42332     42329     42333         0         1
     42337     42334     42338         0         1
     42342     42339     42343         0         1
     42347     42344     42348         0         1
     42352     42349     42353         0         1
     42357     42354     42358         0         1
     42362     42359     42363         0         1
     42367     42364     42368         0         1
     42372     42369     42373         0         1
     42377     42374     42378         0         1
     42382     42379     42383         0         1
     42387     42384     42388         0         1
     42392     42389     42393         0         1
     42397     42394     42398         0         1
     42402     42399     42403         0         1
     42407     42404     42408         0         1
     42412     42409     42413         0         1
     42417     42414     42418         0         1
     42422     42419     42423         0         1
     42427     42424     42428         0         1
     42432     42429     42433         0         1
     42437     42434     42438         0         1
     42442     42439     42443         0         1
     42447     42444     42448         0         1
     42452     42449     42453         0         1
     42457     42454     42458         0         1
     42462     42459     42463         0         1
     42467     42464     42468         0         1
     42472     42469     42473         0         1
     42477     42474     42478         0         1
     42482     42479     42483         0         1
     42487     42484     42488         0         1
     42492     42489     42493         0         1
     42497     42494     42498         0         1
     42502     42499     42503         0         1
     42507     42504     42508         0         1
     42512     42509     42513         0         1
     42517     42514     42518         0         1
     42522     42519     42523         0         1
     42527     42524     42528         0         1
     42532     42529     42533         0         1
     42537     42534     42538         0         1
     42542     42539     42543         0         1
     42547     42544     42548         0         1
     42552     42549     42553         0         1
     42557     42554     42558         0         1
     42562     42559     42563         0         1
     42567     42564     42568         0         1
     42572     42569     42573         0         1
     42577     42574     42578         0         1
     42582     42579     42583         0         1
     42587     42584     42588         0         1
     42592     42589     42593         0         1
     42597     42594     42598         0         1
     42602     42599     42603         0         1
     42607     42604     42608         0         1
     42612     42609     42613         0         1
     42617     42614     42618         0         1
     42622     42619     42623         0         1
     42627     42624     42628         0         1
     42632     42629     42633         0         1
     42637     42634     42638         0         1
     42642     42639     42643         0         1
     42647     42644     42648         0         1
     42652     42649     42653         0         1
     42657     42654     42658         0         1
     42662     42659     42663         0         1
     42667     42664     42668         0         1
     42672     42669     42673         0         1
     42677     42674     42678         0         1
     42682     42679     42683         0         1
     42687     42684     42688         0         1
     42692     42689     42693         0         1
     42697     42694     42698         0         1
     42702     42699     42703         0         1
     42707     42704     42708         0         1
     42712     42709     42713         0         1
     42717     42714     42718         0         1
     42722     42719     42723         0         1
     42727     42724     42728         0         1
     42732     42729     42733         0         1
     42737     42734     42738         0         1
     42742     42739     42743         0         1
     42747     42744     42748         0         1
     42752     42749     42753         0         1
     42757     42754     42758         0         1
     42762     42759     42763         0         1
     42767     42764     42768         0         1
     42772     42769     42773         0         1
     42777     42774     42778         0         1
     42782     42779     42783         0         1
     42787     42784     42788         0         1
     42792     42789     42793         0         1
     42797     42794     42798         0         1
     42802     42799     42803         0         1
     42807     42804     42808         0         1
     42812     42809     42813         0         1
     42817     42814     42818         0         1
     42822     42819     42823         0         1
     42827     42824     42828         0         1
     42832     42829     42833         0         1
     42837     42834     42838         0         1
     42842     42839     42843         0         1
     42847     42844     42848         0         1
     42852     42849     42853         0         1
     42857     42854     42858         0         1
     42862     42859     42863         0         1
     42867     42864     42868         0         1
     42872     42869     42873         0         1
     42877     42874     42878         0         1
     42882     42879     42883         0         1
     42887     42884     42888         0         1
     42892     42889     42893         0         1
     42897     42894     42898         0         1
     42902     42899     42903         0         1
     42907     42904     42908         0         1
     42912     42909     42913         0         1
     42917     42914     42918         0         1
     42922     42919     42923         0         1
     42927     42924     42928         0         1
     42932     42929     42933         0         1
     42937     42934     42938         0         1
     42942     42939     42943         0         1
     42947     42944     42948         0         1
     42952     42949     42953         0         1
     42957     42954     42958         0         1
     42962     42959     42963         0         1
     42967     42964     42968         0         1
     42972     42969     42973         0         1
     42977     42974     42978         0         1
     42982     42979     42983         0         1
     42987     42984     42988         0         1
     42992     42989     42993         0         1
     42997     42994     42998         0         1
     43002     42999     43003         0         1
     43007     43004     43008         0         1
     43012     43009     43013         0         1
     43017     43014     43018         0         1
     43022     43019     43023         0         1
     43027     43024     43028         0         1
     43032     43029     43033         0         1
     43037     43034     43038         0         1
     43042     43039     43043         0         1
     43047     43044     43048         0         1
     43052     43049     43053         0         1
     43057     43054     43058         0         1
     43062     43059     43063         0         1
     43067     43064     43068         0         1
     43072     43069     43073         0         1
     43077     43074     43078         0         1
     43082     43079     43083         0         1
     43087     43084     43088         0         1
     43092     43089     43093         0         1
     43097     43094     43098         0         1
     43102     43099     43103         0         1
     43107     43104     43108         0         1
     43112     43109     43113         0         1
     43117     43114     43118         0         1
     43122     43119     43123         0         1
     43127     43124     43128         0         1
     43132     43129     43133         0         1
     43137     43134     43138         0         1
     43142     43139     43143         0         1
     43147     43144     43148         0         1
     43152     43149     43153         0         1
     43157     43154     43158         0         1
     43162     43159     43163         0         1
     43167     43164     43168         0         1
     43172     43169     43173         0         1
     43177     43174     43178         0         1
     43182     43179     43183         0         1
     43187     43184     43188         0         1
     43192     43189     43193         0         1
     43197     43194     43198         0         1
     43202     43199     43203         0         1
     43207     43204     43208         0         1
     43212     43209     43213         0         1
     43217     43214     43218         0         1
     43222     43219     43223         0         1
     43227     43224     43228         0         1
     43232     43229     43233         0         1
     43237     43234     43238         0         1
     43242     43239     43243         0         1
     43247     43244     43248         0         1
     43252     43249     43253         0         1
     43257     43254     43258         0         1
     43262     43259     43263         0         1
     43267     43264     43268         0         1
     43272     43269     43273         0         1
     43277     43274     43278         0         1
     43282     43279     43283         0         1
     43287     43284     43288         0         1
     43292     43289     43293         0         1
     43297     43294     43298         0         1
     43302     43299     43303         0         1
     43307     43304     43308         0         1
     43312     43309     43313         0         1
     43317     43314     43318         0         1
     43322     43319     43323         0         1
     43327     43324     43328         0         1
     43332     43329     43333         0         1
     43337     43334     43338         0         1
     43342     43339     43343         0         1
     43347     43344     43348         0         1
     43352     43349     43353         0         1
     43357     43354     43358         0         1
     43362     43359     43363         0         1
     43367     43364     43368         0         1
     43372     43369     43373         0         1
     43377     43374     43378         0         1
     43382     43379     43383         0         1
     43387     43384     43388         0         1
     43392     43389     43393         0         1
     43397     43394     43398         0         1
     43402     43399     43403         0         1
     43407     43404     43408         0         1
     43412     43409     43413         0         1
     43417     43414     43418         0         1
     43422     43419     43423         0         1
     43427     43424     43428         0         1
     43432     43429     43433         0         1
     43437     43434     43438         0         1
     43442     43439     43443         0         1
     43447     43444     43448         0         1
     43452     43449     43453         0         1
     43457     43454     43458         0         1
     43462     43459     43463         0         1
     43467     43464     43468         0         1
     43472     43469     43473         0         1
     43477     43474     43478         0         1
     43482     43479     43483         0         1
     43487     43484     43488         0         1
     43492     43489     43493         0         1
     43497     43494     43498         0         1
     43502     43499     43503         0         1
     43507     43504     43508         0         1
     43512     43509     43513         0         1
     43517     43514     43518         0         1
     43522     43519     43523         0         1
     43527     43524     43528         0         1
     43532     43529     43533         0         1
     43537     43534     43538         0         1
     43542     43539     43543         0         1
     43547     43544     43548         0         1
     43552     43549     43553         0         1
     43557     43554     43558         0         1
     43562     43559     43563         0         1
     43567     43564     43568         0         1
     43572     43569     43573         0         1
     43577     43574     43578         0         1
     43582     43579     43583         0         1
     43587     43584     43588         0         1
     43592     43589     43593         0         1
     43597     43594     43598         0         1
     43602     43599     43603         0         1
     43607     43604     43608         0         1
     43612     43609     43613         0         1
     43617     43614     43618         0         1
     43622     43619     43623         0         1
     43627     43624     43628         0         1
     43632     43629     43633         0         1
     43637     43634     43638         0         1
     43642     43639     43643         0         1
     43647     43644     43648         0         1
     43652     43649     43653         0         1
     43657     43654     43658         0         1
     43662     43659     43663         0         1
     43667     43664     43668         0         1
     43672     43669     43673         0         1
     43677     43674     43678         0         1
     43682     43679     43683         0         1
     43687     43684     43688         0         1
     43692     43689     43693         0         1
     43697     43694     43698         0         1
     43702     43699     43703         0         1
     43707     43704     43708         0         1
     43712     43709     43713         0         1
     43717     43714     43718         0         1
     43722     43719     43723         0         1
     43727     43724     43728         0         1
     43732     43729     43733         0         1
     43737     43734     43738         0         1
     43742     43739     43743         0         1
     43747     43744     43748         0         1
     43752     43749     43753         0         1
     43757     43754     43758         0         1
     43762     43759     43763         0         1
     43767     43764     43768         0         1
     43772     43769     43773         0         1
     43777     43774     43778         0         1
     43782     43779     43783         0         1
     43787     43784     43788         0         1
     43792     43789     43793         0         1
     43797     43794     43798         0         1
     43802     43799     43803         0         1
     43807     43804     43808         0         1
     43812     43809     43813         0         1
     43817     43814     43818         0         1
     43822     43819     43823         0         1
     43827     43824     43828         0         1
     43832     43829     43833         0         1
     43837     43834     43838         0         1
     43842     43839     43843         0         1
     43847     43844     43848         0         1
     43852     43849     43853         0         1
     43857     43854     43858         0         1
     43862     43859     43863         0         1
     43867     43864     43868         0         1
     43872     43869     43873         0         1
     43877     43874     43878         0         1
     43882     43879     43883         0         1
     43887     43884     43888         0         1
     43892     43889     43893         0         1
     43897     43894     43898         0         1
     43902     43899     43903         0         1
     43907     43904     43908         0         1
     43912     43909     43913         0         1
     43917     43914     43918         0         1
     43922     43919     43923         0         1
     43927     43924     43928         0         1
     43932     43929     43933         0         1
     43937     43934     43938         0         1
     43942     43939     43943         0         1
     43947     43944     43948         0         1
     43952     43949     43953         0         1
     43957     43954     43958         0         1
     43962     43959     43963         0         1
     43967     43964     43968         0         1
     43972     43969     43973         0         1
     43977     43974     43978         0         1
     43982     43979     43983         0         1
     43987     43984     43988         0         1
     43992     43989     43993         0         1
     43997     43994     43998         0         1
     44002     43999     44003         0         1
     44007     44004     44008         0         1
     44012     44009     44013         0         1
     44017     44014     44018         0         1
     44022     44019     44023         0         1
     44027     44024     44028         0         1
     44032     44029     44033         0         1
     44037     44034     44038         0         1
     44042     44039     44043         0         1
     44047     44044     44048         0         1
     44052     44049     44053         0         1
     44057     44054     44058         0         1
     44062     44059     44063         0         1
     44067     44064     44068         0         1
     44072     44069     44073         0         1
     44077     44074     44078         0         1
     44082     44079     44083         0         1
     44087     44084     44088         0         1
     44092     44089     44093         0         1
     44097     44094     44098         0         1
     44102     44099     44103         0         1
     44107     44104     44108         0         1
     44112     44109     44113         0         1
     44117     44114     44118         0         1
     44122     44119     44123         0         1
     44127     44124     44128         0         1
     44132     44129     44133         0         1
     44137     44134     44138         0         1
     44142     44139     44143         0         1
     44147     44144     44148         0         1
     44152     44149     44153         0         1
     44157     44154     44158         0         1
     44162     44159     44163         0         1
     44167     44164     44168         0         1
     44172     44169     44173         0         1
     44177     44174     44178         0         1
     44182     44179     44183         0         1
     44187     44184     44188         0         1
     44192     44189     44193         0         1
     44197     44194     44198         0         1
     44202     44199     44203         0         1
     44207     44204     44208         0         1
     44212     44209     44213         0         1
     44217     44214     44218         0         1
     44222     44219     44223         0         1
     44227     44224     44228         0         1
     44232     44229     44233         0         1
     44237     44234     44238         0         1
     44242     44239     44243         0         1
     44247     44244     44248         0         1
     44252     44249     44253         0         1
     44257     44254     44258         0         1
     44262     44259     44263         0         1
     44267     44264     44268         0         1
     44272     44269     44273         0         1
     44277     44274     44278         0         1
     44282     44279     44283         0         1
     44287     44284     44288         0         1
     44292     44289     44293         0         1
     44297     44294     44298         0         1
     44302     44299     44303         0         1
     44307     44304     44308         0         1
     44312     44309     44313         0         1
     44317     44314     44318         0         1
     44322     44319     44323         0         1
     44327     44324     44328         0         1
     44332     44329     44333         0         1
     44337     44334     44338         0         1
     44342     44339     44343         0         1
     44347     44344     44348         0         1
     44352     44349     44353         0         1
     44357     44354     44358         0         1
     44362     44359     44363         0         1
     44367     44364     44368         0         1
     44372     44369     44373         0         1
     44377     44374     44378         0         1
     44382     44379     44383         0         1
     44387     44384     44388         0         1
     44392     44389     44393         0         1
     44397     44394     44398         0         1
     44402     44399     44403         0         1
     44407     44404     44408         0         1
     44412     44409     44413         0         1
     44417     44414     44418         0         1
     44422     44419     44423         0         1
     44427     44424     44428         0         1
     44432     44429     44433         0         1
     44437     44434     44438         0         1
     44442     44439     44443         0         1
     44447     44444     44448         0         1
     44452     44449     44453         0         1
     44457     44454     44458         0         1
     44462     44459     44463         0         1
     44467     44464     44468         0         1
     44472     44469     44473         0         1
     44477     44474     44478         0         1
     44482     44479     44483         0         1
     44487     44484     44488         0         1
     44492     44489     44493         0         1
     44497     44494     44498         0         1
     44502     44499     44503         0         1
     44507     44504     44508         0         1
     44512     44509     44513         0         1
     44517     44514     44518         0         1
     44522     44519     44523         0         1
     44527     44524     44528         0         1
     44532     44529     44533         0         1
     44537     44534     44538         0         1
     44542     44539     44543         0         1
     44547     44544     44548         0         1
     44552     44549     44553         0         1
     44557     44554     44558         0         1
     44562     44559     44563         0         1
     44567     44564     44568         0         1
     44572     44569     44573         0         1
     44577     44574     44578         0         1
     44582     44579     44583         0         1
     44587     44584     44588         0         1
     44592     44589     44593         0         1
     44597     44594     44598         0         1
     44602     44599     44603         0         1
     44607     44604     44608         0         1
     44612     44609     44613         0         1
     44617     44614     44618         0         1
     44622     44619     44623         0         1
     44627     44624     44628         0         1
     44632     44629     44633         0         1
     44637     44634     44638         0         1
     44642     44639     44643         0         1
     44647     44644     44648         0         1
     44652     44649     44653         0         1
     44657     44654     44658         0         1
     44662     44659     44663         0         1
     44667     44664     44668         0         1
     44672     44669     44673         0         1
     44677     44674     44678         0         1
     44682     44679     44683         0         1
     44687     44684     44688         0         1
     44692     44689     44693         0         1
     44697     44694     44698         0         1
     44702     44699     44703         0         1
     44707     44704     44708         0         1
     44712     44709     44713         0         1
     44717     44714     44718         0         1
     44722     44719     44723         0         1
     44727     44724     44728         0         1
     44732     44729     44733         0         1
     44737     44734     44738         0         1
     44742     44739     44743         0         1
     44747     44744     44748         0         1
     44752     44749     44753         0         1
     44757     44754     44758         0         1
     44762     44759     44763         0         1
     44767     44764     44768         0         1
     44772     44769     44773         0         1
     44777     44774     44778         0         1
     44782     44779     44783         0         1
     44787     44784     44788         0         1
     44792     44789     44793         0         1
     44797     44794     44798         0         1
     44802     44799     44803         0         1
     44807     44804     44808         0         1
     44812     44809     44813         0         1
     44817     44814     44818         0         1
     44822     44819     44823         0         1
     44827     44824     44828         0         1
     44832     44829     44833         0         1
     44837     44834     44838         0         1
     44842     44839     44843         0         1
     44847     44844     44848         0         1
     44852     44849     44853         0         1
     44857     44854     44858         0         1
     44862     44859     44863         0         1
     44867     44864     44868         0         1
     44872     44869     44873         0         1
     44877     44874     44878         0         1
     44882     44879     44883         0         1
     44887     44884     44888         0         1
     44892     44889     44893         0         1
     44897     44894     44898         0         1
     44902     44899     44903         0         1
     44907     44904     44908         0         1
     44912     44909     44913         0         1
     44917     44914     44918         0         1
     44922     44919     44923         0         1
     44927     44924     44928         0         1
     44932     44929     44933         0         1
     44937     44934     44938         0         1
     44942     44939     44943         0         1
     44947     44944     44948         0         1
     44952     44949     44953         0         1
     44957     44954     44958         0         1
     44962     44959     44963         0         1
     44967     44964     44968         0         1
     44972     44969     44973         0         1
     44977     44974     44978         0         1
     44982     44979     44983         0         1
     44987     44984     44988         0         1
     44992     44989     44993         0         1
     44997     44994     44998         0         1
     45002     44999     45003         0         1
     45007     45004     45008         0         1
     45012     45009     45013         0         1
     45017     45014     45018         0         1
     45022     45019     45023         0         1
     45027     45024     45028         0         1
     45032     45029     45033         0         1
     45037     45034     45038         0         1
     45042     45039     45043         0         1
     45047     45044     45048         0         1
     45052     45049     45053         0         1
     45057     45054     45058         0         1
     45062     45059     45063         0         1
     45067     45064     45068         0         1
     45072     45069     45073         0         1
     45077     45074     45078         0         1
     45082     45079     45083         0         1
     45087     45084     45088         0         1
     45092     45089     45093         0         1
     45097     45094     45098         0         1
     45102     45099     45103         0         1
     45107     45104     45108         0         1
     45112     45109     45113         0         1
     45117     45114     45118         0         1
     45122     45119     45123         0         1
     45127     45124     45128         0         1
     45132     45129     45133         0         1
     45137     45134     45138         0         1
     45142     45139     45143         0         1
     45147     45144     45148         0         1
     45152     45149     45153         0         1
     45157     45154     45158         0         1
     45162     45159     45163         0         1
     45167     45164     45168         0         1
     45172     45169     45173         0         1
     45177     45174     45178         0         1
     45182     45179     45183         0         1
     45187     45184     45188         0         1
     45192     45189     45193         0         1
     45197     45194     45198         0         1
     45202     45199     45203         0         1
     45207     45204     45208         0         1
     45212     45209     45213         0         1
     45217     45214     45218         0         1
     45222     45219     45223         0         1
     45227     45224     45228         0         1
     45232     45229     45233         0         1
     45237     45234     45238         0         1
     45242     45239     45243         0         1
     45247     45244     45248         0         1
     45252     45249     45253         0         1
     45257     45254     45258         0         1
     45262     45259     45263         0         1
     45267     45264     45268         0         1
     45272     45269     45273         0         1
     45277     45274     45278         0         1
     45282     45279     45283         0         1
     45287     45284     45288         0         1
     45292     45289     45293         0         1
     45297     45294     45298         0         1
     45302     45299     45303         0         1
     45307     45304     45308         0         1
     45312     45309     45313         0         1
     45317     45314     45318         0         1
     45322     45319     45323         0         1
     45327     45324     45328         0         1
     45332     45329     45333         0         1
     45337     45334     45338         0         1
     45342     45339     45343         0         1
     45347     45344     45348         0         1
     45352     45349     45353         0         1
     45357     45354     45358         0         1
     45362     45359     45363         0         1
     45367     45364     45368         0         1
     45372     45369     45373         0         1
     45377     45374     45378         0         1
     45382     45379     45383         0         1
     45387     45384     45388         0         1
     45392     45389     45393         0         1
     45397     45394     45398         0         1
     45402     45399     45403         0         1
     45407     45404     45408         0         1
     45412     45409     45413         0         1
     45417     45414     45418         0         1
     45422     45419     45423         0         1
     45427     45424     45428         0         1
     45432     45429     45433         0         1
     45437     45434     45438         0         1
     45442     45439     45443         0         1
     45447     45444     45448         0         1
     45452     45449     45453         0         1
     45457     45454     45458         0         1
     45462     45459     45463         0         1
     45467     45464     45468         0         1
     45472     45469     45473         0         1
     45477     45474     45478         0         1
     45482     45479     45483         0         1
     45487     45484     45488         0         1
     45492     45489     45493         0         1
     45497     45494     45498         0         1
     45502     45499     45503         0         1
     45507     45504     45508         0         1
     45512     45509     45513         0         1
     45517     45514     45518         0         1
     45522     45519     45523         0         1
     45527     45524     45528         0         1
     45532     45529     45533         0         1
     45537     45534     45538         0         1
     45542     45539     45543         0         1
     45547     45544     45548         0         1
     45552     45549     45553         0         1
     45557     45554     45558         0         1
     45562     45559     45563         0         1
     45567     45564     45568         0         1
     45572     45569     45573         0         1
     45577     45574     45578         0         1
     45582     45579     45583         0         1
     45587     45584     45588         0         1
     45592     45589     45593         0         1
     45597     45594     45598         0         1
     45602     45599     45603         0         1
     45607     45604     45608         0         1
     45612     45609     45613         0         1
     45617     45614     45618         0         1
     45622     45619     45623         0         1
     45627     45624     45628         0         1
     45632     45629     45633         0         1
     45637     45634     45638         0         1
     45642     45639     45643         0         1
     45647     45644     45648         0         1
     45652     45649     45653         0         1
     45657     45654     45658         0         1
     45662     45659     45663         0         1
     45667     45664     45668         0         1
     45672     45669     45673         0         1
     45677     45674     45678         0         1
     45682     45679     45683         0         1
     45687     45684     45688         0         1
     45692     45689     45693         0         1
     45697     45694     45698         0         1
     45702     45699     45703         0         1
     45707     45704     45708         0         1
     45712     45709     45713         0         1
     45717     45714     45718         0         1
     45722     45719     45723         0         1
     45727     45724     45728         0         1
     45732     45729     45733         0         1
     45737     45734     45738         0         1
     45742     45739     45743         0         1
     45747     45744     45748         0         1
     45752     45749     45753         0         1
     45757     45754     45758         0         1
     45762     45759     45763         0         1
     45767     45764     45768         0         1
     45772     45769     45773         0         1
     45777     45774     45778         0         1
     45782     45779     45783         0         1
     45787     45784     45788         0         1
     45792     45789     45793         0         1
     45797     45794     45798         0         1
     45802     45799     45803         0         1
     45807     45804     45808         0         1
     45812     45809     45813         0         1
     45817     45814     45818         0         1
     45822     45819     45823         0         1
     45827     45824     45828         0         1
     45832     45829     45833         0         1
     45837     45834     45838         0         1
     45842     45839     45843         0         1
     45847     45844     45848         0         1
     45852     45849     45853         0         1
     45857     45854     45858         0         1
     45862     45859     45863         0         1
     45867     45864     45868         0         1
     45872     45869     45873         0         1
     45877     45874     45878         0         1
     45882     45879     45883         0         1
     45887     45884     45888         0         1
     45892     45889     45893         0         1
     45897     45894     45898         0         1
     45902     45899     45903         0         1
     45907     45904     45908         0         1
     45912     45909     45913         0         1
     45917     45914     45918         0         1
     45922     45919     45923         0         1
     45927     45924     45928         0         1
     45932     45929     45933         0         1
     45937     45934     45938         0         1
     45942     45939     45943         0         1
     45947     45944     45948         0         1
     45952     45949     45953         0         1
     45957     45954     45958         0         1
     45962     45959     45963         0         1
     45967     45964     45968         0         1
     45972     45969     45973         0         1
     45977     45974     45978         0         1
     45982     45979     45983         0         1
     45987     45984     45988         0         1
     45992     45989     45993         0         1
     45997     45994     45998         0         1
     46002     45999     46003         0         1
     46007     46004     46008         0         1
     46012     46009     46013         0         1
     46017     46014     46018         0         1
     46022     46019     46023         0         1
     46027     46024     46028         0         1
     46032     46029     46033         0         1
     46037     46034     46038         0         1
     46042     46039     46043         0         1
     46047     46044     46048         0         1
     46052     46049     46053         0         1
     46057     46054     46058         0         1
     46062     46059     46063         0         1
     46067     46064     46068         0         1
     46072     46069     46073         0         1
     46077     46074     46078         0         1
     46082     46079     46083         0         1
     46087     46084     46088         0         1
     46092     46089     46093         0         1
     46097     46094     46098         0         1
     46102     46099     46103         0         1
     46107     46104     46108         0         1
     46112     46109     46113         0         1
     46117     46114     46118         0         1
     46122     46119     46123         0         1
     46127     46124     46128         0         1
     46132     46129     46133         0         1
     46137     46134     46138         0         1
     46142     46139     46143         0         1
     46147     46144     46148         0         1
     46152     46149     46153         0         1
     46157     46154     46158         0         1
     46162     46159     46163         0         1
     46167     46164     46168         0         1
     46172     46169     46173         0         1
     46177     46174     46178         0         1
     46182     46179     46183         0         1
     46187     46184     46188         0         1
     46192     46189     46193         0         1
     46197     46194     46198         0         1
     46202     46199     46203         0         1
     46207     46204     46208         0         1
     46212     46209     46213         0         1
     46217     46214     46218         0         1
     46222     46219     46223         0         1
     46227     46224     46228         0         1
     46232     46229     46233         0         1
     46237     46234     46238         0         1
     46242     46239     46243         0         1
     46247     46244     46248         0         1
     46252     46249     46253         0         1
     46257     46254     46258         0         1
     46262     46259     46263         0         1
     46267     46264     46268         0         1
     46272     46269     46273         0         1
     46277     46274     46278         0         1
     46282     46279     46283         0         1
     46287     46284     46288         0         1
     46292     46289     46293         0         1
     46297     46294     46298         0         1
     46302     46299     46303         0         1
     46307     46304     46308         0         1
     46312     46309     46313         0         1
     46317     46314     46318         0         1
     46322     46319     46323         0         1
     46327     46324     46328         0         1
     46332     46329     46333         0         1
     46337     46334     46338         0         1
     46342     46339     46343         0         1
     46347     46344     46348         0         1
     46352     46349     46353         0         1
     46357     46354     46358         0         1
     46362     46359     46363         0         1
     46367     46364     46368         0         1
     46372     46369     46373         0         1
     46377     46374     46378         0         1
     46382     46379     46383         0         1
     46387     46384     46388         0         1
     46392     46389     46393         0         1
     46397     46394     46398         0         1
     46402     46399     46403         0         1
     46407     46404     46408         0         1
     46412     46409     46413         0         1
     46417     46414     46418         0         1
     46422     46419     46423         0         1
     46427     46424     46428         0         1
     46432     46429     46433         0         1
     46437     46434     46438         0         1
     46442     46439     46443         0         1
     46447     46444     46448         0         1
     46452     46449     46453         0         1
     46457     46454     46458         0         1
     46462     46459     46463         0         1
     46467     46464     46468         0         1
     46472     46469     46473         0         1
     46477     46474     46478         0         1
     46482     46479     46483         0         1
     46487     46484     46488         0         1
     46492     46489     46493         0         1
     46497     46494     46498         0         1
     46502     46499     46503         0         1
     46507     46504     46508         0         1
     46512     46509     46513         0         1
     46517     46514     46518         0         1
     46522     46519     46523         0         1
     46527     46524     46528         0         1
     46532     46529     46533         0         1
     46537     46534     46538         0         1
     46542     46539     46543         0         1
     46547     46544     46548         0         1
     46552     46549     46553         0         1
     46557     46554     46558         0         1
     46562     46559     46563         0         1
     46567     46564     46568         0         1
     46572     46569     46573         0         1
     46577     46574     46578         0         1
     46582     46579     46583         0         1
     46587     46584     46588         0         1
     46592     46589     46593         0         1
     46597     46594     46598         0         1
     46602     46599     46603         0         1
     46607     46604     46608         0         1
     46612     46609     46613         0         1
     46617     46614     46618         0         1
     46622     46619     46623         0         1
     46627     46624     46628         0         1
     46632     46629     46633         0         1
     46637     46634     46638         0         1
     46642     46639     46643         0         1
     46647     46644     46648         0         1
     46652     46649     46653         0         1
     46657     46654     46658         0         1
     46662     46659     46663         0         1
     46667     46664     46668         0         1
     46672     46669     46673         0         1
     46677     46674     46678         0         1
     46682     46679     46683         0         1
     46687     46684     46688         0         1
     46692     46689     46693         0         1
     46697     46694     46698         0         1
     46702     46699     46703         0         1
     46707     46704     46708         0         1
     46712     46709     46713         0         1
     46717     46714     46718         0         1
     46722     46719     46723         0         1
     46727     46724     46728         0         1
     46732     46729     46733         0         1
     46737     46734     46738         0         1
     46742     46739     46743         0         1
     46747     46744     46748         0         1
     46752     46749     46753         0         1
     46757     46754     46758         0         1
     46762     46759     46763         0         1
     46767     46764     46768         0         1
     46772     46769     46773         0         1
     46777     46774     46778         0         1
     46782     46779     46783         0         1
     46787     46784     46788         0         1
     46792     46789     46793         0         1
     46797     46794     46798         0         1
     46802     46799     46803         0         1
     46807     46804     46808         0         1
     46812     46809     46813         0         1
     46817     46814     46818         0         1
     46822     46819     46823         0         1
     46827     46824     46828         0         1
     46832     46829     46833         0         1
     46837     46834     46838         0         1
     46842     46839     46843         0         1
     46847     46844     46848         0         1
     46852     46849     46853         0         1
     46857     46854     46858         0         1
     46862     46859     46863         0         1
     46867     46864     46868         0         1
     46872     46869     46873         0         1
     46877     46874     46878         0         1
     46882     46879     46883         0         1
     46887     46884     46888         0         1
     46892     46889     46893         0         1
     46897     46894     46898         0         1
     46902     46899     46903         0         1
     46907     46904     46908         0         1
     46912     46909     46913         0         1
     46917     46914     46918         0         1
     46922     46919     46923         0         1
     46927     46924     46928         0         1
     46932     46929     46933         0         1
     46937     46934     46938         0         1
     46942     46939     46943         0         1
     46947     46944     46948         0         1
     46952     46949     46953         0         1
     46957     46954     46958         0         1
     46962     46959     46963         0         1
     46967     46964     46968         0         1
     46972     46969     46973         0         1
     46977     46974     46978         0         1
     46982     46979     46983         0         1
     46987     46984     46988         0         1
     46992     46989     46993         0         1
     46997     46994     46998         0         1
     47002     46999     47003         0         1
     47007     47004     47008         0         1
     47012     47009     47013         0         1
     47017     47014     47018         0         1
     47022     47019     47023         0         1
     47027     47024     47028         0         1
     47032     47029     47033         0         1
     47037     47034     47038         0         1
     47042     47039     47043         0         1
     47047     47044     47048         0         1
     47052     47049     47053         0         1
     47057     47054     47058         0         1
     47062     47059     47063         0         1
     47067     47064     47068         0         1
     47072     47069     47073         0         1
     47077     47074     47078         0         1
     47082     47079     47083         0         1
     47087     47084     47088         0         1
     47092     47089     47093         0         1
     47097     47094     47098         0         1
     47102     47099     47103         0         1
     47107     47104     47108         0         1
     47112     47109     47113         0         1
     47117     47114     47118         0         1
     47122     47119     47123         0         1
     47127     47124     47128         0         1
     47132     47129     47133         0         1
     47137     47134     47138         0         1
     47142     47139     47143         0         1
     47147     47144     47148         0         1
     47152     47149     47153         0         1
     47157     47154     47158         0         1
     47162     47159     47163         0         1
     47167     47164     47168         0         1
     47172     47169     47173         0         1
     47177     47174     47178         0         1
     47182     47179     47183         0         1
     47187     47184     47188         0         1
     47192     47189     47193         0         1
     47197     47194     47198         0         1
     47202     47199     47203         0         1
     47207     47204     47208         0         1
     47212     47209     47213         0         1
     47217     47214     47218         0         1
     47222     47219     47223         0         1
     47227     47224     47228         0         1
     47232     47229     47233         0         1
     47237     47234     47238         0         1
     47242     47239     47243         0         1
     47247     47244     47248         0         1
     47252     47249     47253         0         1
     47257     47254     47258         0         1
     47262     47259     47263         0         1
     47267     47264     47268         0         1
     47272     47269     47273         0         1
     47277     47274     47278         0         1
     47282     47279     47283         0         1
     47287     47284     47288         0         1
     47292     47289     47293         0         1
     47297     47294     47298         0         1
     47302     47299     47303         0         1
     47307     47304     47308         0         1
     47312     47309     47313         0         1
     47317     47314     47318         0         1
     47322     47319     47323         0         1
     47327     47324     47328         0         1
     47332     47329     47333         0         1
     47337     47334     47338         0         1
     47342     47339     47343         0         1
     47347     47344     47348         0         1
     47352     47349     47353         0         1
     47357     47354     47358         0         1
     47362     47359     47363         0         1
     47367     47364     47368         0         1
     47372     47369     47373         0         1
     47377     47374     47378         0         1
     47382     47379     47383         0         1
     47387     47384     47388         0         1
     47392     47389     47393         0         1
     47397     47394     47398         0         1
     47402     47399     47403         0         1
     47407     47404     47408         0         1
     47412     47409     47413         0         1
     47417     47414     47418         0         1
     47422     47419     47423         0         1
     47427     47424     47428         0         1
     47432     47429     47433         0         1
     47437     47434     47438         0         1
     47442     47439     47443         0         1
     47447     47444     47448         0         1
     47452     47449     47453         0         1
     47457     47454     47458         0         1
     47462     47459     47463         0         1
     47467     47464     47468         0         1
     47472     47469     47473         0         1
     47477     47474     47478         0         1
     47482     47479     47483         0         1
     47487     47484     47488         0         1
     47492     47489     47493         0         1
     47497     47494     47498         0         1
     47502     47499     47503         0         1
     47507     47504     47508         0         1
     47512     47509     47513         0         1
     47517     47514     47518         0         1
     47522     47519     47523         0         1
     47527     47524     47528         0         1
     47532     47529     47533         0         1
     47537     47534     47538         0         1
     47542     47539     47543         0         1
     47547     47544     47548         0         1
     47552     47549     47553         0         1
     47557     47554     47558         0         1
     47562     47559     47563         0         1
     47567     47564     47568         0         1
     47572     47569     47573         0         1
     47577     47574     47578         0         1
     47582     47579     47583         0         1
     47587     47584     47588         0         1
     47592     47589     47593         0         1
     47597     47594     47598         0         1
     47602     47599     47603         0         1
     47607     47604     47608         0         1
     47612     47609     47613         0         1
     47617     47614     47618         0         1
     47622     47619     47623         0         1
     47627     47624     47628         0         1
     47632     47629     47633         0         1
     47637     47634     47638         0         1
     47642     47639     47643         0         1
     47647     47644     47648         0         1
     47652     47649     47653         0         1
     47657     47654     47658         0         1
     47662     47659     47663         0         1
     47667     47664     47668         0         1
     47672     47669     47673         0         1
     47677     47674     47678         0         1
     47682     47679     47683         0         1
     47687     47684     47688         0         1
     47692     47689     47693         0         1
     47697     47694     47698         0         1
     47702     47699     47703         0         1
     47707     47704     47708         0         1
     47712     47709     47713         0         1
     47717     47714     47718         0         1
     47722     47719     47723         0         1
     47727     47724     47728         0         1
     47732     47729     47733         0         1
     47737     47734     47738         0         1
     47742     47739     47743         0         1
     47747     47744     47748         0         1
     47752     47749     47753         0         1
     47757     47754     47758         0         1
     47762     47759     47763         0         1
     47767     47764     47768         0         1
     47772     47769     47773         0         1
     47777     47774     47778         0         1
     47782     47779     47783         0         1
     47787     47784     47788         0         1
     47792     47789     47793         0         1
     47797     47794     47798         0         1
     47802     47799     47803         0         1
     47807     47804     47808         0         1
     47812     47809     47813         0         1
     47817     47814     47818         0         1
     47822     47819     47823         0         1
     47827     47824     47828         0         1
     47832     47829     47833         0         1
     47837     47834     47838         0         1
     47842     47839     47843         0         1
     47847     47844     47848         0         1
     47852     47849     47853         0         1
     47857     47854     47858         0         1
     47862     47859     47863         0         1
     47867     47864     47868         0         1
     47872     47869     47873         0         1
     47877     47874     47878         0         1
     47882     47879     47883         0         1
     47887     47884     47888         0         1
     47892     47889     47893         0         1
     47897     47894     47898         0         1
     47902     47899     47903         0         1
     47907     47904     47908         0         1
     47912     47909     47913         0         1
     47917     47914     47918         0         1
     47922     47919     47923         0         1
     47927     47924     47928         0         1
     47932     47929     47933         0         1
     47937     47934     47938         0         1
     47942     47939     47943         0         1
     47947     47944     47948         0         1
     47952     47949     47953         0         1
     47957     47954     47958         0         1
     47962     47959     47963         0         1
     47967     47964     47968         0         1
     47972     47969     47973         0         1
     47977     47974     47978         0         1
     47982     47979     47983         0         1
     47987     47984     47988         0         1
     47992     47989     47993         0         1
     47997     47994     47998         0         1
     48002     47999     48003         0         1
     48007     48004     48008         0         1
     48012     48009     48013         0         1
     48017     48014     48018         0         1
     48022     48019     48023         0         1
     48027     48024     48028         0         1
     48032     48029     48033         0         1
     48037     48034     48038         0         1
     48042     48039     48043         0         1
     48047     48044     48048         0         1
     48052     48049     48053         0         1
     48057     48054     48058         0         1
     48062     48059     48063         0         1
     48067     48064     48068         0         1
     48072     48069     48073         0         1
     48077     48074     48078         0         1
     48082     48079     48083         0         1
     48087     48084     48088         0         1
     48092     48089     48093         0         1
     48097     48094     48098         0         1
     48102     48099     48103         0         1
     48107     48104     48108         0         1
     48112     48109     48113         0         1
     48117     48114     48118         0         1
     48122     48119     48123         0         1
     48127     48124     48128         0         1
     48132     48129     48133         0         1
     48137     48134     48138         0         1
     48142     48139     48143         0         1
     48147     48144     48148         0         1
     48152     48149     48153         0         1
     48157     48154     48158         0         1
     48162     48159     48163         0         1
     48167     48164     48168         0         1
     48172     48169     48173         0         1
     48177     48174     48178         0         1
     48182     48179     48183         0         1
     48187     48184     48188         0         1
     48192     48189     48193         0         1
     48197     48194     48198         0         1
     48202     48199     48203         0         1
     48207     48204     48208         0         1
     48212     48209     48213         0         1
     48217     48214     48218         0         1
     48222     48219     48223         0         1
     48227     48224     48228         0         1
     48232     48229     48233         0         1
     48237     48234     48238         0         1
     48242     48239     48243         0         1
     48247     48244     48248         0         1
     48252     48249     48253         0         1
     48257     48254     48258         0         1
     48262     48259     48263         0         1
     48267     48264     48268         0         1
     48272     48269     48273         0         1
     48277     48274     48278         0         1
     48282     48279     48283         0         1
     48287     48284     48288         0         1
     48292     48289     48293         0         1
     48297     48294     48298         0         1
     48302     48299     48303         0         1
     48307     48304     48308         0         1
     48312     48309     48313         0         1
     48317     48314     48318         0         1
     48322     48319     48323         0         1
     48327     48324     48328         0         1
     48332     48329     48333         0         1
     48337     48334     48338         0         1
     48342     48339     48343         0         1
     48347     48344     48348         0         1
     48352     48349     48353         0         1
     48357     48354     48358         0         1
     48362     48359     48363         0         1
     48367     48364     48368         0         1
     48372     48369     48373         0         1
     48377     48374     48378         0         1
     48382     48379     48383         0         1
     48387     48384     48388         0         1
     48392     48389     48393         0         1
     48397     48394     48398         0         1
     48402     48399     48403         0         1
     48407     48404     48408         0         1
     48412     48409     48413         0         1
     48417     48414     48418         0         1
     48422     48419     48423         0         1
     48427     48424     48428         0         1
     48432     48429     48433         0         1
     48437     48434     48438         0         1
     48442     48439     48443         0         1
     48447     48444     48448         0         1
     48452     48449     48453         0         1
     48457     48454     48458         0         1
     48462     48459     48463         0         1
     48467     48464     48468         0         1
     48472     48469     48473         0         1
     48477     48474     48478         0         1
     48482     48479     48483         0         1
     48487     48484     48488         0         1
     48492     48489     48493         0         1
     48497     48494     48498         0         1
     48502     48499     48503         0         1
     48507     48504     48508         0         1
     48512     48509     48513         0         1
     48517     48514     48518         0         1
     48522     48519     48523         0         1
     48527     48524     48528         0         1
     48532     48529     48533         0         1
     48537     48534     48538         0         1
     48542     48539     48543         0         1
     48547     48544     48548         0         1
     48552     48549     48553         0         1
     48557     48554     48558         0         1
     48562     48559     48563         0         1
     48567     48564     48568         0         1
     48572     48569     48573         0         1
     48577     48574     48578         0         1
     48582     48579     48583         0         1
     48587     48584     48588         0         1
     48592     48589     48593         0         1
     48597     48594     48598         0         1
     48602     48599     48603         0         1
     48607     48604     48608         0         1
     48612     48609     48613         0         1
     48617     48614     48618         0         1
     48622     48619     48623         0         1
     48627     48624     48628         0         1
     48632     48629     48633         0         1
     48637     48634     48638         0         1
     48642     48639     48643         0         1
     48647     48644     48648         0         1
     48652     48649     48653         0         1
     48657     48654     48658         0         1
     48662     48659     48663         0         1
     48667     48664     48668         0         1
     48672     48669     48673         0         1
     48677     48674     48678         0         1
     48682     48679     48683         0         1
     48687     48684     48688         0         1
     48692     48689     48693         0         1
     48697     48694     48698         0         1
     48702     48699     48703         0         1
     48707     48704     48708         0         1
     48712     48709     48713         0         1
     48717     48714     48718         0         1
     48722     48719     48723         0         1
     48727     48724     48728         0         1
     48732     48729     48733         0         1
     48737     48734     48738         0         1
     48742     48739     48743         0         1
     48747     48744     48748         0         1
     48752     48749     48753         0         1
     48757     48754     48758         0         1
     48762     48759     48763         0         1
     48767     48764     48768         0         1
     48772     48769     48773         0         1
     48777     48774     48778         0         1
     48782     48779     48783         0         1
     48787     48784     48788         0         1
     48792     48789     48793         0         1
     48797     48794     48798         0         1
     48802     48799     48803         0         1
     48807     48804     48808         0         1
     48812     48809     48813         0         1
     48817     48814     48818         0         1
     48822     48819     48823         0         1
     48827     48824     48828         0         1
     48832     48829     48833         0         1
     48837     48834     48838         0         1
     48842     48839     48843         0         1
     48847     48844     48848         0         1
     48852     48849     48853         0         1
     48857     48854     48858         0         1
     48862     48859     48863         0         1
     48867     48864     48868         0         1
     48872     48869     48873         0         1
     48877     48874     48878         0         1
     48882     48879     48883         0         1
     48887     48884     48888         0         1
     48892     48889     48893         0         1
     48897     48894     48898         0         1
     48902     48899     48903         0         1
     48907     48904     48908         0         1
     48912     48909     48913         0         1
     48917     48914     48918         0         1
     48922     48919     48923         0         1
     48927     48924     48928         0         1
     48932     48929     48933         0         1
     48937     48934     48938         0         1
     48942     48939     48943         0         1
     48947     48944     48948         0         1
     48952     48949     48953         0         1
     48957     48954     48958         0         1
     48962     48959     48963         0         1
     48967     48964     48968         0         1
     48972     48969     48973         0         1
     48977     48974     48978         0         1
     48982     48979     48983         0         1
     48987     48984     48988         0         1
     48992     48989     48993         0         1
     48997     48994     48998         0         1
     49002     48999     49003         0         1
     49007     49004     49008         0         1
     49012     49009     49013         0         1
     49017     49014     49018         0         1
     49022     49019     49023         0         1
     49027     49024     49028         0         1
     49032     49029     49033         0         1
     49037     49034     49038         0         1
     49042     49039     49043         0         1
     49047     49044     49048         0         1
     49052     49049     49053         0         1
     49057     49054     49058         0         1
     49062     49059     49063         0         1
     49067     49064     49068         0         1
     49072     49069     49073         0         1
     49077     49074     49078         0         1
     49082     49079     49083         0         1
     49087     49084     49088         0         1
     49092     49089     49093         0         1
     49097     49094     49098         0         1
     49102     49099     49103         0         1
     49107     49104     49108         0         1
     49112     49109     49113         0         1
     49117     49114     49118         0         1
     49122     49119     49123         0         1
     49127     49124     49128         0         1
     49132     49129     49133         0         1
     49137     49134     49138         0         1
     49142     49139     49143         0         1
     49147     49144     49148         0         1
     49152     49149     49153         0         1
     49157     49154     49158         0         1
     49162     49159     49163         0         1
     49167     49164     49168         0         1
     49172     49169     49173         0         1
     49177     49174     49178         0         1
     49182     49179     49183         0         1
     49187     49184     49188         0         1
     49192     49189     49193         0         1
     49197     49194     49198         0         1
     49202     49199     49203         0         1
     49207     49204     49208         0         1
     49212     49209     49213         0         1
     49217     49214     49218         0         1
     49222     49219     49223         0         1
     49227     49224     49228         0         1
     49232     49229     49233         0         1
     49237     49234     49238         0         1
     49242     49239     49243         0         1
     49247     49244     49248         0         1
     49252     49249     49253         0         1
     49257     49254     49258         0         1
     49262     49259     49263         0         1
     49267     49264     49268         0         1
     49272     49269     49273         0         1
     49277     49274     49278         0         1
     49282     49279     49283         0         1
     49287     49284     49288         0         1
     49292     49289     49293         0         1
     49297     49294     49298         0         1
     49302     49299     49303         0         1
     49307     49304     49308         0         1
     49312     49309     49313         0         1
     49317     49314     49318         0         1
     49322     49319     49323         0         1
     49327     49324     49328         0         1
     49332     49329     49333         0         1
     49337     49334     49338         0         1
     49342     49339     49343         0         1
     49347     49344     49348         0         1
     49352     49349     49353         0         1
     49357     49354     49358         0         1
     49362     49359     49363         0         1
     49367     49364     49368         0         1
     49372     49369     49373         0         1
     49377     49374     49378         0         1
     49382     49379     49383         0         1
     49387     49384     49388         0         1
     49392     49389     49393         0         1
     49397     49394     49398         0         1
     49402     49399     49403         0         1
     49407     49404     49408         0         1
     49412     49409     49413         0         1
     49417     49414     49418         0         1
     49422     49419     49423         0         1
     49427     49424     49428         0         1
     49432     49429     49433         0         1
     49437     49434     49438         0         1
     49442     49439     49443         0         1
     49447     49444     49448         0         1
     49452     49449     49453         0         1
     49457     49454     49458         0         1
     49462     49459     49463         0         1
     49467     49464     49468         0         1
     49472     49469     49473         0         1
     49477     49474     49478         0         1
     49482     49479     49483         0         1
     49487     49484     49488         0         1
     49492     49489     49493         0         1
     49497     49494     49498         0         1
     49502     49499     49503         0         1
     49507     49504     49508         0         1
     49512     49509     49513         0         1
     49517     49514     49518         0         1
     49522     49519     49523         0         1
     49527     49524     49528         0         1
     49532     49529     49533         0         1
     49537     49534     49538         0         1
     49542     49539     49543         0         1
     49547     49544     49548         0         1
     49552     49549     49553         0         1
     49557     49554     49558         0         1
     49562     49559     49563         0         1
     49567     49564     49568         0         1
     49572     49569     49573         0         1
     49577     49574     49578         0         1
     49582     49579     49583         0         1
     49587     49584     49588         0         1
     49592     49589     49593         0         1
     49597     49594     49598         0         1
     49602     49599     49603         0         1
     49607     49604     49608         0         1
     49612     49609     49613         0         1
     49617     49614     49618         0         1
     49622     49619     49623         0         1
     49627     49624     49628         0         1
     49632     49629     49633         0         1
     49637     49634     49638         0         1
     49642     49639     49643         0         1
     49647     49644     49648         0         1
     49652     49649     49653         0         1
     49657     49654     49658         0         1
     49662     49659     49663         0         1
     49667     49664     49668         0         1
     49672     49669     49673         0         1
     49677     49674     49678         0         1
     49682     49679     49683         0         1
     49687     49684     49688         0         1
     49692     49689     49693         0         1
     49697     49694     49698         0         1
     49702     49699     49703         0         1
     49707     49704     49708         0         1
     49712     49709     49713         0         1
     49717     49714     49718         0         1
     49722     49719     49723         0         1
     49727     49724     49728         0         1
     49732     49729     49733         0         1
     49737     49734     49738         0         1
     49742     49739     49743         0         1
     49747     49744     49748         0         1
     49752     49749     49753         0         1
     49757     49754     49758         0         1
     49762     49759     49763         0         1
     49767     49764     49768         0         1
     49772     49769     49773         0         1
     49777     49774     49778         0         1
     49782     49779     49783         0         1
     49787     49784     49788         0         1
     49792     49789     49793         0         1
     49797     49794     49798         0         1
     49802     49799     49803         0         1
     49807     49804     49808         0         1
     49812     49809     49813         0         1
     49817     49814     49818         0         1
     49822     49819     49823         0         1
     49827     49824     49828         0         1
     49832     49829     49833         0         1
     49837     49834     49838         0         1
     49842     49839     49843         0         1
     49847     49844     49848         0         1
     49852     49849     49853         0         1
     49857     49854     49858         0         1
     49862     49859     49863         0         1
     49867     49864     49868         0         1
     49872     49869     49873         0         1
     49877     49874     49878         0         1
     49882     49879     49883         0         1
     49887     49884     49888         0         1
     49892     49889     49893         0         1
     49897     49894     49898         0         1
     49902     49899     49903         0         1
     49907     49904     49908         0         1
     49912     49909     49913         0         1
     49917     49914     49918         0         1
     49922     49919     49923         0         1
     49927     49924     49928         0         1
     49932     49929     49933         0         1
     49937     49934     49938         0         1
     49942     49939     49943         0         1
     49947     49944     49948         0         1
     49952     49949     49953         0         1
     49957     49954     49958         0         1
     49962     49959     49963         0         1
     49967     49964     49968         0         1
     49972     49969     49973         0         1
     49977     49974     49978         0         1
     49982     49979     49983         0         1
     49987     49984     49988         0         1
     49992     49989     49993         0         1
     49997     49994     49998         0         1
     50002     49999     50003         0         1
     50007     50004     50008         0         1
     50012     50009     50013         0         1
     50017     50014     50018         0         1
     50022     50019     50023         0         1
     50027     50024     50028         0         1
     50032     50029     50033         0         1
     50037     50034     50038         0         1
     50042     50039     50043         0         1
     50047     50044     50048         0         1
     50052     50049     50053         0         1
     50057     50054     50058         0         1
     50062     50059     50063         0         1
     50067     50064     50068         0         1
     50072     50069     50073         0         1
     50077     50074     50078         0         1
     50082     50079     50083         0         1
     50087     50084     50088         0         1
     50092     50089     50093         0         1
     50097     50094     50098         0         1
     50102     50099     50103         0         1
     50107     50104     50108         0         1
     50112     50109     50113         0         1
     50117     50114     50118         0         1
     50122     50119     50123         0         1
     50127     50124     50128         0         1
     50132     50129     50133         0         1
     50137     50134     50138         0         1
     50142     50139     50143         0         1
     50147     50144     50148         0         1
     50152     50149     50153         0         1
     50157     50154     50158         0         1
     50162     50159     50163         0         1
     50167     50164     50168         0         1
     50172     50169     50173         0         1
     50177     50174     50178         0         1
     50182     50179     50183         0         1
     50187     50184     50188         0         1
     50192     50189     50193         0         1
     50197     50194     50198         0         1
     50202     50199     50203         0         1
     50207     50204     50208         0         1
     50212     50209     50213         0         1
     50217     50214     50218         0         1
     50222     50219     50223         0         1
     50227     50224     50228         0         1
     50232     50229     50233         0         1
     50237     50234     50238         0         1
     50242     50239     50243         0         1
     50247     50244     50248         0         1
     50252     50249     50253         0         1
     50257     50254     50258         0         1
     50262     50259     50263         0         1
     50267     50264     50268         0         1
     50272     50269     50273         0         1
     50277     50274     50278         0         1
     50282     50279     50283         0         1
     50287     50284     50288         0         1
     50292     50289     50293         0         1
     50297     50294     50298         0         1
     50302     50299     50303         0         1
     50307     50304     50308         0         1
     50312     50309     50313         0         1
     50317     50314     50318         0         1
     50322     50319     50323         0         1
     50327     50324     50328         0         1
     50332     50329     50333         0         1
     50337     50334     50338         0         1
     50342     50339     50343         0         1
     50347     50344     50348         0         1
     50352     50349     50353         0         1
     50357     50354     50358         0         1
     50362     50359     50363         0         1
     50367     50364     50368         0         1
     50372     50369     50373         0         1
     50377     50374     50378         0         1
     50382     50379     50383         0         1
     50387     50384     50388         0         1
     50392     50389     50393         0         1
     50397     50394     50398         0         1
     50402     50399     50403         0         1
     50407     50404     50408         0         1
     50412     50409     50413         0         1
     50417     50414     50418         0         1
     50422     50419     50423         0         1
     50427     50424     50428         0         1
     50432     50429     50433         0         1
     50437     50434     50438         0         1
     50442     50439     50443         0         1
     50447     50444     50448         0         1
     50452     50449     50453         0         1
     50457     50454     50458         0         1
     50462     50459     50463         0         1
     50467     50464     50468         0         1
     50472     50469     50473         0         1
     50477     50474     50478         0         1
     50482     50479     50483         0         1
     50487     50484     50488         0         1
     50492     50489     50493         0         1
     50497     50494     50498         0         1
     50502     50499     50503         0         1
     50507     50504     50508         0         1
     50512     50509     50513         0         1
     50517     50514     50518         0         1
     50522     50519     50523         0         1
     50527     50524     50528         0         1
     50532     50529     50533         0         1
     50537     50534     50538         0         1
     50542     50539     50543         0         1
     50547     50544     50548         0         1
     50552     50549     50553         0         1
     50557     50554     50558         0         1
     50562     50559     50563         0         1
     50567     50564     50568         0         1
     50572     50569     50573         0         1
     50577     50574     50578         0         1
     50582     50579     50583         0         1
     50587     50584     50588         0         1
     50592     50589     50593         0         1
     50597     50594     50598         0         1
     50602     50599     50603         0         1
     50607     50604     50608         0         1
     50612     50609     50613         0         1
     50617     50614     50618         0         1
     50622     50619     50623         0         1
     50627     50624     50628         0         1
     50632     50629     50633         0         1
     50637     50634     50638         0         1
     50642     50639     50643         0         1
     50647     50644     50648         0         1
     50652     50649     50653         0         1
     50657     50654     50658         0         1
     50662     50659     50663         0         1
     50667     50664     50668         0         1
     50672     50669     50673         0         1
     50677     50674     50678         0         1
     50682     50679     50683         0         1
     50687     50684     50688         0         1
     50692     50689     50693         0         1
     50697     50694     50698         0         1
     50702     50699     50703         0         1
     50707     50704     50708         0         1
     50712     50709     50713         0         1
     50717     50714     50718         0         1
     50722     50719     50723         0         1
     50727     50724     50728         0         1
     50732     50729     50733         0         1
     50737     50734     50738         0         1
     50742     50739     50743         0         1
     50747     50744     50748         0         1
     50752     50749     50753         0         1
     50757     50754     50758         0         1
     50762     50759     50763         0         1
     50767     50764     50768         0         1
     50772     50769     50773         0         1
     50777     50774     50778         0         1
     50782     50779     50783         0         1
     50787     50784     50788         0         1
     50792     50789     50793         0         1
     50797     50794     50798         0         1
     50802     50799     50803         0         1
     50807     50804     50808         0         1
     50812     50809     50813         0         1
     50817     50814     50818         0         1
     50822     50819     50823         0         1
     50827     50824     50828         0         1
     50832     50829     50833         0         1
     50837     50834     50838         0         1
     50842     50839     50843         0         1
     50847     50844     50848         0         1
     50852     50849     50853         0         1
     50857     50854     50858         0         1
     50862     50859     50863         0         1
     50867     50864     50868         0         1
     50872     50869     50873         0         1
     50877     50874     50878         0         1
     50882     50879     50883         0         1
     50887     50884     50888         0         1
     50892     50889     50893         0         1
     50897     50894     50898         0         1
     50902     50899     50903         0         1
     50907     50904     50908         0         1
     50912     50909     50913         0         1
     50917     50914     50918         0         1
     50922     50919     50923         0         1
     50927     50924     50928         0         1
     50932     50929     50933         0         1
     50937     50934     50938         0         1
     50942     50939     50943         0         1
     50947     50944     50948         0         1
     50952     50949     50953         0         1
     50957     50954     50958         0         1
     50962     50959     50963         0         1
     50967     50964     50968         0         1
     50972     50969     50973         0         1
     50977     50974     50978         0         1
     50982     50979     50983         0         1
     50987     50984     50988         0         1
     50992     50989     50993         0         1
     50997     50994     50998         0         1
     51002     50999     51003         0         1
     51007     51004     51008         0         1
     51012     51009     51013         0         1
     51017     51014     51018         0         1
     51022     51019     51023         0         1
     51027     51024     51028         0         1
     51032     51029     51033         0         1
     51037     51034     51038         0         1
     51042     51039     51043         0         1
     51047     51044     51048         0         1
     51052     51049     51053         0         1
     51057     51054     51058         0         1
     51062     51059     51063         0         1
     51067     51064     51068         0         1
     51072     51069     51073         0         1
     51077     51074     51078         0         1
     51082     51079     51083         0         1
     51087     51084     51088         0         1
     51092     51089     51093         0         1
     51097     51094     51098         0         1
     51102     51099     51103         0         1
     51107     51104     51108         0         1
     51112     51109     51113         0         1
     51117     51114     51118         0         1
     51122     51119     51123         0         1
     51127     51124     51128         0         1
     51132     51129     51133         0         1
     51137     51134     51138         0         1
     51142     51139     51143         0         1
     51147     51144     51148         0         1
     51152     51149     51153         0         1
     51157     51154     51158         0         1
     51162     51159     51163         0         1
     51167     51164     51168         0         1
     51172     51169     51173         0         1
     51177     51174     51178         0         1
     51182     51179     51183         0         1
     51187     51184     51188         0         1
     51192     51189     51193         0         1
     51197     51194     51198         0         1
     51202     51199     51203         0         1
     51207     51204     51208         0         1
     51212     51209     51213         0         1
     51217     51214     51218         0         1
     51222     51219     51223         0         1
     51227     51224     51228         0         1
     51232     51229     51233         0         1
     51237     51234     51238         0         1
     51242     51239     51243         0         1
     51247     51244     51248         0         1
     51252     51249     51253         0         1
     51257     51254     51258         0         1
     51262     51259     51263         0         1
     51267     51264     51268         0         1
     51272     51269     51273         0         1
     51277     51274     51278         0         1
     51282     51279     51283         0         1
     51287     51284     51288         0         1
     51292     51289     51293         0         1
     51297     51294     51298         0         1
     51302     51299     51303         0         1
     51307     51304     51308         0         1
     51312     51309     51313         0         1
     51317     51314     51318         0         1
     51322     51319     51323         0         1
     51327     51324     51328         0         1
     51332     51329     51333         0         1
     51337     51334     51338         0         1
     51342     51339     51343         0         1
     51347     51344     51348         0         1
     51352     51349     51353         0         1
     51357     51354     51358         0         1
     51362     51359     51363         0         1
     51367     51364     51368         0         1
     51372     51369     51373         0         1
     51377     51374     51378         0         1
     51382     51379     51383         0         1
     51387     51384     51388         0         1
     51392     51389     51393         0         1
     51397     51394     51398         0         1
     51402     51399     51403         0         1
     51407     51404     51408         0         1
